<event>
 7    1  0.6245487E-013  0.5052887E+02  0.7816164E-02  0.1300439E+00
        -11   -1    0    0    0    0  0.00000000000E+00  0.00000000000E+00  0.45593999997E+02  0.45594000000E+02  0.51100000000E-03 0.  1.
         11   -1    0    0    0    0 -0.00000000000E+00 -0.00000000000E+00 -0.45593999997E+02  0.45594000000E+02  0.51100000000E-03 0. -1.
    9900012    2    1    2    0    0  0.37095682933E+02  0.77477815165E+01  0.14732526559E+02  0.50528866346E+02  0.30000019746E+02 0.  0.
         12    1    1    2    0    0 -0.37095682933E+02 -0.77477815165E+01 -0.14732526559E+02  0.40659133654E+02  0.00000000000E+00 0. -1.
         11    1    3    3    0    0  0.11268167044E+02  0.96230274845E+01  0.18617912833E+01  0.14934540955E+02  0.51100000000E-03 0. -1.
        -11    1    3    3    0    0 -0.13480529376E+01  0.24170254504E+01  0.69099297708E+01  0.74435467654E+01  0.51100000000E-03 0.  1.
        -12    1    3    3    0    0  0.27175568826E+02 -0.42922714183E+01  0.59608055045E+01  0.28150778625E+02  0.00000000000E+00 0.  1.
</event>
<event>
 7    1  0.7727741E-013  0.5052889E+02  0.7816164E-02  0.1300439E+00
        -11   -1    0    0    0    0  0.00000000000E+00  0.00000000000E+00  0.45593999997E+02  0.45594000000E+02  0.51100000000E-03 0.  1.
         11   -1    0    0    0    0 -0.00000000000E+00 -0.00000000000E+00 -0.45593999997E+02  0.45594000000E+02  0.51100000000E-03 0. -1.
    9900012    2    1    2    0    0  0.82242533012E+01 -0.26377250887E+02  0.29828933755E+02  0.50528892832E+02  0.30000100252E+02 0.  0.
         12    1    1    2    0    0 -0.82242533012E+01  0.26377250887E+02 -0.29828933755E+02  0.40659107168E+02  0.00000000000E+00 0. -1.
         11    1    3    3    0    0  0.72186472833E+00 -0.28190509567E+01 -0.33308283643E+01  0.44229577022E+01  0.51100000000E-03 0. -1.
        -11    1    3    3    0    0  0.11761590769E+02 -0.17231136053E+02  0.13073597955E+02  0.24620439290E+02  0.51100000000E-03 0.  1.
        -12    1    3    3    0    0 -0.42592021958E+01 -0.63270638776E+01  0.20086164164E+02  0.21485495840E+02  0.00000000000E+00 0.  1.
</event>
<event>
 7    1  0.6245487E-013  0.5052886E+02  0.7816164E-02  0.1300439E+00
        -11   -1    0    0    0    0  0.00000000000E+00  0.00000000000E+00  0.45593999997E+02  0.45594000000E+02  0.51100000000E-03 0.  1.
         11   -1    0    0    0    0 -0.00000000000E+00 -0.00000000000E+00 -0.45593999997E+02  0.45594000000E+02  0.51100000000E-03 0. -1.
    9900012    2    1    2    0    0  0.14518091040E+02 -0.38747849327E+01  0.37780645040E+02  0.50528855083E+02  0.29999985510E+02 0.  0.
         12    1    1    2    0    0 -0.14518091040E+02  0.38747849327E+01 -0.37780645040E+02  0.40659144917E+02  0.00000000000E+00 0. -1.
         11    1    3    3    0    0  0.10849179882E+02  0.71930066584E+00  0.11291687332E+02  0.15675595702E+02  0.51100000000E-03 0. -1.
        -11    1    3    3    0    0  0.37274789923E+01 -0.12583517787E+02  0.22189877197E+02  0.25780412522E+02  0.51100000000E-03 0.  1.
        -12    1    3    3    0    0 -0.58567833673E-01  0.79894321883E+01  0.42990805122E+01  0.90728468593E+01  0.00000000000E+00 0.  1.
</event>
<event>
 7    1  0.6245487E-013  0.5052885E+02  0.7816164E-02  0.1300439E+00
        -11   -1    0    0    0    0  0.00000000000E+00  0.00000000000E+00  0.45593999997E+02  0.45594000000E+02  0.51100000000E-03 0.  1.
         11   -1    0    0    0    0 -0.00000000000E+00 -0.00000000000E+00 -0.45593999997E+02  0.45594000000E+02  0.51100000000E-03 0. -1.
    9900012    2    1    2    0    0 -0.13318929631E+02 -0.26223991176E+02  0.28072672953E+02  0.50528848921E+02  0.29999966781E+02 0.  0.
         12    1    1    2    0    0  0.13318929631E+02  0.26223991176E+02 -0.28072672953E+02  0.40659151079E+02  0.00000000000E+00 0. -1.
         11    1    3    3    0    0 -0.93721986216E+01  0.10413124910E+01  0.86767579993E+01  0.12814389113E+02  0.51100000000E-03 0. -1.
        -11    1    3    3    0    0  0.30493698691E+01  0.99472923762E+00  0.15011881256E+01  0.35414275235E+01  0.51100000000E-03 0.  1.
         12    1    3    3    0    0 -0.69961008779E+01 -0.28260032905E+02  0.17894726828E+02  0.34173032285E+02  0.00000000000E+00 0. -1.
</event>
<event>
 7    1  0.6245487E-013  0.5052887E+02  0.7816164E-02  0.1300439E+00
        -11   -1    0    0    0    0  0.00000000000E+00  0.00000000000E+00  0.45593999997E+02  0.45594000000E+02  0.51100000000E-03 0. -1.
         11   -1    0    0    0    0 -0.00000000000E+00 -0.00000000000E+00 -0.45593999997E+02  0.45594000000E+02  0.51100000000E-03 0.  1.
    9900012    2    1    2    0    0 -0.37762822748E+02 -0.13387889675E+02 -0.69208958226E+01  0.50528866084E+02  0.30000018949E+02 0.  0.
         12    1    1    2    0    0  0.37762822748E+02  0.13387889675E+02  0.69208958226E+01  0.40659133916E+02  0.00000000000E+00 0. -1.
         11    1    3    3    0    0 -0.19889180511E+02  0.10833929758E+01  0.23764848790E+01  0.20059933260E+02  0.51100000000E-03 0. -1.
        -11    1    3    3    0    0 -0.16496650158E+02 -0.70378935241E+01 -0.12901959921E+02  0.22093709099E+02  0.51100000000E-03 0.  1.
        -12    1    3    3    0    0 -0.13769920780E+01 -0.74333891265E+01  0.36045792196E+01  0.83752237247E+01  0.00000000000E+00 0.  1.
</event>
<event>
 7    1  0.6245487E-013  0.5052886E+02  0.7816164E-02  0.1300439E+00
        -11   -1    0    0    0    0  0.00000000000E+00  0.00000000000E+00  0.45593999997E+02  0.45594000000E+02  0.51100000000E-03 0. -1.
         11   -1    0    0    0    0 -0.00000000000E+00 -0.00000000000E+00 -0.45593999997E+02  0.45594000000E+02  0.51100000000E-03 0.  1.
    9900012    2    1    2    0    0 -0.20753328320E+02  0.34925478143E+02  0.16358576984E+01  0.50528859696E+02  0.29999999532E+02 0.  0.
         12    1    1    2    0    0  0.20753328320E+02 -0.34925478143E+02 -0.16358576984E+01  0.40659140304E+02  0.00000000000E+00 0. -1.
         11    1    3    3    0    0 -0.31586997361E+01 -0.14735111532E-01  0.50766000120E+01  0.59790859744E+01  0.51100000000E-03 0. -1.
        -11    1    3    3    0    0 -0.83639870708E+01  0.11786907737E+02 -0.11374558231E+02  0.18392064836E+02  0.51100000000E-03 0.  1.
         12    1    3    3    0    0 -0.92306415130E+01  0.23153305518E+02  0.79338159174E+01  0.26157708886E+02  0.00000000000E+00 0. -1.
</event>
<event>
 7    1  0.6245487E-013  0.5052886E+02  0.7816164E-02  0.1300439E+00
        -11   -1    0    0    0    0  0.00000000000E+00  0.00000000000E+00  0.45593999997E+02  0.45594000000E+02  0.51100000000E-03 0.  1.
         11   -1    0    0    0    0 -0.00000000000E+00 -0.00000000000E+00 -0.45593999997E+02  0.45594000000E+02  0.51100000000E-03 0. -1.
    9900012    2    1    2    0    0 -0.12027851222E+02 -0.38837853323E+02 -0.34252893653E+00  0.50528863489E+02  0.30000011062E+02 0.  0.
         12    1    1    2    0    0  0.12027851222E+02  0.38837853323E+02  0.34252893653E+00  0.40659136511E+02  0.00000000000E+00 0. -1.
         11    1    3    3    0    0  0.38740587269E+01 -0.22189232530E+01  0.27048880930E+01  0.52199972489E+01  0.51100000000E-03 0. -1.
        -11    1    3    3    0    0 -0.24864844985E+01  0.24326935219E+01  0.14586645700E+01  0.37720426192E+01  0.51100000000E-03 0.  1.
        -12    1    3    3    0    0 -0.13415425450E+02 -0.39051623591E+02 -0.45060815995E+01  0.41536823621E+02  0.00000000000E+00 0.  1.
</event>
<event>
 7    1  0.6245487E-013  0.5052886E+02  0.7816164E-02  0.1300439E+00
        -11   -1    0    0    0    0  0.00000000000E+00  0.00000000000E+00  0.45593999997E+02  0.45594000000E+02  0.51100000000E-03 0.  1.
         11   -1    0    0    0    0 -0.00000000000E+00 -0.00000000000E+00 -0.45593999997E+02  0.45594000000E+02  0.51100000000E-03 0. -1.
    9900012    2    1    2    0    0 -0.35315234805E+01 -0.12140399690E+02  0.38643297501E+02  0.50528863210E+02  0.30000010214E+02 0.  0.
         12    1    1    2    0    0  0.35315234805E+01  0.12140399690E+02 -0.38643297501E+02  0.40659136790E+02  0.00000000000E+00 0. -1.
         11    1    3    3    0    0 -0.21017752193E+01  0.63285830556E+01  0.24067628217E+01  0.70894943476E+01  0.51100000000E-03 0. -1.
        -11    1    3    3    0    0  0.32385544269E+01 -0.24829276136E+01  0.62798734103E+00  0.41288657852E+01  0.51100000000E-03 0.  1.
        -12    1    3    3    0    0 -0.46683026881E+01 -0.15986055132E+02  0.35608547338E+02  0.39310503078E+02  0.00000000000E+00 0.  1.
</event>
<event>
 7    1  0.6245487E-013  0.5052886E+02  0.7816164E-02  0.1300439E+00
        -11   -1    0    0    0    0  0.00000000000E+00  0.00000000000E+00  0.45593999997E+02  0.45594000000E+02  0.51100000000E-03 0.  1.
         11   -1    0    0    0    0 -0.00000000000E+00 -0.00000000000E+00 -0.45593999997E+02  0.45594000000E+02  0.51100000000E-03 0. -1.
    9900012    2    1    2    0    0 -0.13658436666E+02 -0.11276182233E+02  0.36598639708E+02  0.50528860727E+02  0.30000002666E+02 0.  0.
         12    1    1    2    0    0  0.13658436666E+02  0.11276182233E+02 -0.36598639708E+02  0.40659139273E+02  0.00000000000E+00 0. -1.
         11    1    3    3    0    0 -0.42721740050E+01 -0.91410570769E+01  0.20940612802E+02  0.23244777047E+02  0.51100000000E-03 0. -1.
        -11    1    3    3    0    0 -0.87466167050E+01 -0.91101493644E+01  0.15863469013E+02  0.20276779197E+02  0.51100000000E-03 0.  1.
         12    1    3    3    0    0 -0.63964595629E+00  0.69750242080E+01 -0.20544210668E+00  0.70073044826E+01  0.00000000000E+00 0. -1.
</event>
<event>
 7    1  0.6245487E-013  0.5052885E+02  0.7816164E-02  0.1300439E+00
        -11   -1    0    0    0    0  0.00000000000E+00  0.00000000000E+00  0.45593999997E+02  0.45594000000E+02  0.51100000000E-03 0.  1.
         11   -1    0    0    0    0 -0.00000000000E+00 -0.00000000000E+00 -0.45593999997E+02  0.45594000000E+02  0.51100000000E-03 0. -1.
    9900012    2    1    2    0    0  0.32295441233E+02  0.24313498697E+02  0.43616920241E+01  0.50528854649E+02  0.29999984192E+02 0.  0.
         12    1    1    2    0    0 -0.32295441233E+02 -0.24313498697E+02 -0.43616920241E+01  0.40659145351E+02  0.00000000000E+00 0. -1.
         11    1    3    3    0    0  0.15594793748E+01  0.41125385916E+01 -0.58528435169E+01  0.73212517429E+01  0.51100000000E-03 0. -1.
        -11    1    3    3    0    0  0.69799888624E+01  0.12092383280E+02  0.11477338081E+02  0.18074160218E+02  0.51100000000E-03 0.  1.
         12    1    3    3    0    0  0.23755972996E+02  0.81085768261E+01 -0.12628025401E+01  0.25133442688E+02  0.00000000000E+00 0. -1.
</event>
<event>
 7    1  0.6245487E-013  0.5052886E+02  0.7816164E-02  0.1300439E+00
        -11   -1    0    0    0    0  0.00000000000E+00  0.00000000000E+00  0.45593999997E+02  0.45594000000E+02  0.51100000000E-03 0. -1.
         11   -1    0    0    0    0 -0.00000000000E+00 -0.00000000000E+00 -0.45593999997E+02  0.45594000000E+02  0.51100000000E-03 0.  1.
    9900012    2    1    2    0    0  0.54593854164E+01  0.28697669510E+02 -0.28280817216E+02  0.50528859000E+02  0.29999997415E+02 0.  0.
         12    1    1    2    0    0 -0.54593854164E+01 -0.28697669510E+02  0.28280817216E+02  0.40659141000E+02  0.00000000000E+00 0. -1.
         11    1    3    3    0    0 -0.10369077209E+01  0.13534358313E+02 -0.25856417176E+02  0.29202882427E+02  0.51100000000E-03 0. -1.
        -11    1    3    3    0    0  0.36000673573E+01  0.12918756175E+02 -0.72670082240E+01  0.15253332583E+02  0.51100000000E-03 0.  1.
         12    1    3    3    0    0  0.28962257800E+01  0.22445550218E+01  0.48426081836E+01  0.60726439904E+01  0.00000000000E+00 0. -1.
</event>
<event>
 7    1  0.6245487E-013  0.5052886E+02  0.7816164E-02  0.1300439E+00
        -11   -1    0    0    0    0  0.00000000000E+00  0.00000000000E+00  0.45593999997E+02  0.45594000000E+02  0.51100000000E-03 0.  1.
         11   -1    0    0    0    0 -0.00000000000E+00 -0.00000000000E+00 -0.45593999997E+02  0.45594000000E+02  0.51100000000E-03 0. -1.
    9900012    2    1    2    0    0  0.29774439030E+02  0.27653155486E+02 -0.13968707261E+01  0.50528862334E+02  0.30000007550E+02 0.  0.
         12    1    1    2    0    0 -0.29774439030E+02 -0.27653155486E+02  0.13968707261E+01  0.40659137666E+02  0.00000000000E+00 0. -1.
         11    1    3    3    0    0 -0.39093202066E+01  0.35545302172E+01 -0.54294801648E+01  0.75760626095E+01  0.51100000000E-03 0. -1.
        -11    1    3    3    0    0  0.85993846349E+01  0.11496888793E+02  0.39123756545E+01  0.14880677119E+02  0.51100000000E-03 0.  1.
        -12    1    3    3    0    0  0.25084374602E+02  0.12601736477E+02  0.12023378413E+00  0.28072122605E+02  0.00000000000E+00 0.  1.
</event>
<event>
 7    1  0.6245487E-013  0.5052886E+02  0.7816164E-02  0.1300439E+00
        -11   -1    0    0    0    0  0.00000000000E+00  0.00000000000E+00  0.45593999997E+02  0.45594000000E+02  0.51100000000E-03 0.  1.
         11   -1    0    0    0    0 -0.00000000000E+00 -0.00000000000E+00 -0.45593999997E+02  0.45594000000E+02  0.51100000000E-03 0. -1.
    9900012    2    1    2    0    0 -0.33848200106E+02  0.11137632774E+02  0.19581063286E+02  0.50528861377E+02  0.30000004641E+02 0.  0.
         12    1    1    2    0    0  0.33848200106E+02 -0.11137632774E+02 -0.19581063286E+02  0.40659138623E+02  0.00000000000E+00 0. -1.
         11    1    3    3    0    0 -0.19549940250E+02  0.26757781824E+01  0.69309813891E+01  0.20914073155E+02  0.51100000000E-03 0. -1.
        -11    1    3    3    0    0 -0.65416405510E+01  0.90038549252E+01  0.17288388246E+02  0.20560905453E+02  0.51100000000E-03 0.  1.
         12    1    3    3    0    0 -0.77566193047E+01 -0.54200033343E+00 -0.46383063500E+01  0.90538827691E+01  0.00000000000E+00 0. -1.
</event>
<event>
 7    1  0.6245487E-013  0.5052886E+02  0.7816164E-02  0.1300439E+00
        -11   -1    0    0    0    0  0.00000000000E+00  0.00000000000E+00  0.45593999997E+02  0.45594000000E+02  0.51100000000E-03 0. -1.
         11   -1    0    0    0    0 -0.00000000000E+00 -0.00000000000E+00 -0.45593999997E+02  0.45594000000E+02  0.51100000000E-03 0.  1.
    9900012    2    1    2    0    0 -0.80573632725E+01 -0.10731681511E+02 -0.38380667078E+02  0.50528859621E+02  0.29999999305E+02 0.  0.
         12    1    1    2    0    0  0.80573632725E+01  0.10731681511E+02  0.38380667078E+02  0.40659140379E+02  0.00000000000E+00 0. -1.
         11    1    3    3    0    0 -0.52523332188E+01 -0.95502388193E+01 -0.82139581601E+01  0.13647826738E+02  0.51100000000E-03 0. -1.
        -11    1    3    3    0    0  0.74852617880E+01 -0.60841857506E+01 -0.11506723243E+02  0.15015030480E+02  0.51100000000E-03 0.  1.
         12    1    3    3    0    0 -0.10290291842E+02  0.49027430588E+01 -0.18659985676E+02  0.21866002403E+02  0.00000000000E+00 0. -1.
</event>
<event>
 7    1  0.6245487E-013  0.5052887E+02  0.7816164E-02  0.1300439E+00
        -11   -1    0    0    0    0  0.00000000000E+00  0.00000000000E+00  0.45593999997E+02  0.45594000000E+02  0.51100000000E-03 0. -1.
         11   -1    0    0    0    0 -0.00000000000E+00 -0.00000000000E+00 -0.45593999997E+02  0.45594000000E+02  0.51100000000E-03 0.  1.
    9900012    2    1    2    0    0  0.38734194829E+02  0.78255559756E+01  0.95701515933E+01  0.50528868468E+02  0.30000026196E+02 0.  0.
         12    1    1    2    0    0 -0.38734194829E+02 -0.78255559756E+01 -0.95701515933E+01  0.40659131532E+02  0.00000000000E+00 0. -1.
         11    1    3    3    0    0  0.14577095379E+02  0.50951848262E+01  0.40027035455E+01  0.15952249184E+02  0.51100000000E-03 0. -1.
        -11    1    3    3    0    0  0.77708194538E+01  0.28886142919E+01  0.13906247334E+02  0.16189917934E+02  0.51100000000E-03 0.  1.
        -12    1    3    3    0    0  0.16386279996E+02 -0.15824314253E+00 -0.83387992866E+01  0.18386701350E+02  0.00000000000E+00 0.  1.
</event>
<event>
 7    1  0.6245487E-013  0.5052880E+02  0.7816164E-02  0.1300439E+00
        -11   -1    0    0    0    0  0.00000000000E+00  0.00000000000E+00  0.45593999997E+02  0.45594000000E+02  0.51100000000E-03 0.  1.
         11   -1    0    0    0    0 -0.00000000000E+00 -0.00000000000E+00 -0.45593999997E+02  0.45594000000E+02  0.51100000000E-03 0. -1.
    9900012    2    1    2    0    0  0.14860123902E+02 -0.16532250517E+01  0.37810243007E+02  0.50528795486E+02  0.29999804358E+02 0.  0.
         12    1    1    2    0    0 -0.14860123902E+02  0.16532250517E+01 -0.37810243007E+02  0.40659204514E+02  0.00000000000E+00 0. -1.
         11    1    3    3    0    0  0.32969786188E+01  0.84421104627E+01  0.34949371184E+01  0.97135926824E+01  0.51100000000E-03 0. -1.
        -11    1    3    3    0    0  0.83278251021E+01  0.25597008635E+01  0.17243853345E+02  0.19319814126E+02  0.51100000000E-03 0.  1.
         12    1    3    3    0    0  0.32353201809E+01 -0.12655036378E+02  0.17071452545E+02  0.21495388677E+02  0.00000000000E+00 0. -1.
</event>
<event>
 7    1  0.6565810E-013  0.5052894E+02  0.7816164E-02  0.1300439E+00
        -11   -1    0    0    0    0  0.00000000000E+00  0.00000000000E+00  0.45593999997E+02  0.45594000000E+02  0.51100000000E-03 0. -1.
         11   -1    0    0    0    0 -0.00000000000E+00 -0.00000000000E+00 -0.45593999997E+02  0.45594000000E+02  0.51100000000E-03 0.  1.
    9900012    2    1    2    0    0  0.96160244942E+01 -0.29178503926E+02 -0.26632799419E+02  0.50528941682E+02  0.30000248734E+02 0.  0.
         12    1    1    2    0    0 -0.96160244942E+01  0.29178503926E+02  0.26632799419E+02  0.40659058318E+02  0.00000000000E+00 0. -1.
         11    1    3    3    0    0  0.18229070702E+01  0.12135501750E+01 -0.13481561708E+02  0.13658264918E+02  0.51100000000E-03 0. -1.
        -11    1    3    3    0    0  0.71995346586E+01 -0.16254662215E+02 -0.14097949548E+02  0.22689194009E+02  0.51100000000E-03 0.  1.
        -12    1    3    3    0    0  0.59358276543E+00 -0.14137391886E+02  0.94671183710E+00  0.14181482755E+02  0.00000000000E+00 0.  1.
</event>
<event>
 7    1  0.7548109E-013  0.5052886E+02  0.7816164E-02  0.1300439E+00
        -11   -1    0    0    0    0  0.00000000000E+00  0.00000000000E+00  0.45593999997E+02  0.45594000000E+02  0.51100000000E-03 0.  1.
         11   -1    0    0    0    0 -0.00000000000E+00 -0.00000000000E+00 -0.45593999997E+02  0.45594000000E+02  0.51100000000E-03 0. -1.
    9900012    2    1    2    0    0 -0.30016201908E+02  0.26569026567E+02 -0.68029613379E+01  0.50528857945E+02  0.29999994209E+02 0.  0.
         12    1    1    2    0    0  0.30016201908E+02 -0.26569026567E+02  0.68029613379E+01  0.40659142055E+02  0.00000000000E+00 0. -1.
         11    1    3    3    0    0  0.13689982680E+00 -0.37681831987E+01 -0.38997732761E+01  0.54245901272E+01  0.51100000000E-03 0. -1.
        -11    1    3    3    0    0 -0.94342136258E+01  0.57891161027E+01  0.48093286147E+01  0.12068466927E+02  0.51100000000E-03 0.  1.
        -12    1    3    3    0    0 -0.20718888109E+02  0.24548093663E+02 -0.77125166765E+01  0.33035800890E+02  0.00000000000E+00 0.  1.
</event>
<event>
 7    1  0.6245487E-013  0.5052885E+02  0.7816164E-02  0.1300439E+00
        -11   -1    0    0    0    0  0.00000000000E+00  0.00000000000E+00  0.45593999997E+02  0.45594000000E+02  0.51100000000E-03 0. -1.
         11   -1    0    0    0    0 -0.00000000000E+00 -0.00000000000E+00 -0.45593999997E+02  0.45594000000E+02  0.51100000000E-03 0.  1.
    9900012    2    1    2    0    0  0.23176308170E+02  0.24099359398E+02  0.23135378172E+02  0.50528854572E+02  0.29999983956E+02 0.  0.
         12    1    1    2    0    0 -0.23176308170E+02 -0.24099359398E+02 -0.23135378172E+02  0.40659145428E+02  0.00000000000E+00 0. -1.
         11    1    3    3    0    0  0.65107618262E+00  0.53448455039E+01  0.16122632443E+02  0.16997957254E+02  0.51100000000E-03 0. -1.
        -11    1    3    3    0    0  0.60528919061E+01 -0.18376361097E+01  0.23714593657E+01  0.67556070550E+01  0.51100000000E-03 0.  1.
         12    1    3    3    0    0  0.16472340082E+02  0.20592150003E+02  0.46412863633E+01  0.26775290262E+02  0.00000000000E+00 0. -1.
</event>
<event>
 7    1  0.6245487E-013  0.5052886E+02  0.7816164E-02  0.1300439E+00
        -11   -1    0    0    0    0  0.00000000000E+00  0.00000000000E+00  0.45593999997E+02  0.45594000000E+02  0.51100000000E-03 0.  1.
         11   -1    0    0    0    0 -0.00000000000E+00 -0.00000000000E+00 -0.45593999997E+02  0.45594000000E+02  0.51100000000E-03 0. -1.
    9900012    2    1    2    0    0 -0.30065400787E+02  0.23085628307E+02  0.14706842790E+02  0.50528858547E+02  0.29999996040E+02 0.  0.
         12    1    1    2    0    0  0.30065400787E+02 -0.23085628307E+02 -0.14706842790E+02  0.40659141453E+02  0.00000000000E+00 0. -1.
         11    1    3    3    0    0 -0.31689036050E+01 -0.11472662605E+01  0.36195401756E+01  0.49456285015E+01  0.51100000000E-03 0. -1.
        -11    1    3    3    0    0 -0.34986632181E+01  0.16248157013E+02  0.12535901476E+02  0.20818070917E+02  0.51100000000E-03 0.  1.
        -12    1    3    3    0    0 -0.23397833964E+02  0.79847375553E+01 -0.14485988608E+01  0.24765159129E+02  0.00000000000E+00 0.  1.
</event>
<event>
 7    1  0.6245487E-013  0.5052887E+02  0.7816164E-02  0.1300439E+00
        -11   -1    0    0    0    0  0.00000000000E+00  0.00000000000E+00  0.45593999997E+02  0.45594000000E+02  0.51100000000E-03 0.  1.
         11   -1    0    0    0    0 -0.00000000000E+00 -0.00000000000E+00 -0.45593999997E+02  0.45594000000E+02  0.51100000000E-03 0. -1.
    9900012    2    1    2    0    0  0.14406135181E+02  0.17466721932E+02  0.33771908261E+02  0.50528869494E+02  0.30000029314E+02 0.  0.
         12    1    1    2    0    0 -0.14406135181E+02 -0.17466721932E+02 -0.33771908261E+02  0.40659130506E+02  0.00000000000E+00 0. -1.
         11    1    3    3    0    0 -0.37147762636E+01  0.14534286819E+01  0.10583683071E+02  0.11310453803E+02  0.51100000000E-03 0. -1.
        -11    1    3    3    0    0  0.10735810576E+02 -0.28801434629E+01  0.60075368372E+01  0.12635005113E+02  0.51100000000E-03 0.  1.
        -12    1    3    3    0    0  0.73851008691E+01  0.18893436713E+02  0.17180688353E+02  0.26583410578E+02  0.00000000000E+00 0.  1.
</event>
<event>
 7    1  0.6245487E-013  0.5052883E+02  0.7816164E-02  0.1300439E+00
        -11   -1    0    0    0    0  0.00000000000E+00  0.00000000000E+00  0.45593999997E+02  0.45594000000E+02  0.51100000000E-03 0.  1.
         11   -1    0    0    0    0 -0.00000000000E+00 -0.00000000000E+00 -0.45593999997E+02  0.45594000000E+02  0.51100000000E-03 0. -1.
    9900012    2    1    2    0    0 -0.40577371611E+02  0.25693782036E+01  0.20800460667E+00  0.50528830590E+02  0.29999911062E+02 0.  0.
         12    1    1    2    0    0  0.40577371611E+02 -0.25693782036E+01 -0.20800460667E+00  0.40659169410E+02  0.00000000000E+00 0. -1.
         11    1    3    3    0    0 -0.41482773323E+01 -0.50113040940E+01  0.26805615180E+01  0.70361057312E+01  0.51100000000E-03 0. -1.
        -11    1    3    3    0    0 -0.34462142675E+02 -0.11397500664E+01 -0.21275612044E+01  0.34546560247E+02  0.51100000000E-03 0.  1.
         12    1    3    3    0    0 -0.19669516031E+01  0.87204323640E+01 -0.34499570686E+00  0.89461646118E+01  0.00000000000E+00 0. -1.
</event>
<event>
 7    1  0.6245487E-013  0.5052886E+02  0.7816164E-02  0.1300439E+00
        -11   -1    0    0    0    0  0.00000000000E+00  0.00000000000E+00  0.45593999997E+02  0.45594000000E+02  0.51100000000E-03 0. -1.
         11   -1    0    0    0    0 -0.00000000000E+00 -0.00000000000E+00 -0.45593999997E+02  0.45594000000E+02  0.51100000000E-03 0.  1.
    9900012    2    1    2    0    0  0.13648534193E+02 -0.36957421026E+02 -0.10051481922E+02  0.50528859043E+02  0.29999997548E+02 0.  0.
         12    1    1    2    0    0 -0.13648534193E+02  0.36957421026E+02  0.10051481922E+02  0.40659140957E+02  0.00000000000E+00 0. -1.
         11    1    3    3    0    0  0.10662146740E+02  0.16406257083E+00  0.16588091021E+01  0.10791660555E+02  0.51100000000E-03 0. -1.
        -11    1    3    3    0    0  0.19408166192E+00 -0.25280730411E+02 -0.47581986304E+01  0.25725346494E+02  0.51100000000E-03 0.  1.
        -12    1    3    3    0    0  0.27923057911E+01 -0.11840753186E+02 -0.69520923940E+01  0.14011851994E+02  0.00000000000E+00 0.  1.
</event>
<event>
 7    1  0.6245487E-013  0.5052886E+02  0.7816164E-02  0.1300439E+00
        -11   -1    0    0    0    0  0.00000000000E+00  0.00000000000E+00  0.45593999997E+02  0.45594000000E+02  0.51100000000E-03 0.  1.
         11   -1    0    0    0    0 -0.00000000000E+00 -0.00000000000E+00 -0.45593999997E+02  0.45594000000E+02  0.51100000000E-03 0. -1.
    9900012    2    1    2    0    0 -0.28069520789E+02  0.43926250769E+01  0.29085611933E+02  0.50528856208E+02  0.29999988930E+02 0.  0.
         12    1    1    2    0    0  0.28069520789E+02 -0.43926250769E+01 -0.29085611933E+02  0.40659143792E+02  0.00000000000E+00 0. -1.
         11    1    3    3    0    0 -0.28104431179E+01  0.16693080768E+01 -0.32510044394E+01  0.46102288555E+01  0.51100000000E-03 0. -1.
        -11    1    3    3    0    0  0.21709704738E+01 -0.29479304088E+00  0.10506224188E+02  0.10732230089E+02  0.51100000000E-03 0.  1.
        -12    1    3    3    0    0 -0.27430048145E+02  0.30181100410E+01  0.21830392184E+02  0.35186397263E+02  0.00000000000E+00 0.  1.
</event>
<event>
 7    1  0.6245487E-013  0.5052886E+02  0.7816164E-02  0.1300439E+00
        -11   -1    0    0    0    0  0.00000000000E+00  0.00000000000E+00  0.45593999997E+02  0.45594000000E+02  0.51100000000E-03 0.  1.
         11   -1    0    0    0    0 -0.00000000000E+00 -0.00000000000E+00 -0.45593999997E+02  0.45594000000E+02  0.51100000000E-03 0. -1.
    9900012    2    1    2    0    0  0.11355404378E+02  0.14458037890E+02  0.36265493231E+02  0.50528855057E+02  0.29999985432E+02 0.  0.
         12    1    1    2    0    0 -0.11355404378E+02 -0.14458037890E+02 -0.36265493231E+02  0.40659144943E+02  0.00000000000E+00 0. -1.
         11    1    3    3    0    0 -0.10599204168E+01  0.97834974279E+01  0.27258249542E+01  0.10211286655E+02  0.51100000000E-03 0. -1.
        -11    1    3    3    0    0  0.10011190071E+02  0.10306379015E+02  0.29953208872E+02  0.33221079107E+02  0.51100000000E-03 0.  1.
         12    1    3    3    0    0  0.24041347231E+01 -0.56318385527E+01  0.35864594045E+01  0.70964892948E+01  0.00000000000E+00 0. -1.
</event>
<event>
 7    1  0.6245487E-013  0.5052886E+02  0.7816164E-02  0.1300439E+00
        -11   -1    0    0    0    0  0.00000000000E+00  0.00000000000E+00  0.45593999997E+02  0.45594000000E+02  0.51100000000E-03 0. -1.
         11   -1    0    0    0    0 -0.00000000000E+00 -0.00000000000E+00 -0.45593999997E+02  0.45594000000E+02  0.51100000000E-03 0.  1.
    9900012    2    1    2    0    0 -0.20347433099E+02 -0.52744238936E+01 -0.34804136826E+02  0.50528861774E+02  0.30000005848E+02 0.  0.
         12    1    1    2    0    0  0.20347433099E+02  0.52744238936E+01  0.34804136826E+02  0.40659138226E+02  0.00000000000E+00 0. -1.
         11    1    3    3    0    0  0.45916554697E+01 -0.11634186160E+01 -0.29184990071E+01  0.55636750034E+01  0.51100000000E-03 0. -1.
        -11    1    3    3    0    0 -0.12047433095E+02  0.55860292514E+01 -0.62509237100E+01  0.14677139178E+02  0.51100000000E-03 0.  1.
        -12    1    3    3    0    0 -0.12891655474E+02 -0.96970345290E+01 -0.25634714109E+02  0.30288047592E+02  0.00000000000E+00 0.  1.
</event>
<event>
 7    1  0.6245487E-013  0.5052882E+02  0.7816164E-02  0.1300439E+00
        -11   -1    0    0    0    0  0.00000000000E+00  0.00000000000E+00  0.45593999997E+02  0.45594000000E+02  0.51100000000E-03 0. -1.
         11   -1    0    0    0    0 -0.00000000000E+00 -0.00000000000E+00 -0.45593999997E+02  0.45594000000E+02  0.51100000000E-03 0.  1.
    9900012    2    1    2    0    0 -0.22527287884E+02  0.32077283680E+02 -0.10804538606E+02  0.50528820444E+02  0.29999880222E+02 0.  0.
         12    1    1    2    0    0  0.22527287884E+02 -0.32077283680E+02  0.10804538606E+02  0.40659179556E+02  0.00000000000E+00 0. -1.
         11    1    3    3    0    0 -0.27870884177E+01  0.30118297822E+01  0.55909325371E+01  0.69352366493E+01  0.51100000000E-03 0. -1.
        -11    1    3    3    0    0 -0.22138792946E+01 -0.21002761112E+01 -0.53700347470E+01  0.61765439138E+01  0.51100000000E-03 0.  1.
         12    1    3    3    0    0 -0.17526320172E+02  0.31165730009E+02 -0.11025436397E+02  0.37417039881E+02  0.00000000000E+00 0. -1.
</event>
<event>
 7    1  0.6245487E-013  0.5052886E+02  0.7816164E-02  0.1300439E+00
        -11   -1    0    0    0    0  0.00000000000E+00  0.00000000000E+00  0.45593999997E+02  0.45594000000E+02  0.51100000000E-03 0. -1.
         11   -1    0    0    0    0 -0.00000000000E+00 -0.00000000000E+00 -0.45593999997E+02  0.45594000000E+02  0.51100000000E-03 0.  1.
    9900012    2    1    2    0    0  0.40080799638E+02 -0.54759371339E+01 -0.40876963240E+01  0.50528860212E+02  0.30000001099E+02 0.  0.
         12    1    1    2    0    0 -0.40080799638E+02  0.54759371339E+01  0.40876963240E+01  0.40659139788E+02  0.00000000000E+00 0. -1.
         11    1    3    3    0    0  0.15357118718E+02 -0.10389386702E+02  0.12435516487E+01  0.18582972645E+02  0.51100000000E-03 0. -1.
        -11    1    3    3    0    0  0.19271361651E+02 -0.38734872223E+01 -0.80690828947E+01  0.21248514822E+02  0.51100000000E-03 0.  1.
        -12    1    3    3    0    0  0.54523192685E+01  0.87869367901E+01  0.27378349220E+01  0.10697372744E+02  0.00000000000E+00 0.  1.
</event>
<event>
 7    1  0.6245487E-013  0.5052886E+02  0.7816164E-02  0.1300439E+00
        -11   -1    0    0    0    0  0.00000000000E+00  0.00000000000E+00  0.45593999997E+02  0.45594000000E+02  0.51100000000E-03 0.  1.
         11   -1    0    0    0    0 -0.00000000000E+00 -0.00000000000E+00 -0.45593999997E+02  0.45594000000E+02  0.51100000000E-03 0. -1.
    9900012    2    1    2    0    0 -0.22004693654E+02 -0.20589223194E+02  0.27295474533E+02  0.50528860997E+02  0.30000003485E+02 0.  0.
         12    1    1    2    0    0  0.22004693654E+02  0.20589223194E+02 -0.27295474533E+02  0.40659139003E+02  0.00000000000E+00 0. -1.
         11    1    3    3    0    0 -0.17574491645E+02 -0.98724365769E+00  0.77160919375E+01  0.19219143625E+02  0.51100000000E-03 0. -1.
        -11    1    3    3    0    0 -0.88509603911E+01 -0.10364397402E+02  0.14422849388E+02  0.19843860968E+02  0.51100000000E-03 0.  1.
        -12    1    3    3    0    0  0.44207583828E+01 -0.92375821341E+01  0.51565332069E+01  0.11465856404E+02  0.00000000000E+00 0.  1.
</event>
<event>
 7    1  0.6245487E-013  0.5052886E+02  0.7816164E-02  0.1300439E+00
        -11   -1    0    0    0    0  0.00000000000E+00  0.00000000000E+00  0.45593999997E+02  0.45594000000E+02  0.51100000000E-03 0.  1.
         11   -1    0    0    0    0 -0.00000000000E+00 -0.00000000000E+00 -0.45593999997E+02  0.45594000000E+02  0.51100000000E-03 0. -1.
    9900012    2    1    2    0    0 -0.13435953115E+02 -0.12300920523E+02  0.36350078121E+02  0.50528860053E+02  0.30000000617E+02 0.  0.
         12    1    1    2    0    0  0.13435953115E+02  0.12300920523E+02 -0.36350078121E+02  0.40659139947E+02  0.00000000000E+00 0. -1.
         11    1    3    3    0    0  0.84018013303E+00  0.44204068616E+00 -0.81122559957E+00  0.12487553238E+01  0.51100000000E-03 0. -1.
        -11    1    3    3    0    0  0.20031991463E+01 -0.77926745135E+01  0.29575423340E+02  0.30650354792E+02  0.51100000000E-03 0.  1.
         12    1    3    3    0    0 -0.16279332394E+02 -0.49502866956E+01  0.75858803815E+01  0.18629749937E+02  0.00000000000E+00 0. -1.
</event>
<event>
 7    1  0.6245487E-013  0.5052886E+02  0.7816164E-02  0.1300439E+00
        -11   -1    0    0    0    0  0.00000000000E+00  0.00000000000E+00  0.45593999997E+02  0.45594000000E+02  0.51100000000E-03 0.  1.
         11   -1    0    0    0    0 -0.00000000000E+00 -0.00000000000E+00 -0.45593999997E+02  0.45594000000E+02  0.51100000000E-03 0. -1.
    9900012    2    1    2    0    0  0.21177314944E+02 -0.27848527794E+02  0.20715853351E+02  0.50528858979E+02  0.29999997353E+02 0.  0.
         12    1    1    2    0    0 -0.21177314944E+02  0.27848527794E+02 -0.20715853351E+02  0.40659141021E+02  0.00000000000E+00 0. -1.
         11    1    3    3    0    0 -0.29777415371E+00 -0.23719881828E+01 -0.37770064094E+01  0.44699860250E+01  0.51100000000E-03 0. -1.
        -11    1    3    3    0    0  0.12357662707E+02 -0.26340302307E+02  0.14513449661E+02  0.32514051955E+02  0.51100000000E-03 0.  1.
         12    1    3    3    0    0  0.91174263907E+01  0.86376269608E+00  0.99794100991E+01  0.13544821000E+02  0.00000000000E+00 0. -1.
</event>
<event>
 7    1  0.6245487E-013  0.5052886E+02  0.7816164E-02  0.1300439E+00
        -11   -1    0    0    0    0  0.00000000000E+00  0.00000000000E+00  0.45593999997E+02  0.45594000000E+02  0.51100000000E-03 0.  1.
         11   -1    0    0    0    0 -0.00000000000E+00 -0.00000000000E+00 -0.45593999997E+02  0.45594000000E+02  0.51100000000E-03 0. -1.
    9900012    2    1    2    0    0 -0.23010284429E+02  0.19700362562E+01  0.33463579501E+02  0.50528863445E+02  0.30000010928E+02 0.  0.
         12    1    1    2    0    0  0.23010284429E+02 -0.19700362562E+01 -0.33463579501E+02  0.40659136555E+02  0.00000000000E+00 0. -1.
         11    1    3    3    0    0  0.18893977639E+01 -0.11105576667E+01  0.22271970050E+02  0.22379540040E+02  0.51100000000E-03 0.  1.
        -11    1    3    3    0    0 -0.61073614285E+01  0.11209729287E+01  0.39751170576E-01  0.62095107973E+01  0.51100000000E-03 0. -1.
        -12    1    3    3    0    0 -0.18792320764E+02  0.19596209942E+01  0.11151858281E+02  0.21939812607E+02  0.00000000000E+00 0.  1.
</event>
<event>
 7    1  0.6245487E-013  0.5052887E+02  0.7816164E-02  0.1300439E+00
        -11   -1    0    0    0    0  0.00000000000E+00  0.00000000000E+00  0.45593999997E+02  0.45594000000E+02  0.51100000000E-03 0.  1.
         11   -1    0    0    0    0 -0.00000000000E+00 -0.00000000000E+00 -0.45593999997E+02  0.45594000000E+02  0.51100000000E-03 0. -1.
    9900012    2    1    2    0    0  0.26559579411E+02  0.59653760980E+00  0.30779825663E+02  0.50528870847E+02  0.30000033427E+02 0.  0.
         12    1    1    2    0    0 -0.26559579411E+02 -0.59653760980E+00 -0.30779825663E+02  0.40659129153E+02  0.00000000000E+00 0. -1.
         11    1    3    3    0    0  0.27622167504E+02  0.22833609197E+01  0.14282411145E+02  0.31179883629E+02  0.51100000000E-03 0. -1.
        -11    1    3    3    0    0  0.26348460660E+01  0.30870938953E+01  0.61480766807E+01  0.73669131692E+01  0.51100000000E-03 0.  1.
         12    1    3    3    0    0 -0.36974341597E+01 -0.47739172052E+01  0.10349337837E+02  0.11982074049E+02  0.00000000000E+00 0. -1.
</event>
<event>
 7    1  0.6245487E-013  0.5052885E+02  0.7816164E-02  0.1300439E+00
        -11   -1    0    0    0    0  0.00000000000E+00  0.00000000000E+00  0.45593999997E+02  0.45594000000E+02  0.51100000000E-03 0.  1.
         11   -1    0    0    0    0 -0.00000000000E+00 -0.00000000000E+00 -0.45593999997E+02  0.45594000000E+02  0.51100000000E-03 0. -1.
    9900012    2    1    2    0    0  0.12766160733E+02 -0.23856001686E+02  0.30349345605E+02  0.50528850292E+02  0.29999970949E+02 0.  0.
         12    1    1    2    0    0 -0.12766160733E+02  0.23856001686E+02 -0.30349345605E+02  0.40659149708E+02  0.00000000000E+00 0. -1.
         11    1    3    3    0    0 -0.27691423416E+01  0.24031603606E+01 -0.63754453320E+00  0.37215309108E+01  0.51100000000E-03 0. -1.
        -11    1    3    3    0    0  0.33881527175E+01 -0.21397465611E+02  0.22370073884E+02  0.31140830420E+02  0.51100000000E-03 0.  1.
        -12    1    3    3    0    0  0.12147150357E+02 -0.48616964356E+01  0.86168162544E+01  0.15666488962E+02  0.00000000000E+00 0.  1.
</event>
<event>
 7    1  0.6245487E-013  0.5052886E+02  0.7816164E-02  0.1300439E+00
        -11   -1    0    0    0    0  0.00000000000E+00  0.00000000000E+00  0.45593999997E+02  0.45594000000E+02  0.51100000000E-03 0.  1.
         11   -1    0    0    0    0 -0.00000000000E+00 -0.00000000000E+00 -0.45593999997E+02  0.45594000000E+02  0.51100000000E-03 0. -1.
    9900012    2    1    2    0    0 -0.45728475324E+01 -0.28514626769E+02 -0.28621156530E+02  0.50528862338E+02  0.30000007561E+02 0.  0.
         12    1    1    2    0    0  0.45728475324E+01  0.28514626769E+02  0.28621156530E+02  0.40659137662E+02  0.00000000000E+00 0. -1.
         11    1    3    3    0    0 -0.76284154800E+01 -0.80452452213E+01 -0.17510855555E+02  0.20725558037E+02  0.51100000000E-03 0. -1.
        -11    1    3    3    0    0  0.86923285778E+01 -0.10205505071E+02 -0.12090655957E+02  0.18052503195E+02  0.51100000000E-03 0.  1.
         12    1    3    3    0    0 -0.56367606302E+01 -0.10263876477E+02  0.98035498273E+00  0.11750801106E+02  0.00000000000E+00 0. -1.
</event>
<event>
 7    1  0.6245487E-013  0.5052897E+02  0.7816164E-02  0.1300438E+00
        -11   -1    0    0    0    0  0.00000000000E+00  0.00000000000E+00  0.45593999997E+02  0.45594000000E+02  0.51100000000E-03 0.  1.
         11   -1    0    0    0    0 -0.00000000000E+00 -0.00000000000E+00 -0.45593999997E+02  0.45594000000E+02  0.51100000000E-03 0. -1.
    9900012    2    1    2    0    0 -0.16210724326E+02  0.36204434860E+02  0.89223488583E+01  0.50528966614E+02  0.30000324520E+02 0.  0.
         12    1    1    2    0    0  0.16210724326E+02 -0.36204434860E+02 -0.89223488583E+01  0.40659033386E+02  0.00000000000E+00 0. -1.
         11    1    3    3    0    0 -0.66229390949E+01  0.10712576776E+02  0.65394369180E+01  0.14191083782E+02  0.51100000000E-03 0. -1.
        -11    1    3    3    0    0 -0.75672822834E+01  0.25129426384E+02 -0.66509517268E+01  0.27073732486E+02  0.51100000000E-03 0.  1.
         12    1    3    3    0    0 -0.20205029480E+01  0.36243169959E+00  0.90338636672E+01  0.92641503473E+01  0.00000000000E+00 0. -1.
</event>
<event>
 7    1  0.6245487E-013  0.5052885E+02  0.7816164E-02  0.1300439E+00
        -11   -1    0    0    0    0  0.00000000000E+00  0.00000000000E+00  0.45593999997E+02  0.45594000000E+02  0.51100000000E-03 0.  1.
         11   -1    0    0    0    0 -0.00000000000E+00 -0.00000000000E+00 -0.45593999997E+02  0.45594000000E+02  0.51100000000E-03 0. -1.
    9900012    2    1    2    0    0 -0.17237266135E+01 -0.11671220282E+02  0.38909864705E+02  0.50528853579E+02  0.29999980940E+02 0.  0.
         12    1    1    2    0    0  0.17237266135E+01  0.11671220282E+02 -0.38909864705E+02  0.40659146421E+02  0.00000000000E+00 0. -1.
         11    1    3    3    0    0  0.41189979363E+01 -0.11441098167E+01  0.14779418193E+02  0.15385263523E+02  0.51100000000E-03 0. -1.
        -11    1    3    3    0    0  0.83240429600E+00 -0.16484573384E+02  0.17084114362E+02  0.23755020950E+02  0.51100000000E-03 0.  1.
         12    1    3    3    0    0 -0.66751288458E+01  0.59574629183E+01  0.70463321494E+01  0.11388569106E+02  0.00000000000E+00 0. -1.
</event>
<event>
 7    1  0.6245487E-013  0.5052891E+02  0.7816164E-02  0.1300439E+00
        -11   -1    0    0    0    0  0.00000000000E+00  0.00000000000E+00  0.45593999997E+02  0.45594000000E+02  0.51100000000E-03 0.  1.
         11   -1    0    0    0    0 -0.00000000000E+00 -0.00000000000E+00 -0.45593999997E+02  0.45594000000E+02  0.51100000000E-03 0. -1.
    9900012    2    1    2    0    0  0.56809597061E+01 -0.38185960844E+02  0.12756187580E+02  0.50528914542E+02  0.30000166241E+02 0.  0.
         12    1    1    2    0    0 -0.56809597061E+01  0.38185960844E+02 -0.12756187580E+02  0.40659085458E+02  0.00000000000E+00 0. -1.
         11    1    3    3    0    0  0.40308154441E+01 -0.64718101534E+01 -0.31065483104E+01  0.82330093205E+01  0.51100000000E-03 0. -1.
        -11    1    3    3    0    0  0.87311477631E+01 -0.11831756230E+02 -0.17478301039E+01  0.14808048727E+02  0.51100000000E-03 0.  1.
         12    1    3    3    0    0 -0.70810035011E+01 -0.19882394460E+02  0.17610565994E+02  0.27487856495E+02  0.00000000000E+00 0. -1.
</event>
<event>
 7    1  0.6245487E-013  0.5052886E+02  0.7816164E-02  0.1300439E+00
        -11   -1    0    0    0    0  0.00000000000E+00  0.00000000000E+00  0.45593999997E+02  0.45594000000E+02  0.51100000000E-03 0.  1.
         11   -1    0    0    0    0 -0.00000000000E+00 -0.00000000000E+00 -0.45593999997E+02  0.45594000000E+02  0.51100000000E-03 0. -1.
    9900012    2    1    2    0    0 -0.36149828491E+02 -0.57881252142E+01  0.17687649718E+02  0.50528862700E+02  0.30000008664E+02 0.  0.
         12    1    1    2    0    0  0.36149828491E+02  0.57881252142E+01 -0.17687649718E+02  0.40659137300E+02  0.00000000000E+00 0. -1.
         11    1    3    3    0    0 -0.11338340642E+00 -0.16419029665E+01 -0.61448612110E+01  0.63614480043E+01  0.51100000000E-03 0. -1.
        -11    1    3    3    0    0 -0.86651496533E+01 -0.14786104348E+00  0.19160624962E+01  0.88756958687E+01  0.51100000000E-03 0.  1.
         12    1    3    3    0    0 -0.27371295431E+02 -0.39983612043E+01  0.21916448433E+02  0.35291718827E+02  0.00000000000E+00 0. -1.
</event>
<event>
 7    1  0.6245487E-013  0.5052887E+02  0.7816164E-02  0.1300439E+00
        -11   -1    0    0    0    0  0.00000000000E+00  0.00000000000E+00  0.45593999997E+02  0.45594000000E+02  0.51100000000E-03 0. -1.
         11   -1    0    0    0    0 -0.00000000000E+00 -0.00000000000E+00 -0.45593999997E+02  0.45594000000E+02  0.51100000000E-03 0.  1.
    9900012    2    1    2    0    0  0.14092185017E+01 -0.40629185788E+02 -0.66971380046E+00  0.50528866326E+02  0.30000019684E+02 0.  0.
         12    1    1    2    0    0 -0.14092185017E+01  0.40629185788E+02  0.66971380046E+00  0.40659133674E+02  0.00000000000E+00 0. -1.
         11    1    3    3    0    0  0.27960223546E+00 -0.23401718575E+02  0.39809507823E+01  0.23739557264E+02  0.51100000000E-03 0. -1.
        -11    1    3    3    0    0  0.97945469445E+01 -0.13609519739E+02 -0.12939585048E+01  0.16817446484E+02  0.51100000000E-03 0.  1.
         12    1    3    3    0    0 -0.86649306782E+01 -0.36179474734E+01 -0.33567060779E+01  0.99718625779E+01  0.00000000000E+00 0. -1.
</event>
<event>
 7    1  0.6245487E-013  0.5052885E+02  0.7816164E-02  0.1300439E+00
        -11   -1    0    0    0    0  0.00000000000E+00  0.00000000000E+00  0.45593999997E+02  0.45594000000E+02  0.51100000000E-03 0. -1.
         11   -1    0    0    0    0 -0.00000000000E+00 -0.00000000000E+00 -0.45593999997E+02  0.45594000000E+02  0.51100000000E-03 0.  1.
    9900012    2    1    2    0    0 -0.21263628378E+02  0.21801960303E+02 -0.26938795901E+02  0.50528854787E+02  0.29999984610E+02 0.  0.
         12    1    1    2    0    0  0.21263628378E+02 -0.21801960303E+02  0.26938795901E+02  0.40659145213E+02  0.00000000000E+00 0. -1.
         11    1    3    3    0    0 -0.51201029930E+01  0.84540695956E+01 -0.48326281792E+01  0.11001865422E+02  0.51100000000E-03 0.  1.
        -11    1    3    3    0    0 -0.15520161281E+02  0.82258149089E+01 -0.27133562930E+02  0.32322897064E+02  0.51100000000E-03 0. -1.
         12    1    3    3    0    0 -0.62336410384E+00  0.51220757989E+01  0.50273952079E+01  0.72040923004E+01  0.00000000000E+00 0. -1.
</event>
<event>
 7    1  0.6245487E-013  0.5052886E+02  0.7816164E-02  0.1300439E+00
        -11   -1    0    0    0    0  0.00000000000E+00  0.00000000000E+00  0.45593999997E+02  0.45594000000E+02  0.51100000000E-03 0.  1.
         11   -1    0    0    0    0 -0.00000000000E+00 -0.00000000000E+00 -0.45593999997E+02  0.45594000000E+02  0.51100000000E-03 0. -1.
    9900012    2    1    2    0    0  0.25491225353E+02  0.10261531950E+02  0.29967713142E+02  0.50528862787E+02  0.30000008927E+02 0.  0.
         12    1    1    2    0    0 -0.25491225353E+02 -0.10261531950E+02 -0.29967713142E+02  0.40659137213E+02  0.00000000000E+00 0. -1.
         11    1    3    3    0    0  0.19512752953E+01 -0.25911712260E+01 -0.99934396435E+00  0.33941614901E+01  0.51100000000E-03 0. -1.
        -11    1    3    3    0    0  0.27744960794E+02  0.11986585626E+02  0.22628945364E+02  0.37756194895E+02  0.51100000000E-03 0.  1.
        -12    1    3    3    0    0 -0.42050107360E+01  0.86611755040E+00  0.83381117427E+01  0.93785064021E+01  0.00000000000E+00 0.  1.
</event>
<event>
 7    1  0.6420710E-013  0.5052899E+02  0.7816164E-02  0.1300438E+00
        -11   -1    0    0    0    0  0.00000000000E+00  0.00000000000E+00  0.45593999997E+02  0.45594000000E+02  0.51100000000E-03 0. -1.
         11   -1    0    0    0    0 -0.00000000000E+00 -0.00000000000E+00 -0.45593999997E+02  0.45594000000E+02  0.51100000000E-03 0.  1.
    9900012    2    1    2    0    0  0.17317213437E+02 -0.35529536836E+02 -0.95352762868E+01  0.50528986696E+02  0.30000385558E+02 0.  0.
         12    1    1    2    0    0 -0.17317213437E+02  0.35529536836E+02  0.95352762868E+01  0.40659013304E+02  0.00000000000E+00 0. -1.
         11    1    3    3    0    0  0.10723337216E+02 -0.13991185595E+02  0.58084421600E+01  0.18560205709E+02  0.51100000000E-03 0. -1.
        -11    1    3    3    0    0  0.11043782540E+02 -0.17938374140E+02 -0.77197608501E+01  0.22435353963E+02  0.51100000000E-03 0.  1.
        -12    1    3    3    0    0 -0.44499063189E+01 -0.35999771013E+01 -0.76239575967E+01  0.95334270236E+01  0.00000000000E+00 0.  1.
</event>
<event>
 7    1  0.7371812E-013  0.5052887E+02  0.7816164E-02  0.1300439E+00
        -11   -1    0    0    0    0  0.00000000000E+00  0.00000000000E+00  0.45593999997E+02  0.45594000000E+02  0.51100000000E-03 0. -1.
         11   -1    0    0    0    0 -0.00000000000E+00 -0.00000000000E+00 -0.45593999997E+02  0.45594000000E+02  0.51100000000E-03 0.  1.
    9900012    2    1    2    0    0  0.23944700423E+02  0.24419076204E+02 -0.21989207155E+02  0.50528865820E+02  0.30000018145E+02 0.  0.
         12    1    1    2    0    0 -0.23944700423E+02 -0.24419076204E+02  0.21989207155E+02  0.40659134180E+02  0.00000000000E+00 0. -1.
         11    1    3    3    0    0 -0.22560205942E+01 -0.13515236660E+01  0.67550235066E+00  0.27152437880E+01  0.51100000000E-03 0. -1.
        -11    1    3    3    0    0  0.12057889730E+02 -0.44966618121E+00 -0.42625869521E+01  0.12797052481E+02  0.51100000000E-03 0.  1.
        -12    1    3    3    0    0  0.14142831287E+02  0.26220266051E+02 -0.18402122554E+02  0.35016569551E+02  0.00000000000E+00 0.  1.
</event>
<event>
 7    1  0.6245487E-013  0.5052886E+02  0.7816164E-02  0.1300439E+00
        -11   -1    0    0    0    0  0.00000000000E+00  0.00000000000E+00  0.45593999997E+02  0.45594000000E+02  0.51100000000E-03 0. -1.
         11   -1    0    0    0    0 -0.00000000000E+00 -0.00000000000E+00 -0.45593999997E+02  0.45594000000E+02  0.51100000000E-03 0.  1.
    9900012    2    1    2    0    0 -0.25420546220E+02  0.15249710939E+02 -0.27828181848E+02  0.50528861312E+02  0.30000004444E+02 0.  0.
         12    1    1    2    0    0  0.25420546220E+02 -0.15249710939E+02  0.27828181848E+02  0.40659138688E+02  0.00000000000E+00 0. -1.
         11    1    3    3    0    0 -0.32388473701E+01 -0.31675063677E+01 -0.17164796082E+01  0.48445362402E+01  0.51100000000E-03 0. -1.
        -11    1    3    3    0    0 -0.50426088293E+00  0.11489208602E+02 -0.18318695779E+02  0.21629396862E+02  0.51100000000E-03 0.  1.
         12    1    3    3    0    0 -0.21677437967E+02  0.69280087049E+01 -0.77930064616E+01  0.24054928209E+02  0.00000000000E+00 0. -1.
</event>
<event>
 7    1  0.6245487E-013  0.5052887E+02  0.7816164E-02  0.1300439E+00
        -11   -1    0    0    0    0  0.00000000000E+00  0.00000000000E+00  0.45593999997E+02  0.45594000000E+02  0.51100000000E-03 0.  1.
         11   -1    0    0    0    0 -0.00000000000E+00 -0.00000000000E+00 -0.45593999997E+02  0.45594000000E+02  0.51100000000E-03 0. -1.
    9900012    2    1    2    0    0 -0.13125041701E+02 -0.37136903083E+02  0.10087066920E+02  0.50528865611E+02  0.30000017510E+02 0.  0.
         12    1    1    2    0    0  0.13125041701E+02  0.37136903083E+02 -0.10087066920E+02  0.40659134389E+02  0.00000000000E+00 0. -1.
         11    1    3    3    0    0 -0.23680498522E+01 -0.45178777850E+00  0.42025895037E-01  0.24111281045E+01  0.51100000000E-03 0. -1.
        -11    1    3    3    0    0  0.65508160076E+01 -0.24022099196E+02  0.95457004707E+01  0.26666361542E+02  0.51100000000E-03 0.  1.
        -12    1    3    3    0    0 -0.17307807857E+02 -0.12663016108E+02  0.49934055462E+00  0.21451375964E+02  0.00000000000E+00 0.  1.
</event>
<event>
 7    1  0.6245487E-013  0.5052886E+02  0.7816164E-02  0.1300439E+00
        -11   -1    0    0    0    0  0.00000000000E+00  0.00000000000E+00  0.45593999997E+02  0.45594000000E+02  0.51100000000E-03 0.  1.
         11   -1    0    0    0    0 -0.00000000000E+00 -0.00000000000E+00 -0.45593999997E+02  0.45594000000E+02  0.51100000000E-03 0. -1.
    9900012    2    1    2    0    0 -0.57813728846E+01  0.30793235798E+00  0.40244834126E+02  0.50528858733E+02  0.29999996604E+02 0.  0.
         12    1    1    2    0    0  0.57813728846E+01 -0.30793235798E+00 -0.40244834126E+02  0.40659141267E+02  0.00000000000E+00 0. -1.
         11    1    3    3    0    0  0.28909583056E+01  0.75843204268E+01  0.16464431946E+02  0.18356390599E+02  0.51100000000E-03 0. -1.
        -11    1    3    3    0    0  0.11806477584E+01 -0.10829082629E+02  0.14793626292E+02  0.18371563321E+02  0.51100000000E-03 0.  1.
         12    1    3    3    0    0 -0.98529789486E+01  0.35526945600E+01  0.89867758872E+01  0.13800904813E+02  0.00000000000E+00 0. -1.
</event>
<event>
 7    1  0.6245487E-013  0.5052886E+02  0.7816164E-02  0.1300439E+00
        -11   -1    0    0    0    0  0.00000000000E+00  0.00000000000E+00  0.45593999997E+02  0.45594000000E+02  0.51100000000E-03 0. -1.
         11   -1    0    0    0    0 -0.00000000000E+00 -0.00000000000E+00 -0.45593999997E+02  0.45594000000E+02  0.51100000000E-03 0.  1.
    9900012    2    1    2    0    0  0.27051083494E+02 -0.15797988639E+02 -0.25919646355E+02  0.50528860432E+02  0.30000001768E+02 0.  0.
         12    1    1    2    0    0 -0.27051083494E+02  0.15797988639E+02  0.25919646355E+02  0.40659139568E+02  0.00000000000E+00 0. -1.
         11    1    3    3    0    0 -0.59355294315E+01 -0.16740657529E+01 -0.42493274439E+01  0.74893117016E+01  0.51100000000E-03 0. -1.
        -11    1    3    3    0    0  0.47926124716E+01 -0.26212064965E+01 -0.79383297447E+01  0.96362304454E+01  0.51100000000E-03 0.  1.
         12    1    3    3    0    0  0.28194000454E+02 -0.11502716390E+02 -0.13731989167E+02  0.33403318285E+02  0.00000000000E+00 0. -1.
</event>
<event>
 7    1  0.6245487E-013  0.5052887E+02  0.7816164E-02  0.1300439E+00
        -11   -1    0    0    0    0  0.00000000000E+00  0.00000000000E+00  0.45593999997E+02  0.45594000000E+02  0.51100000000E-03 0. -1.
         11   -1    0    0    0    0 -0.00000000000E+00 -0.00000000000E+00 -0.45593999997E+02  0.45594000000E+02  0.51100000000E-03 0.  1.
    9900012    2    1    2    0    0 -0.16373446658E+02  0.26313589953E+02 -0.26318618996E+02  0.50528874610E+02  0.30000044864E+02 0.  0.
         12    1    1    2    0    0  0.16373446658E+02 -0.26313589953E+02  0.26318618996E+02  0.40659125390E+02  0.00000000000E+00 0. -1.
         11    1    3    3    0    0 -0.12840863090E+02  0.10123450974E+02 -0.15752491258E+01  0.16427216276E+02  0.51100000000E-03 0. -1.
        -11    1    3    3    0    0 -0.62144390394E+01  0.38020262968E+01 -0.12282913091E+01  0.73880549766E+01  0.51100000000E-03 0.  1.
        -12    1    3    3    0    0  0.26818554711E+01  0.12388112682E+02 -0.23515078561E+02  0.26713603357E+02  0.00000000000E+00 0.  1.
</event>
<event>
 7    1  0.6245487E-013  0.5052874E+02  0.7816164E-02  0.1300439E+00
        -11   -1    0    0    0    0  0.00000000000E+00  0.00000000000E+00  0.45593999997E+02  0.45594000000E+02  0.51100000000E-03 0. -1.
         11   -1    0    0    0    0 -0.00000000000E+00 -0.00000000000E+00 -0.45593999997E+02  0.45594000000E+02  0.51100000000E-03 0.  1.
    9900012    2    1    2    0    0 -0.16448912111E+01  0.32713308433E+02  0.24089611958E+02  0.50528737587E+02  0.29999628366E+02 0.  0.
         12    1    1    2    0    0  0.16448912111E+01 -0.32713308433E+02 -0.24089611958E+02  0.40659262413E+02  0.00000000000E+00 0. -1.
         11    1    3    3    0    0  0.77384129483E+01  0.82231259385E+01  0.12599200255E+02  0.16918708062E+02  0.51100000000E-03 0. -1.
        -11    1    3    3    0    0 -0.26092940130E+01  0.21505113193E+02  0.14000757352E+02  0.25793400617E+02  0.51100000000E-03 0.  1.
         12    1    3    3    0    0 -0.67740101464E+01  0.29850693015E+01 -0.25103456494E+01  0.78166289076E+01  0.00000000000E+00 0. -1.
</event>
<event>
 7    1  0.6245487E-013  0.5052888E+02  0.7816164E-02  0.1300439E+00
        -11   -1    0    0    0    0  0.00000000000E+00  0.00000000000E+00  0.45593999997E+02  0.45594000000E+02  0.51100000000E-03 0.  1.
         11   -1    0    0    0    0 -0.00000000000E+00 -0.00000000000E+00 -0.45593999997E+02  0.45594000000E+02  0.51100000000E-03 0. -1.
    9900012    2    1    2    0    0  0.36512512434E+02  0.17504759766E+02 -0.36856658292E+01  0.50528876653E+02  0.30000051074E+02 0.  0.
         12    1    1    2    0    0 -0.36512512434E+02 -0.17504759766E+02  0.36856658292E+01  0.40659123347E+02  0.00000000000E+00 0. -1.
         11    1    3    3    0    0  0.24809496428E+02  0.69877967339E+00  0.54477939044E+01  0.25410192143E+02  0.51100000000E-03 0. -1.
        -11    1    3    3    0    0  0.11433834294E+02  0.79300028860E+01 -0.82940613656E+01  0.16199042152E+02  0.51100000000E-03 0.  1.
        -12    1    3    3    0    0  0.26918171141E+00  0.88759772069E+01 -0.83939836795E+00  0.89196423578E+01  0.00000000000E+00 0.  1.
</event>
<event>
 7    1  0.6245487E-013  0.5052887E+02  0.7816164E-02  0.1300439E+00
        -11   -1    0    0    0    0  0.00000000000E+00  0.00000000000E+00  0.45593999997E+02  0.45594000000E+02  0.51100000000E-03 0.  1.
         11   -1    0    0    0    0 -0.00000000000E+00 -0.00000000000E+00 -0.45593999997E+02  0.45594000000E+02  0.51100000000E-03 0. -1.
    9900012    2    1    2    0    0  0.16665067031E+02 -0.25002239677E+00  0.37086089073E+02  0.50528868516E+02  0.30000026340E+02 0.  0.
         12    1    1    2    0    0 -0.16665067031E+02  0.25002239677E+00 -0.37086089073E+02  0.40659131484E+02  0.00000000000E+00 0. -1.
         11    1    3    3    0    0  0.49098317651E+01  0.11823579682E+01  0.13372135030E+02  0.14293999225E+02  0.51100000000E-03 0.  1.
        -11    1    3    3    0    0  0.31512801455E+01 -0.32147001344E+01 -0.46912334073E+01  0.65017332037E+01  0.51100000000E-03 0. -1.
         12    1    3    3    0    0  0.86039551200E+01  0.17823197694E+01  0.28405187450E+02  0.29733136087E+02  0.00000000000E+00 0. -1.
</event>
<event>
 7    1  0.6245487E-013  0.5052886E+02  0.7816164E-02  0.1300439E+00
        -11   -1    0    0    0    0  0.00000000000E+00  0.00000000000E+00  0.45593999997E+02  0.45594000000E+02  0.51100000000E-03 0.  1.
         11   -1    0    0    0    0 -0.00000000000E+00 -0.00000000000E+00 -0.45593999997E+02  0.45594000000E+02  0.51100000000E-03 0. -1.
    9900012    2    1    2    0    0  0.18249135724E+02  0.17829615125E+02  0.31658172125E+02  0.50528855979E+02  0.29999988234E+02 0.  0.
         12    1    1    2    0    0 -0.18249135724E+02 -0.17829615125E+02 -0.31658172125E+02  0.40659144021E+02  0.00000000000E+00 0. -1.
         11    1    3    3    0    0  0.69147121623E+01  0.10216944149E+00 -0.15642029538E+01  0.70901631875E+01  0.51100000000E-03 0. -1.
        -11    1    3    3    0    0  0.15599068445E+02  0.17810516590E+02  0.28994271364E+02  0.37432782554E+02  0.51100000000E-03 0.  1.
         12    1    3    3    0    0 -0.42646448831E+01 -0.83070906608E-01  0.42281037157E+01  0.60059102379E+01  0.00000000000E+00 0. -1.
</event>
<event>
 7    1  0.6245487E-013  0.5052886E+02  0.7816164E-02  0.1300439E+00
        -11   -1    0    0    0    0  0.00000000000E+00  0.00000000000E+00  0.45593999997E+02  0.45594000000E+02  0.51100000000E-03 0.  1.
         11   -1    0    0    0    0 -0.00000000000E+00 -0.00000000000E+00 -0.45593999997E+02  0.45594000000E+02  0.51100000000E-03 0. -1.
    9900012    2    1    2    0    0  0.13018957778E+02  0.31674490755E+02 -0.21918006523E+02  0.50528860361E+02  0.30000001553E+02 0.  0.
         12    1    1    2    0    0 -0.13018957778E+02 -0.31674490755E+02  0.21918006523E+02  0.40659139639E+02  0.00000000000E+00 0. -1.
         11    1    3    3    0    0 -0.52580899989E+00  0.10948281919E+02 -0.10563957365E+02  0.15222961195E+02  0.51100000000E-03 0. -1.
        -11    1    3    3    0    0  0.17273409833E+02  0.91855325841E+01 -0.13962626009E+01  0.19613623980E+02  0.51100000000E-03 0.  1.
         12    1    3    3    0    0 -0.37286430550E+01  0.11540676252E+02 -0.99577865573E+01  0.15692275186E+02  0.00000000000E+00 0. -1.
</event>
<event>
 7    1  0.6245487E-013  0.5052894E+02  0.7816164E-02  0.1300439E+00
        -11   -1    0    0    0    0  0.00000000000E+00  0.00000000000E+00  0.45593999997E+02  0.45594000000E+02  0.51100000000E-03 0. -1.
         11   -1    0    0    0    0 -0.00000000000E+00 -0.00000000000E+00 -0.45593999997E+02  0.45594000000E+02  0.51100000000E-03 0.  1.
    9900012    2    1    2    0    0  0.25713701987E+02  0.17613405897E+02 -0.26110005583E+02  0.50528942846E+02  0.30000252273E+02 0.  0.
         12    1    1    2    0    0 -0.25713701987E+02 -0.17613405897E+02  0.26110005583E+02  0.40659057154E+02  0.00000000000E+00 0. -1.
         11    1    3    3    0    0  0.17631391516E+02  0.96338387483E+01 -0.76859129430E+01  0.21511626480E+02  0.51100000000E-03 0. -1.
        -11    1    3    3    0    0  0.13146931095E+02  0.89873988896E+01 -0.17688569574E+02  0.23801273702E+02  0.51100000000E-03 0.  1.
         12    1    3    3    0    0 -0.50646206240E+01 -0.10078317410E+01 -0.73552306558E+00  0.52160426631E+01  0.00000000000E+00 0. -1.
</event>
<event>
 7    1  0.6245487E-013  0.5052886E+02  0.7816164E-02  0.1300439E+00
        -11   -1    0    0    0    0  0.00000000000E+00  0.00000000000E+00  0.45593999997E+02  0.45594000000E+02  0.51100000000E-03 0.  1.
         11   -1    0    0    0    0 -0.00000000000E+00 -0.00000000000E+00 -0.45593999997E+02  0.45594000000E+02  0.51100000000E-03 0. -1.
    9900012    2    1    2    0    0  0.38215836391E+02 -0.11910233926E+02 -0.71317360566E+01  0.50528862252E+02  0.30000007300E+02 0.  0.
         12    1    1    2    0    0 -0.38215836391E+02  0.11910233926E+02  0.71317360566E+01  0.40659137748E+02  0.00000000000E+00 0. -1.
         11    1    3    3    0    0  0.10863023651E+02  0.19730892914E+01 -0.14830174362E+02  0.18488711044E+02  0.51100000000E-03 0. -1.
        -11    1    3    3    0    0  0.66792326751E+01 -0.31205003575E+01 -0.35457648612E+00  0.73807449729E+01  0.51100000000E-03 0.  1.
         12    1    3    3    0    0  0.20673580065E+02 -0.10762822860E+02  0.80530147913E+01  0.24659406235E+02  0.00000000000E+00 0. -1.
</event>
<event>
 7    1  0.6245487E-013  0.5052883E+02  0.7816164E-02  0.1300439E+00
        -11   -1    0    0    0    0  0.00000000000E+00  0.00000000000E+00  0.45593999997E+02  0.45594000000E+02  0.51100000000E-03 0.  1.
         11   -1    0    0    0    0 -0.00000000000E+00 -0.00000000000E+00 -0.45593999997E+02  0.45594000000E+02  0.51100000000E-03 0. -1.
    9900012    2    1    2    0    0 -0.19310495855E+02  0.16866930286E+02  0.31555970287E+02  0.50528833159E+02  0.29999918870E+02 0.  0.
         12    1    1    2    0    0  0.19310495855E+02 -0.16866930286E+02 -0.31555970287E+02  0.40659166841E+02  0.00000000000E+00 0. -1.
         11    1    3    3    0    0  0.14310009431E+00 -0.33113191668E+01  0.34205719324E+01  0.47629428789E+01  0.51100000000E-03 0.  1.
        -11    1    3    3    0    0 -0.14848031806E+02  0.11159671174E+01  0.56393190615E+01  0.15922039783E+02  0.51100000000E-03 0. -1.
        -12    1    3    3    0    0 -0.46055641426E+01  0.19062282336E+02  0.22496079293E+02  0.29843850497E+02  0.00000000000E+00 0.  1.
</event>
<event>
 7    1  0.6245487E-013  0.5052886E+02  0.7816164E-02  0.1300439E+00
        -11   -1    0    0    0    0  0.00000000000E+00  0.00000000000E+00  0.45593999997E+02  0.45594000000E+02  0.51100000000E-03 0.  1.
         11   -1    0    0    0    0 -0.00000000000E+00 -0.00000000000E+00 -0.45593999997E+02  0.45594000000E+02  0.51100000000E-03 0. -1.
    9900012    2    1    2    0    0  0.32774807129E+02  0.18062213839E+02  0.15897623554E+02  0.50528856062E+02  0.29999988485E+02 0.  0.
         12    1    1    2    0    0 -0.32774807129E+02 -0.18062213839E+02 -0.15897623554E+02  0.40659143938E+02  0.00000000000E+00 0. -1.
         11    1    3    3    0    0  0.56463291059E+01 -0.17242571670E+01  0.12335605265E+02  0.13675571384E+02  0.51100000000E-03 0. -1.
        -11    1    3    3    0    0  0.75913014308E+01 -0.70127013517E+00 -0.22587614519E+01  0.79512037311E+01  0.51100000000E-03 0.  1.
         12    1    3    3    0    0  0.19537176592E+02  0.20487741142E+02  0.58207797413E+01  0.28902080947E+02  0.00000000000E+00 0. -1.
</event>
<event>
 7    1  0.6245487E-013  0.5052887E+02  0.7816164E-02  0.1300439E+00
        -11   -1    0    0    0    0  0.00000000000E+00  0.00000000000E+00  0.45593999997E+02  0.45594000000E+02  0.51100000000E-03 0. -1.
         11   -1    0    0    0    0 -0.00000000000E+00 -0.00000000000E+00 -0.45593999997E+02  0.45594000000E+02  0.51100000000E-03 0.  1.
    9900012    2    1    2    0    0  0.62515936860E+01 -0.40029204646E+02  0.34271649986E+01  0.50528866854E+02  0.30000021290E+02 0.  0.
         12    1    1    2    0    0 -0.62515936860E+01  0.40029204646E+02 -0.34271649986E+01  0.40659133146E+02  0.00000000000E+00 0. -1.
         11    1    3    3    0    0  0.23700894016E+01 -0.27451490657E+02  0.13019870088E+02  0.30474886061E+02  0.51100000000E-03 0. -1.
        -11    1    3    3    0    0  0.46294426422E+01 -0.49991389425E+00 -0.72365833327E-01  0.46569185256E+01  0.51100000000E-03 0.  1.
        -12    1    3    3    0    0 -0.74793835781E+00 -0.12077800095E+02 -0.95203392557E+01  0.15397062267E+02  0.00000000000E+00 0.  1.
</event>
<event>
 7    1  0.6245487E-013  0.5052886E+02  0.7816164E-02  0.1300439E+00
        -11   -1    0    0    0    0  0.00000000000E+00  0.00000000000E+00  0.45593999997E+02  0.45594000000E+02  0.51100000000E-03 0.  1.
         11   -1    0    0    0    0 -0.00000000000E+00 -0.00000000000E+00 -0.45593999997E+02  0.45594000000E+02  0.51100000000E-03 0. -1.
    9900012    2    1    2    0    0 -0.21604349939E+02  0.15707323296E+02  0.30654486617E+02  0.50528862145E+02  0.30000006975E+02 0.  0.
         12    1    1    2    0    0  0.21604349939E+02 -0.15707323296E+02 -0.30654486617E+02  0.40659137855E+02  0.00000000000E+00 0. -1.
         11    1    3    3    0    0  0.48316259988E-01  0.21109026378E+01 -0.27170063992E+01  0.34409836445E+01  0.51100000000E-03 0. -1.
        -11    1    3    3    0    0 -0.41137679397E+00 -0.48909131425E+01  0.66711539195E+01  0.82821831128E+01  0.51100000000E-03 0.  1.
        -12    1    3    3    0    0 -0.21241289405E+02  0.18487333801E+02  0.26700339096E+02  0.38805695387E+02  0.00000000000E+00 0.  1.
</event>
<event>
 7    1  0.6245487E-013  0.5052886E+02  0.7816164E-02  0.1300439E+00
        -11   -1    0    0    0    0  0.00000000000E+00  0.00000000000E+00  0.45593999997E+02  0.45594000000E+02  0.51100000000E-03 0. -1.
         11   -1    0    0    0    0 -0.00000000000E+00 -0.00000000000E+00 -0.45593999997E+02  0.45594000000E+02  0.51100000000E-03 0.  1.
    9900012    2    1    2    0    0 -0.39893727559E+02  0.78125552982E+01 -0.78767359041E+00  0.50528856520E+02  0.29999989878E+02 0.  0.
         12    1    1    2    0    0  0.39893727559E+02 -0.78125552982E+01  0.78767359041E+00  0.40659143480E+02  0.00000000000E+00 0. -1.
         11    1    3    3    0    0 -0.65744317774E+01 -0.59658869280E+01 -0.48376847564E+01  0.10110299407E+02  0.51100000000E-03 0. -1.
        -11    1    3    3    0    0 -0.15441584988E+01  0.49525898682E+01  0.53005383010E+01  0.74167565966E+01  0.51100000000E-03 0.  1.
        -12    1    3    3    0    0 -0.31775137283E+02  0.88258523580E+01 -0.12505271350E+01  0.33001800516E+02  0.00000000000E+00 0.  1.
</event>
<event>
 7    1  0.6245487E-013  0.5052887E+02  0.7816164E-02  0.1300439E+00
        -11   -1    0    0    0    0  0.00000000000E+00  0.00000000000E+00  0.45593999997E+02  0.45594000000E+02  0.51100000000E-03 0.  1.
         11   -1    0    0    0    0 -0.00000000000E+00 -0.00000000000E+00 -0.45593999997E+02  0.45594000000E+02  0.51100000000E-03 0. -1.
    9900012    2    1    2    0    0 -0.25228824141E+02  0.66161687406E+01  0.31191309866E+02  0.50528867354E+02  0.30000022810E+02 0.  0.
         12    1    1    2    0    0  0.25228824141E+02 -0.66161687406E+01 -0.31191309866E+02  0.40659132646E+02  0.00000000000E+00 0. -1.
         11    1    3    3    0    0 -0.37977166310E+00  0.97737349516E+01  0.77597176978E+01  0.12485325003E+02  0.51100000000E-03 0. -1.
        -11    1    3    3    0    0 -0.16906728932E+01 -0.44665572370E+01 -0.39360254696E+00  0.47920174884E+01  0.51100000000E-03 0.  1.
        -12    1    3    3    0    0 -0.23158379585E+02  0.13089910261E+01  0.23825194715E+02  0.33251524863E+02  0.00000000000E+00 0.  1.
</event>
<event>
 7    1  0.6245487E-013  0.5052886E+02  0.7816164E-02  0.1300439E+00
        -11   -1    0    0    0    0  0.00000000000E+00  0.00000000000E+00  0.45593999997E+02  0.45594000000E+02  0.51100000000E-03 0.  1.
         11   -1    0    0    0    0 -0.00000000000E+00 -0.00000000000E+00 -0.45593999997E+02  0.45594000000E+02  0.51100000000E-03 0. -1.
    9900012    2    1    2    0    0  0.38049565655E+02 -0.33126279213E+01  0.13943544910E+02  0.50528863328E+02  0.30000010572E+02 0.  0.
         12    1    1    2    0    0 -0.38049565655E+02  0.33126279213E+01 -0.13943544910E+02  0.40659136672E+02  0.00000000000E+00 0. -1.
         11    1    3    3    0    0  0.19433221564E+01 -0.62277941303E-01 -0.44879056693E+01  0.48909791559E+01  0.51100000000E-03 0. -1.
        -11    1    3    3    0    0  0.34260111797E+02  0.11347422645E+01  0.95860028573E+01  0.35594021287E+02  0.51100000000E-03 0.  1.
         12    1    3    3    0    0  0.18461317015E+01 -0.43850922446E+01  0.88454477218E+01  0.10043862885E+02  0.00000000000E+00 0. -1.
</event>
<event>
 7    1  0.6245487E-013  0.5052886E+02  0.7816164E-02  0.1300439E+00
        -11   -1    0    0    0    0  0.00000000000E+00  0.00000000000E+00  0.45593999997E+02  0.45594000000E+02  0.51100000000E-03 0.  1.
         11   -1    0    0    0    0 -0.00000000000E+00 -0.00000000000E+00 -0.45593999997E+02  0.45594000000E+02  0.51100000000E-03 0. -1.
    9900012    2    1    2    0    0  0.35840184275E+02 -0.44863541390E+01  0.18668669430E+02  0.50528863257E+02  0.30000010357E+02 0.  0.
         12    1    1    2    0    0 -0.35840184275E+02  0.44863541390E+01 -0.18668669430E+02  0.40659136743E+02  0.00000000000E+00 0. -1.
         11    1    3    3    0    0  0.81414952251E+01  0.13827361485E+00 -0.59361328070E+01  0.10076742383E+02  0.51100000000E-03 0. -1.
        -11    1    3    3    0    0  0.99060616258E+00 -0.51277961566E+01  0.25531946358E+01  0.58132948577E+01  0.51100000000E-03 0.  1.
        -12    1    3    3    0    0  0.26708082888E+02  0.50316840272E+00  0.22051607602E+02  0.34638826016E+02  0.00000000000E+00 0.  1.
</event>
<event>
 7    1  0.6245487E-013  0.5052886E+02  0.7816164E-02  0.1300439E+00
        -11   -1    0    0    0    0  0.00000000000E+00  0.00000000000E+00  0.45593999997E+02  0.45594000000E+02  0.51100000000E-03 0.  1.
         11   -1    0    0    0    0 -0.00000000000E+00 -0.00000000000E+00 -0.45593999997E+02  0.45594000000E+02  0.51100000000E-03 0. -1.
    9900012    2    1    2    0    0 -0.22724674440E+02 -0.30724105757E+02 -0.13884659271E+02  0.50528864912E+02  0.30000015387E+02 0.  0.
         12    1    1    2    0    0  0.22724674440E+02  0.30724105757E+02  0.13884659271E+02  0.40659135088E+02  0.00000000000E+00 0. -1.
         11    1    3    3    0    0  0.20002763734E+01 -0.14197658336E+01  0.81791725559E-01  0.24542882348E+01  0.51100000000E-03 0.  1.
        -11    1    3    3    0    0 -0.24240231016E+02 -0.29198760774E+02 -0.40714787377E+01  0.38167176602E+02  0.51100000000E-03 0. -1.
         12    1    3    3    0    0 -0.48471979836E+00 -0.10557914978E+00 -0.98949722590E+01  0.99074000750E+01  0.00000000000E+00 0. -1.
</event>
<event>
 7    1  0.6557309E-013  0.5052886E+02  0.7816164E-02  0.1300439E+00
        -11   -1    0    0    0    0  0.00000000000E+00  0.00000000000E+00  0.45593999997E+02  0.45594000000E+02  0.51100000000E-03 0.  1.
         11   -1    0    0    0    0 -0.00000000000E+00 -0.00000000000E+00 -0.45593999997E+02  0.45594000000E+02  0.51100000000E-03 0. -1.
    9900012    2    1    2    0    0 -0.40409582917E+02 -0.39147435332E+01 -0.22150426013E+01  0.50528855615E+02  0.29999987126E+02 0.  0.
         12    1    1    2    0    0  0.40409582917E+02  0.39147435332E+01  0.22150426013E+01  0.40659144385E+02  0.00000000000E+00 0. -1.
         11    1    3    3    0    0 -0.21875287894E+01  0.75578049387E+01 -0.33381247881E+01  0.85468576131E+01  0.51100000000E-03 0. -1.
        -11    1    3    3    0    0 -0.99213961140E+01 -0.60732653321E+01 -0.47729836116E+01  0.12573783260E+02  0.51100000000E-03 0.  1.
        -12    1    3    3    0    0 -0.28300658013E+02 -0.53992831399E+01  0.58960657984E+01  0.29408214742E+02  0.00000000000E+00 0.  1.
</event>
<event>
 7    1  0.6245487E-013  0.5052887E+02  0.7816164E-02  0.1300439E+00
        -11   -1    0    0    0    0  0.00000000000E+00  0.00000000000E+00  0.45593999997E+02  0.45594000000E+02  0.51100000000E-03 0.  1.
         11   -1    0    0    0    0 -0.00000000000E+00 -0.00000000000E+00 -0.45593999997E+02  0.45594000000E+02  0.51100000000E-03 0. -1.
    9900012    2    1    2    0    0  0.24578859313E+02 -0.30433667589E+02  0.11083148388E+02  0.50528872781E+02  0.30000039305E+02 0.  0.
         12    1    1    2    0    0 -0.24578859313E+02  0.30433667589E+02 -0.11083148388E+02  0.40659127219E+02  0.00000000000E+00 0. -1.
         11    1    3    3    0    0  0.15717663231E+02 -0.27180230587E+02  0.13074811437E+00  0.31397881577E+02  0.51100000000E-03 0. -1.
        -11    1    3    3    0    0 -0.58919502801E+00  0.32338042653E+01  0.14597598388E-01  0.32870737987E+01  0.51100000000E-03 0.  1.
        -12    1    3    3    0    0  0.94503911096E+01 -0.64872412672E+01  0.10937802675E+02  0.15843917405E+02  0.00000000000E+00 0.  1.
</event>
<event>
 7    1  0.6245487E-013  0.5052886E+02  0.7816164E-02  0.1300439E+00
        -11   -1    0    0    0    0  0.00000000000E+00  0.00000000000E+00  0.45593999997E+02  0.45594000000E+02  0.51100000000E-03 0. -1.
         11   -1    0    0    0    0 -0.00000000000E+00 -0.00000000000E+00 -0.45593999997E+02  0.45594000000E+02  0.51100000000E-03 0.  1.
    9900012    2    1    2    0    0  0.26208758933E+02 -0.28643334984E+02 -0.12075831364E+02  0.50528863427E+02  0.30000010871E+02 0.  0.
         12    1    1    2    0    0 -0.26208758933E+02  0.28643334984E+02  0.12075831364E+02  0.40659136573E+02  0.00000000000E+00 0. -1.
         11    1    3    3    0    0  0.76824732191E+00 -0.39819410596E+01  0.30218396128E+01  0.50574275533E+01  0.51100000000E-03 0. -1.
        -11    1    3    3    0    0  0.11138891504E+02 -0.25797330423E+02 -0.68473437102E+01  0.28921674866E+02  0.51100000000E-03 0.  1.
         12    1    3    3    0    0  0.14301620107E+02  0.11359364990E+01 -0.82503272666E+01  0.16549761008E+02  0.00000000000E+00 0. -1.
</event>
<event>
 7    1  0.6245487E-013  0.5052887E+02  0.7816164E-02  0.1300439E+00
        -11   -1    0    0    0    0  0.00000000000E+00  0.00000000000E+00  0.45593999997E+02  0.45594000000E+02  0.51100000000E-03 0. -1.
         11   -1    0    0    0    0 -0.00000000000E+00 -0.00000000000E+00 -0.45593999997E+02  0.45594000000E+02  0.51100000000E-03 0.  1.
    9900012    2    1    2    0    0 -0.33237819184E+00 -0.39439593222E+02 -0.98778800605E+01  0.50528874293E+02  0.30000043900E+02 0.  0.
         12    1    1    2    0    0  0.33237819184E+00  0.39439593222E+02  0.98778800605E+01  0.40659125707E+02  0.00000000000E+00 0. -1.
         11    1    3    3    0    0  0.10706193003E+02 -0.17878150275E+02 -0.36985391580E+01  0.21164357255E+02  0.51100000000E-03 0. -1.
        -11    1    3    3    0    0  0.28204838319E+01 -0.10155410882E+02 -0.55327234740E+00  0.10554317115E+02  0.51100000000E-03 0.  1.
        -12    1    3    3    0    0 -0.13859055027E+02 -0.11406032066E+02 -0.56260685551E+01  0.18810199922E+02  0.00000000000E+00 0.  1.
</event>
<event>
 7    1  0.6245487E-013  0.5052884E+02  0.7816164E-02  0.1300439E+00
        -11   -1    0    0    0    0  0.00000000000E+00  0.00000000000E+00  0.45593999997E+02  0.45594000000E+02  0.51100000000E-03 0.  1.
         11   -1    0    0    0    0 -0.00000000000E+00 -0.00000000000E+00 -0.45593999997E+02  0.45594000000E+02  0.51100000000E-03 0. -1.
    9900012    2    1    2    0    0 -0.74327575881E+01  0.12132483097E+02  0.38088371702E+02  0.50528842479E+02  0.29999947198E+02 0.  0.
         12    1    1    2    0    0  0.74327575881E+01 -0.12132483097E+02 -0.38088371702E+02  0.40659157521E+02  0.00000000000E+00 0. -1.
         11    1    3    3    0    0  0.58269168680E+01  0.37406693414E+01  0.13238637937E+02  0.14940117202E+02  0.51100000000E-03 0. -1.
        -11    1    3    3    0    0 -0.18053640402E+01  0.10983617572E+02  0.43251168377E+01  0.11941768303E+02  0.51100000000E-03 0.  1.
        -12    1    3    3    0    0 -0.11454310416E+02 -0.25918038163E+01  0.20524616927E+02  0.23646956974E+02  0.00000000000E+00 0.  1.
</event>
<event>
 7    1  0.6245487E-013  0.5052887E+02  0.7816164E-02  0.1300439E+00
        -11   -1    0    0    0    0  0.00000000000E+00  0.00000000000E+00  0.45593999997E+02  0.45594000000E+02  0.51100000000E-03 0.  1.
         11   -1    0    0    0    0 -0.00000000000E+00 -0.00000000000E+00 -0.45593999997E+02  0.45594000000E+02  0.51100000000E-03 0. -1.
    9900012    2    1    2    0    0  0.26577862478E+02  0.29920245070E+02  0.71805911307E+01  0.50528871530E+02  0.30000035502E+02 0.  0.
         12    1    1    2    0    0 -0.26577862478E+02 -0.29920245070E+02 -0.71805911307E+01  0.40659128470E+02  0.00000000000E+00 0. -1.
         11    1    3    3    0    0  0.27076110603E+02  0.26334317239E+02  0.44886346702E+01  0.38036296761E+02  0.51100000000E-03 0.  1.
        -11    1    3    3    0    0  0.11329481688E+01  0.60884491201E+00 -0.44246435893E+01  0.46077906673E+01  0.51100000000E-03 0. -1.
        -12    1    3    3    0    0 -0.16311962935E+01  0.29770829192E+01  0.71166000497E+01  0.78847841013E+01  0.00000000000E+00 0.  1.
</event>
<event>
 7    1  0.6245487E-013  0.5052886E+02  0.7816164E-02  0.1300439E+00
        -11   -1    0    0    0    0  0.00000000000E+00  0.00000000000E+00  0.45593999997E+02  0.45594000000E+02  0.51100000000E-03 0.  1.
         11   -1    0    0    0    0 -0.00000000000E+00 -0.00000000000E+00 -0.45593999997E+02  0.45594000000E+02  0.51100000000E-03 0. -1.
    9900012    2    1    2    0    0 -0.23998938509E+02 -0.28342183120E+01  0.32698378505E+02  0.50528858348E+02  0.29999995435E+02 0.  0.
         12    1    1    2    0    0  0.23998938509E+02  0.28342183120E+01 -0.32698378505E+02  0.40659141652E+02  0.00000000000E+00 0. -1.
         11    1    3    3    0    0 -0.13413090858E+02 -0.30186988454E+01  0.58975840983E-01  0.13748710030E+02  0.51100000000E-03 0. -1.
        -11    1    3    3    0    0 -0.78737740643E+01  0.42213365364E+01  0.91334902395E+01  0.12776409683E+02  0.51100000000E-03 0.  1.
         12    1    3    3    0    0 -0.27120735866E+01 -0.40368560030E+01  0.23505912425E+02  0.24003738635E+02  0.00000000000E+00 0. -1.
</event>
<event>
 7    1  0.6245487E-013  0.5052886E+02  0.7816164E-02  0.1300439E+00
        -11   -1    0    0    0    0  0.00000000000E+00  0.00000000000E+00  0.45593999997E+02  0.45594000000E+02  0.51100000000E-03 0.  1.
         11   -1    0    0    0    0 -0.00000000000E+00 -0.00000000000E+00 -0.45593999997E+02  0.45594000000E+02  0.51100000000E-03 0. -1.
    9900012    2    1    2    0    0  0.17697121907E+02  0.31950173743E+02  0.17865164899E+02  0.50528857819E+02  0.29999993827E+02 0.  0.
         12    1    1    2    0    0 -0.17697121907E+02 -0.31950173743E+02 -0.17865164899E+02  0.40659142181E+02  0.00000000000E+00 0. -1.
         11    1    3    3    0    0  0.52665205558E+01 -0.21710741164E+01  0.55468419711E+01  0.79509281029E+01  0.51100000000E-03 0. -1.
        -11    1    3    3    0    0  0.83445635282E+01  0.66107198436E+01 -0.26818291408E+01  0.10978413598E+02  0.51100000000E-03 0.  1.
         12    1    3    3    0    0  0.40860378231E+01  0.27510528016E+02  0.15000152069E+02  0.31599516118E+02  0.00000000000E+00 0. -1.
</event>
<event>
 7    1  0.6245487E-013  0.5052882E+02  0.7816164E-02  0.1300439E+00
        -11   -1    0    0    0    0  0.00000000000E+00  0.00000000000E+00  0.45593999997E+02  0.45594000000E+02  0.51100000000E-03 0.  1.
         11   -1    0    0    0    0 -0.00000000000E+00 -0.00000000000E+00 -0.45593999997E+02  0.45594000000E+02  0.51100000000E-03 0. -1.
    9900012    2    1    2    0    0 -0.38797116399E+02  0.11173358969E+02 -0.48071415501E+01  0.50528821437E+02  0.29999883241E+02 0.  0.
         12    1    1    2    0    0  0.38797116399E+02 -0.11173358969E+02  0.48071415501E+01  0.40659178563E+02  0.00000000000E+00 0. -1.
         11    1    3    3    0    0 -0.16336847964E+02 -0.37364863327E+01 -0.12013196844E+01  0.16801699342E+02  0.51100000000E-03 0.  1.
        -11    1    3    3    0    0 -0.24768437314E+02  0.15132330358E+02 -0.67699298603E+01  0.29804275861E+02  0.51100000000E-03 0. -1.
         12    1    3    3    0    0  0.23081688798E+01 -0.22248505619E+00  0.31641079946E+01  0.39228462345E+01  0.00000000000E+00 0. -1.
</event>
<event>
 7    1  0.6245487E-013  0.5052886E+02  0.7816164E-02  0.1300439E+00
        -11   -1    0    0    0    0  0.00000000000E+00  0.00000000000E+00  0.45593999997E+02  0.45594000000E+02  0.51100000000E-03 0.  1.
         11   -1    0    0    0    0 -0.00000000000E+00 -0.00000000000E+00 -0.45593999997E+02  0.45594000000E+02  0.51100000000E-03 0. -1.
    9900012    2    1    2    0    0  0.24001266530E+02  0.21559731618E+02  0.24744349931E+02  0.50528859872E+02  0.30000000067E+02 0.  0.
         12    1    1    2    0    0 -0.24001266530E+02 -0.21559731618E+02 -0.24744349931E+02  0.40659140128E+02  0.00000000000E+00 0. -1.
         11    1    3    3    0    0  0.94975377986E+00 -0.13686888830E+01  0.35145744245E+00  0.17026050909E+01  0.51100000000E-03 0. -1.
        -11    1    3    3    0    0  0.15527408586E+02  0.25579264261E+02  0.86026397375E+01  0.31135262778E+02  0.51100000000E-03 0.  1.
         12    1    3    3    0    0  0.75241041639E+01 -0.26508437606E+01  0.15790252751E+02  0.17690992003E+02  0.00000000000E+00 0. -1.
</event>
<event>
 7    1  0.6245487E-013  0.5052885E+02  0.7816164E-02  0.1300439E+00
        -11   -1    0    0    0    0  0.00000000000E+00  0.00000000000E+00  0.45593999997E+02  0.45594000000E+02  0.51100000000E-03 0.  1.
         11   -1    0    0    0    0 -0.00000000000E+00 -0.00000000000E+00 -0.45593999997E+02  0.45594000000E+02  0.51100000000E-03 0. -1.
    9900012    2    1    2    0    0 -0.33001023983E+02 -0.19763579685E+02  0.13171941629E+02  0.50528847129E+02  0.29999961334E+02 0.  0.
         12    1    1    2    0    0  0.33001023983E+02  0.19763579685E+02 -0.13171941629E+02  0.40659152871E+02  0.00000000000E+00 0. -1.
         11    1    3    3    0    0 -0.13647656991E+02 -0.81746570379E+01 -0.28085764073E+01  0.16154617320E+02  0.51100000000E-03 0. -1.
        -11    1    3    3    0    0  0.25689462676E+01 -0.77640857179E+01  0.44776104539E+01  0.93235994980E+01  0.51100000000E-03 0.  1.
        -12    1    3    3    0    0 -0.21922313259E+02 -0.38248369295E+01  0.11502907583E+02  0.25050630312E+02  0.00000000000E+00 0.  1.
</event>
<event>
 7    1  0.6245487E-013  0.5052886E+02  0.7816164E-02  0.1300439E+00
        -11   -1    0    0    0    0  0.00000000000E+00  0.00000000000E+00  0.45593999997E+02  0.45594000000E+02  0.51100000000E-03 0.  1.
         11   -1    0    0    0    0 -0.00000000000E+00 -0.00000000000E+00 -0.45593999997E+02  0.45594000000E+02  0.51100000000E-03 0. -1.
    9900012    2    1    2    0    0 -0.21287318949E+02 -0.32508257530E+02 -0.11967822203E+02  0.50528861741E+02  0.30000005748E+02 0.  0.
         12    1    1    2    0    0  0.21287318949E+02  0.32508257530E+02  0.11967822203E+02  0.40659138259E+02  0.00000000000E+00 0. -1.
         11    1    3    3    0    0 -0.90780396518E+01 -0.67868420766E+01 -0.44257014387E+01  0.12167944065E+02  0.51100000000E-03 0. -1.
        -11    1    3    3    0    0 -0.13006242566E+02 -0.25087034838E+02  0.24063838518E+01  0.28360401023E+02  0.51100000000E-03 0.  1.
         12    1    3    3    0    0  0.79696326970E+00 -0.63438061558E+00 -0.99485046164E+01  0.10000516653E+02  0.00000000000E+00 0. -1.
</event>
<event>
 7    1  0.6245487E-013  0.5052886E+02  0.7816164E-02  0.1300439E+00
        -11   -1    0    0    0    0  0.00000000000E+00  0.00000000000E+00  0.45593999997E+02  0.45594000000E+02  0.51100000000E-03 0.  1.
         11   -1    0    0    0    0 -0.00000000000E+00 -0.00000000000E+00 -0.45593999997E+02  0.45594000000E+02  0.51100000000E-03 0. -1.
    9900012    2    1    2    0    0  0.35559252954E+02  0.42245614328E+01  0.19257686961E+02  0.50528857153E+02  0.29999991802E+02 0.  0.
         12    1    1    2    0    0 -0.35559252954E+02 -0.42245614328E+01 -0.19257686961E+02  0.40659142847E+02  0.00000000000E+00 0. -1.
         11    1    3    3    0    0  0.73818141250E+01  0.10332505176E+02  0.41534734474E+01  0.13360508408E+02  0.51100000000E-03 0. -1.
        -11    1    3    3    0    0  0.17959961211E+02  0.33963144758E+01  0.14269968329E+02  0.23188944674E+02  0.51100000000E-03 0.  1.
        -12    1    3    3    0    0  0.10217477618E+02 -0.95042582185E+01  0.83424518486E+00  0.13979404071E+02  0.00000000000E+00 0.  1.
</event>
<event>
 7    1  0.6245487E-013  0.5052885E+02  0.7816164E-02  0.1300439E+00
        -11   -1    0    0    0    0  0.00000000000E+00  0.00000000000E+00  0.45593999997E+02  0.45594000000E+02  0.51100000000E-03 0.  1.
         11   -1    0    0    0    0 -0.00000000000E+00 -0.00000000000E+00 -0.45593999997E+02  0.45594000000E+02  0.51100000000E-03 0. -1.
    9900012    2    1    2    0    0  0.35251766975E+02 -0.25074452818E+01  0.20104527914E+02  0.50528850976E+02  0.29999973027E+02 0.  0.
         12    1    1    2    0    0 -0.35251766975E+02  0.25074452818E+01 -0.20104527914E+02  0.40659149024E+02  0.00000000000E+00 0. -1.
         11    1    3    3    0    0  0.18141510887E+02 -0.79853857670E+01 -0.29718067054E+01  0.20042765240E+02  0.51100000000E-03 0. -1.
        -11    1    3    3    0    0  0.35946487037E+01  0.53001000272E+01  0.72713463104E+01  0.96894291384E+01  0.51100000000E-03 0.  1.
        -12    1    3    3    0    0  0.13515607384E+02  0.17784045801E+00  0.15804988309E+02  0.20796656597E+02  0.00000000000E+00 0.  1.
</event>
<event>
 7    1  0.6245487E-013  0.5052884E+02  0.7816164E-02  0.1300439E+00
        -11   -1    0    0    0    0  0.00000000000E+00  0.00000000000E+00  0.45593999997E+02  0.45594000000E+02  0.51100000000E-03 0. -1.
         11   -1    0    0    0    0 -0.00000000000E+00 -0.00000000000E+00 -0.45593999997E+02  0.45594000000E+02  0.51100000000E-03 0.  1.
    9900012    2    1    2    0    0  0.13535926115E+02  0.14069567110E+02 -0.35665013503E+02  0.50528841098E+02  0.29999943001E+02 0.  0.
         12    1    1    2    0    0 -0.13535926115E+02 -0.14069567110E+02  0.35665013503E+02  0.40659158902E+02  0.00000000000E+00 0. -1.
         11    1    3    3    0    0  0.12376496675E+02 -0.15960564559E+01 -0.91166509339E+01  0.15454397131E+02  0.51100000000E-03 0. -1.
        -11    1    3    3    0    0  0.29762605781E+01  0.11497003778E+02 -0.27906684372E+02  0.30328571609E+02  0.51100000000E-03 0.  1.
        -12    1    3    3    0    0 -0.18168311383E+01  0.41686197878E+01  0.13583218034E+01  0.47458723584E+01  0.00000000000E+00 0.  1.
</event>
<event>
 7    1  0.6245487E-013  0.5052886E+02  0.7816164E-02  0.1300439E+00
        -11   -1    0    0    0    0  0.00000000000E+00  0.00000000000E+00  0.45593999997E+02  0.45594000000E+02  0.51100000000E-03 0.  1.
         11   -1    0    0    0    0 -0.00000000000E+00 -0.00000000000E+00 -0.45593999997E+02  0.45594000000E+02  0.51100000000E-03 0. -1.
    9900012    2    1    2    0    0 -0.50613424399E+01  0.24763944939E+01  0.40266810896E+02  0.50528858633E+02  0.29999996300E+02 0.  0.
         12    1    1    2    0    0  0.50613424399E+01 -0.24763944939E+01 -0.40266810896E+02  0.40659141367E+02  0.00000000000E+00 0. -1.
         11    1    3    3    0    0 -0.82136906488E+00 -0.75608832761E+01  0.42071171052E+01  0.86914577404E+01  0.51100000000E-03 0. -1.
        -11    1    3    3    0    0 -0.17976462418E+01 -0.17990545129E+01  0.25968357134E+02  0.26092598599E+02  0.51100000000E-03 0.  1.
         12    1    3    3    0    0 -0.24423271333E+01  0.11836332283E+02  0.10091336657E+02  0.15744802293E+02  0.00000000000E+00 0. -1.
</event>
<event>
 7    1  0.6245487E-013  0.5052887E+02  0.7816164E-02  0.1300439E+00
        -11   -1    0    0    0    0  0.00000000000E+00  0.00000000000E+00  0.45593999997E+02  0.45594000000E+02  0.51100000000E-03 0. -1.
         11   -1    0    0    0    0 -0.00000000000E+00 -0.00000000000E+00 -0.45593999997E+02  0.45594000000E+02  0.51100000000E-03 0.  1.
    9900012    2    1    2    0    0  0.19080738574E+02  0.35871466171E+02 -0.15259643509E+01  0.50528865270E+02  0.30000016475E+02 0.  0.
         12    1    1    2    0    0 -0.19080738574E+02 -0.35871466171E+02  0.15259643509E+01  0.40659134730E+02  0.00000000000E+00 0. -1.
         11    1    3    3    0    0  0.19412825091E+02  0.11503429136E+02  0.69674883006E+01  0.23616361985E+02  0.51100000000E-03 0. -1.
        -11    1    3    3    0    0  0.32991839885E+01  0.64066021648E+01 -0.26628545797E+01  0.76824449924E+01  0.51100000000E-03 0.  1.
         12    1    3    3    0    0 -0.36312705056E+01  0.17961434870E+02 -0.58305980718E+01  0.19230058293E+02  0.00000000000E+00 0. -1.
</event>
<event>
 7    1  0.6245487E-013  0.5052887E+02  0.7816164E-02  0.1300439E+00
        -11   -1    0    0    0    0  0.00000000000E+00  0.00000000000E+00  0.45593999997E+02  0.45594000000E+02  0.51100000000E-03 0.  1.
         11   -1    0    0    0    0 -0.00000000000E+00 -0.00000000000E+00 -0.45593999997E+02  0.45594000000E+02  0.51100000000E-03 0. -1.
    9900012    2    1    2    0    0 -0.11793613626E+02  0.13531879716E+02  0.36482375104E+02  0.50528870838E+02  0.30000033398E+02 0.  0.
         12    1    1    2    0    0  0.11793613626E+02 -0.13531879716E+02 -0.36482375104E+02  0.40659129162E+02  0.00000000000E+00 0. -1.
         11    1    3    3    0    0  0.48084895795E+01  0.75533468263E+01  0.38694912653E+01  0.97543622666E+01  0.51100000000E-03 0. -1.
        -11    1    3    3    0    0 -0.35187436164E+01  0.68648027228E+01  0.23687406502E+02  0.24911850596E+02  0.51100000000E-03 0.  1.
         12    1    3    3    0    0 -0.13083359589E+02 -0.88626983289E+00  0.89254773369E+01  0.15862657975E+02  0.00000000000E+00 0. -1.
</event>
<event>
 7    1  0.6245487E-013  0.5052885E+02  0.7816164E-02  0.1300439E+00
        -11   -1    0    0    0    0  0.00000000000E+00  0.00000000000E+00  0.45593999997E+02  0.45594000000E+02  0.51100000000E-03 0. -1.
         11   -1    0    0    0    0 -0.00000000000E+00 -0.00000000000E+00 -0.45593999997E+02  0.45594000000E+02  0.51100000000E-03 0.  1.
    9900012    2    1    2    0    0  0.16502661064E+02 -0.35927721429E+02 -0.94882744411E+01  0.50528851691E+02  0.29999975201E+02 0.  0.
         12    1    1    2    0    0 -0.16502661064E+02  0.35927721429E+02  0.94882744411E+01  0.40659148309E+02  0.00000000000E+00 0. -1.
         11    1    3    3    0    0  0.18795131248E+02 -0.14006284726E+02 -0.12583064741E+02  0.26603881089E+02  0.51100000000E-03 0. -1.
        -11    1    3    3    0    0 -0.69794627960E-01 -0.67287979321E+01  0.50956186350E+01  0.84407892069E+01  0.51100000000E-03 0.  1.
        -12    1    3    3    0    0 -0.22226755559E+01 -0.15192638772E+02 -0.20008283353E+01  0.15484181396E+02  0.00000000000E+00 0.  1.
</event>
<event>
 7    1  0.6245487E-013  0.5052885E+02  0.7816164E-02  0.1300439E+00
        -11   -1    0    0    0    0  0.00000000000E+00  0.00000000000E+00  0.45593999997E+02  0.45594000000E+02  0.51100000000E-03 0.  1.
         11   -1    0    0    0    0 -0.00000000000E+00 -0.00000000000E+00 -0.45593999997E+02  0.45594000000E+02  0.51100000000E-03 0. -1.
    9900012    2    1    2    0    0 -0.24447597059E+02  0.86228130428E+01  0.31322966260E+02  0.50528854386E+02  0.29999983390E+02 0.  0.
         12    1    1    2    0    0  0.24447597059E+02 -0.86228130428E+01 -0.31322966260E+02  0.40659145614E+02  0.00000000000E+00 0. -1.
         11    1    3    3    0    0 -0.57292486738E+01  0.15315267663E+02  0.10736522130E+02  0.19561559797E+02  0.51100000000E-03 0. -1.
        -11    1    3    3    0    0 -0.61230432305E+00 -0.31476483548E+01 -0.15145408066E+00  0.32102251243E+01  0.51100000000E-03 0.  1.
        -12    1    3    3    0    0 -0.18106044062E+02 -0.35448062658E+01  0.20737898211E+02  0.27757069465E+02  0.00000000000E+00 0.  1.
</event>
<event>
 7    1  0.6245487E-013  0.5052886E+02  0.7816164E-02  0.1300439E+00
        -11   -1    0    0    0    0  0.00000000000E+00  0.00000000000E+00  0.45593999997E+02  0.45594000000E+02  0.51100000000E-03 0.  1.
         11   -1    0    0    0    0 -0.00000000000E+00 -0.00000000000E+00 -0.45593999997E+02  0.45594000000E+02  0.51100000000E-03 0. -1.
    9900012    2    1    2    0    0 -0.38523597593E+02  0.51336158169E+01  0.11947562351E+02  0.50528857990E+02  0.29999994346E+02 0.  0.
         12    1    1    2    0    0  0.38523597593E+02 -0.51336158169E+01 -0.11947562351E+02  0.40659142010E+02  0.00000000000E+00 0. -1.
         11    1    3    3    0    0  0.52537702935E+00  0.89113748129E+01  0.78485326027E+00  0.89612843377E+01  0.51100000000E-03 0. -1.
        -11    1    3    3    0    0 -0.16656334116E+02  0.22299174074E+01  0.36557178863E+01  0.17197972885E+02  0.51100000000E-03 0.  1.
        -12    1    3    3    0    0 -0.22392640507E+02 -0.60076764034E+01  0.75069912041E+01  0.24369600767E+02  0.00000000000E+00 0.  1.
</event>
<event>
 7    1  0.6245487E-013  0.5052882E+02  0.7816164E-02  0.1300439E+00
        -11   -1    0    0    0    0  0.00000000000E+00  0.00000000000E+00  0.45593999997E+02  0.45594000000E+02  0.51100000000E-03 0. -1.
         11   -1    0    0    0    0 -0.00000000000E+00 -0.00000000000E+00 -0.45593999997E+02  0.45594000000E+02  0.51100000000E-03 0.  1.
    9900012    2    1    2    0    0 -0.35662943744E+02  0.96658713104E+01  0.16967441886E+02  0.50528822576E+02  0.29999886701E+02 0.  0.
         12    1    1    2    0    0  0.35662943744E+02 -0.96658713104E+01 -0.16967441886E+02  0.40659177424E+02  0.00000000000E+00 0. -1.
         11    1    3    3    0    0  0.17244924727E+01 -0.23286669421E+01  0.77134565793E+01  0.82397801352E+01  0.51100000000E-03 0. -1.
        -11    1    3    3    0    0 -0.10058382645E+02 -0.21978399086E+01  0.65508604491E+00  0.10316525563E+02  0.51100000000E-03 0.  1.
         12    1    3    3    0    0 -0.27329053572E+02  0.14192378161E+02  0.85988992616E+01  0.31972516878E+02  0.00000000000E+00 0. -1.
</event>
<event>
 7    1  0.6245487E-013  0.5052886E+02  0.7816164E-02  0.1300439E+00
        -11   -1    0    0    0    0  0.00000000000E+00  0.00000000000E+00  0.45593999997E+02  0.45594000000E+02  0.51100000000E-03 0.  1.
         11   -1    0    0    0    0 -0.00000000000E+00 -0.00000000000E+00 -0.45593999997E+02  0.45594000000E+02  0.51100000000E-03 0. -1.
    9900012    2    1    2    0    0  0.24172610561E+02  0.68675920235E+01  0.31963834463E+02  0.50528860374E+02  0.30000001593E+02 0.  0.
         12    1    1    2    0    0 -0.24172610561E+02 -0.68675920235E+01 -0.31963834463E+02  0.40659139626E+02  0.00000000000E+00 0. -1.
         11    1    3    3    0    0  0.53616517003E+01  0.78515487825E+00 -0.33315823307E+01  0.63610705251E+01  0.51100000000E-03 0. -1.
        -11    1    3    3    0    0 -0.28831986537E+01  0.29461997673E+01  0.92442066360E+01  0.10121673979E+02  0.51100000000E-03 0.  1.
        -12    1    3    3    0    0  0.21694157515E+02  0.31362373780E+01  0.26051210157E+02  0.34046115870E+02  0.00000000000E+00 0.  1.
</event>
<event>
 7    1  0.6245487E-013  0.5052886E+02  0.7816164E-02  0.1300439E+00
        -11   -1    0    0    0    0  0.00000000000E+00  0.00000000000E+00  0.45593999997E+02  0.45594000000E+02  0.51100000000E-03 0. -1.
         11   -1    0    0    0    0 -0.00000000000E+00 -0.00000000000E+00 -0.45593999997E+02  0.45594000000E+02  0.51100000000E-03 0.  1.
    9900012    2    1    2    0    0 -0.63041952074E+00  0.34105747430E+02 -0.22126143601E+02  0.50528859980E+02  0.30000000395E+02 0.  0.
         12    1    1    2    0    0  0.63041952074E+00 -0.34105747430E+02  0.22126143601E+02  0.40659140020E+02  0.00000000000E+00 0. -1.
         11    1    3    3    0    0  0.76465284071E+01  0.18950325427E+02 -0.94492168534E-01  0.20435096269E+02  0.51100000000E-03 0. -1.
        -11    1    3    3    0    0 -0.61896904342E+01  0.25723462922E+01 -0.34041840313E+01  0.75178256363E+01  0.51100000000E-03 0.  1.
        -12    1    3    3    0    0 -0.20872574936E+01  0.12583075710E+02 -0.18627467401E+02  0.22575938075E+02  0.00000000000E+00 0.  1.
</event>
<event>
 7    1  0.6305938E-013  0.5052886E+02  0.7816164E-02  0.1300439E+00
        -11   -1    0    0    0    0  0.00000000000E+00  0.00000000000E+00  0.45593999997E+02  0.45594000000E+02  0.51100000000E-03 0. -1.
         11   -1    0    0    0    0 -0.00000000000E+00 -0.00000000000E+00 -0.45593999997E+02  0.45594000000E+02  0.51100000000E-03 0.  1.
    9900012    2    1    2    0    0 -0.33698145211E+02 -0.19538660100E+02 -0.11655108542E+02  0.50528858539E+02  0.29999996016E+02 0.  0.
         12    1    1    2    0    0  0.33698145211E+02  0.19538660100E+02  0.11655108542E+02  0.40659141461E+02  0.00000000000E+00 0. -1.
         11    1    3    3    0    0  0.12914524796E+01 -0.76734994971E+01  0.32223762291E+01  0.84222415580E+01  0.51100000000E-03 0. -1.
        -11    1    3    3    0    0 -0.11141084345E+02  0.14937329381E+01 -0.57419380334E+00  0.11255429679E+02  0.51100000000E-03 0.  1.
        -12    1    3    3    0    0 -0.23848513346E+02 -0.13358893541E+02 -0.14303290968E+02  0.30851187303E+02  0.00000000000E+00 0.  1.
</event>
<event>
 7    1  0.6245487E-013  0.5052887E+02  0.7816164E-02  0.1300439E+00
        -11   -1    0    0    0    0  0.00000000000E+00  0.00000000000E+00  0.45593999997E+02  0.45594000000E+02  0.51100000000E-03 0.  1.
         11   -1    0    0    0    0 -0.00000000000E+00 -0.00000000000E+00 -0.45593999997E+02  0.45594000000E+02  0.51100000000E-03 0. -1.
    9900012    2    1    2    0    0  0.14199084394E+01 -0.11958284377E+02  0.38834886621E+02  0.50528866659E+02  0.30000020696E+02 0.  0.
         12    1    1    2    0    0 -0.14199084394E+01  0.11958284377E+02 -0.38834886621E+02  0.40659133341E+02  0.00000000000E+00 0. -1.
         11    1    3    3    0    0  0.90725265198E+00  0.40999036051E+01  0.30098005065E+01  0.51663542557E+01  0.51100000000E-03 0. -1.
        -11    1    3    3    0    0  0.36754893512E+01 -0.91367671331E+01  0.12118412267E+01  0.99226153324E+01  0.51100000000E-03 0.  1.
        -12    1    3    3    0    0 -0.31628335638E+01 -0.69214208490E+01  0.34613244888E+02  0.35439897071E+02  0.00000000000E+00 0.  1.
</event>
<event>
 7    1  0.6245487E-013  0.5052886E+02  0.7816164E-02  0.1300439E+00
        -11   -1    0    0    0    0  0.00000000000E+00  0.00000000000E+00  0.45593999997E+02  0.45594000000E+02  0.51100000000E-03 0.  1.
         11   -1    0    0    0    0 -0.00000000000E+00 -0.00000000000E+00 -0.45593999997E+02  0.45594000000E+02  0.51100000000E-03 0. -1.
    9900012    2    1    2    0    0  0.11289601462E+02  0.88546164579E+01  0.38043480808E+02  0.50528858767E+02  0.29999996708E+02 0.  0.
         12    1    1    2    0    0 -0.11289601462E+02 -0.88546164579E+01 -0.38043480808E+02  0.40659141233E+02  0.00000000000E+00 0. -1.
         11    1    3    3    0    0  0.69110267188E+01  0.95513491070E+00  0.54771124537E+01  0.88697989885E+01  0.51100000000E-03 0. -1.
        -11    1    3    3    0    0  0.24288529138E+01 -0.87868023912E+01  0.10095328500E+02  0.13602311587E+02  0.51100000000E-03 0.  1.
        -12    1    3    3    0    0  0.19497218299E+01  0.16686283938E+02  0.22471039855E+02  0.28056748191E+02  0.00000000000E+00 0.  1.
</event>
<event>
 7    1  0.6245487E-013  0.5052887E+02  0.7816164E-02  0.1300439E+00
        -11   -1    0    0    0    0  0.00000000000E+00  0.00000000000E+00  0.45593999997E+02  0.45594000000E+02  0.51100000000E-03 0.  1.
         11   -1    0    0    0    0 -0.00000000000E+00 -0.00000000000E+00 -0.45593999997E+02  0.45594000000E+02  0.51100000000E-03 0. -1.
    9900012    2    1    2    0    0 -0.63993078478E+01  0.13634839100E+02  0.37766454715E+02  0.50528867201E+02  0.30000022345E+02 0.  0.
         12    1    1    2    0    0  0.63993078478E+01 -0.13634839100E+02 -0.37766454715E+02  0.40659132799E+02  0.00000000000E+00 0. -1.
         11    1    3    3    0    0 -0.49959308844E+01  0.70511465878E+01 -0.94803091161E+00  0.86934893153E+01  0.51100000000E-03 0. -1.
        -11    1    3    3    0    0 -0.19077804383E+01  0.82876697089E+01  0.10264104183E+02  0.13329551018E+02  0.51100000000E-03 0.  1.
         12    1    3    3    0    0  0.50440347487E+00 -0.17039771966E+01  0.28450381443E+02  0.28505826868E+02  0.00000000000E+00 0. -1.
</event>
<event>
 7    1  0.6245487E-013  0.5052885E+02  0.7816164E-02  0.1300439E+00
        -11   -1    0    0    0    0  0.00000000000E+00  0.00000000000E+00  0.45593999997E+02  0.45594000000E+02  0.51100000000E-03 0. -1.
         11   -1    0    0    0    0 -0.00000000000E+00 -0.00000000000E+00 -0.45593999997E+02  0.45594000000E+02  0.51100000000E-03 0.  1.
    9900012    2    1    2    0    0 -0.26340074638E+02 -0.30649441671E+02 -0.44697118029E+01  0.50528854286E+02  0.29999983086E+02 0.  0.
         12    1    1    2    0    0  0.26340074638E+02  0.30649441671E+02  0.44697118029E+01  0.40659145714E+02  0.00000000000E+00 0. -1.
         11    1    3    3    0    0 -0.14662780345E+02 -0.19501143551E+02 -0.29108827834E+01  0.24571629292E+02  0.51100000000E-03 0. -1.
        -11    1    3    3    0    0 -0.87469239173E+00 -0.11485119891E+02  0.57859036378E+01  0.12889908722E+02  0.51100000000E-03 0.  1.
         12    1    3    3    0    0 -0.10802601901E+02  0.33682177110E+00 -0.73447326574E+01  0.13067316271E+02  0.00000000000E+00 0. -1.
</event>
<event>
 7    1  0.6245487E-013  0.5052886E+02  0.7816164E-02  0.1300439E+00
        -11   -1    0    0    0    0  0.00000000000E+00  0.00000000000E+00  0.45593999997E+02  0.45594000000E+02  0.51100000000E-03 0. -1.
         11   -1    0    0    0    0 -0.00000000000E+00 -0.00000000000E+00 -0.45593999997E+02  0.45594000000E+02  0.51100000000E-03 0.  1.
    9900012    2    1    2    0    0 -0.16635870713E+02  0.68654763937E+01 -0.36459279530E+02  0.50528855587E+02  0.29999987043E+02 0.  0.
         12    1    1    2    0    0  0.16635870713E+02 -0.68654763937E+01  0.36459279530E+02  0.40659144413E+02  0.00000000000E+00 0. -1.
         11    1    3    3    0    0 -0.35208570585E+01 -0.30680580584E+01  0.11080304982E+01  0.47997027536E+01  0.51100000000E-03 0. -1.
        -11    1    3    3    0    0 -0.13087555651E+02 -0.25722747769E+01 -0.22407839172E+02  0.26077039078E+02  0.51100000000E-03 0.  1.
         12    1    3    3    0    0 -0.27458003974E-01  0.12505809229E+02 -0.15159470857E+02  0.19652113756E+02  0.00000000000E+00 0. -1.
</event>
<event>
 7    1  0.6245487E-013  0.5052885E+02  0.7816164E-02  0.1300439E+00
        -11   -1    0    0    0    0  0.00000000000E+00  0.00000000000E+00  0.45593999997E+02  0.45594000000E+02  0.51100000000E-03 0. -1.
         11   -1    0    0    0    0 -0.00000000000E+00 -0.00000000000E+00 -0.45593999997E+02  0.45594000000E+02  0.51100000000E-03 0.  1.
    9900012    2    1    2    0    0 -0.35961471330E+02  0.15306317902E+02  0.11209613380E+02  0.50528853180E+02  0.29999979727E+02 0.  0.
         12    1    1    2    0    0  0.35961471330E+02 -0.15306317902E+02 -0.11209613380E+02  0.40659146820E+02  0.00000000000E+00 0. -1.
         11    1    3    3    0    0 -0.10364231081E+02  0.50913809729E+01  0.41808481327E+01  0.12280836188E+02  0.51100000000E-03 0. -1.
        -11    1    3    3    0    0 -0.69916415295E+01  0.16017320140E+02 -0.15320694055E+00  0.17477444560E+02  0.51100000000E-03 0.  1.
        -12    1    3    3    0    0 -0.18605598719E+02 -0.58023832103E+01  0.71819721882E+01  0.20770572432E+02  0.00000000000E+00 0.  1.
</event>
<event>
 7    1  0.6245487E-013  0.5052886E+02  0.7816164E-02  0.1300439E+00
        -11   -1    0    0    0    0  0.00000000000E+00  0.00000000000E+00  0.45593999997E+02  0.45594000000E+02  0.51100000000E-03 0.  1.
         11   -1    0    0    0    0 -0.00000000000E+00 -0.00000000000E+00 -0.45593999997E+02  0.45594000000E+02  0.51100000000E-03 0. -1.
    9900012    2    1    2    0    0  0.32515867703E+02 -0.21608406575E+02  0.11356087737E+02  0.50528860610E+02  0.30000002311E+02 0.  0.
         12    1    1    2    0    0 -0.32515867703E+02  0.21608406575E+02 -0.11356087737E+02  0.40659139390E+02  0.00000000000E+00 0. -1.
         11    1    3    3    0    0  0.14435436846E+02 -0.98521915656E+01 -0.49584837643E+01  0.18166840041E+02  0.51100000000E-03 0. -1.
        -11    1    3    3    0    0  0.11637387488E+02  0.25644105685E+01  0.46127295019E+01  0.12778194819E+02  0.51100000000E-03 0.  1.
         12    1    3    3    0    0  0.64430433684E+01 -0.14320625578E+02  0.11701842000E+02  0.19583825750E+02  0.00000000000E+00 0. -1.
</event>
<event>
 7    1  0.6245487E-013  0.5052886E+02  0.7816164E-02  0.1300439E+00
        -11   -1    0    0    0    0  0.00000000000E+00  0.00000000000E+00  0.45593999997E+02  0.45594000000E+02  0.51100000000E-03 0.  1.
         11   -1    0    0    0    0 -0.00000000000E+00 -0.00000000000E+00 -0.45593999997E+02  0.45594000000E+02  0.51100000000E-03 0. -1.
    9900012    2    1    2    0    0 -0.71768340435E+01 -0.12559132797E+02  0.37999042005E+02  0.50528856418E+02  0.29999989568E+02 0.  0.
         12    1    1    2    0    0  0.71768340435E+01  0.12559132797E+02 -0.37999042005E+02  0.40659143582E+02  0.00000000000E+00 0. -1.
         11    1    3    3    0    0  0.68065714334E+00 -0.34324393012E+01 -0.25066302783E+01  0.43044313581E+01  0.51100000000E-03 0. -1.
        -11    1    3    3    0    0  0.48257728914E+01  0.33941109885E+00  0.18478177085E+02  0.19100950566E+02  0.51100000000E-03 0.  1.
         12    1    3    3    0    0 -0.12683264078E+02 -0.94661045951E+01  0.22027495199E+02  0.27123474494E+02  0.00000000000E+00 0. -1.
</event>
<event>
 7    1  0.6245487E-013  0.5052884E+02  0.7816164E-02  0.1300439E+00
        -11   -1    0    0    0    0  0.00000000000E+00  0.00000000000E+00  0.45593999997E+02  0.45594000000E+02  0.51100000000E-03 0.  1.
         11   -1    0    0    0    0 -0.00000000000E+00 -0.00000000000E+00 -0.45593999997E+02  0.45594000000E+02  0.51100000000E-03 0. -1.
    9900012    2    1    2    0    0 -0.62225069558E+01 -0.14558200313E+01  0.40153806183E+02  0.50528841674E+02  0.29999944754E+02 0.  0.
         12    1    1    2    0    0  0.62225069558E+01  0.14558200313E+01 -0.40153806183E+02  0.40659158326E+02  0.00000000000E+00 0. -1.
         11    1    3    3    0    0 -0.47025516028E+00  0.87101696097E+01  0.58336821745E+01  0.10493809724E+02  0.51100000000E-03 0. -1.
        -11    1    3    3    0    0  0.26594718041E+01  0.23135603592E+01  0.15712514786E+02  0.16103057876E+02  0.51100000000E-03 0.  1.
        -12    1    3    3    0    0 -0.84117235995E+01 -0.12479550000E+02  0.18607609223E+02  0.23931974074E+02  0.00000000000E+00 0.  1.
</event>
<event>
 7    1  0.7512348E-013  0.5052885E+02  0.7816164E-02  0.1300439E+00
        -11   -1    0    0    0    0  0.00000000000E+00  0.00000000000E+00  0.45593999997E+02  0.45594000000E+02  0.51100000000E-03 0. -1.
         11   -1    0    0    0    0 -0.00000000000E+00 -0.00000000000E+00 -0.45593999997E+02  0.45594000000E+02  0.51100000000E-03 0.  1.
    9900012    2    1    2    0    0 -0.53505397913E+01 -0.40284524660E+02  0.13019539071E+01  0.50528852356E+02  0.29999977222E+02 0.  0.
         12    1    1    2    0    0  0.53505397913E+01  0.40284524660E+02 -0.13019539071E+01  0.40659147644E+02  0.00000000000E+00 0. -1.
         11    1    3    3    0    0 -0.88432101579E+01 -0.75163042893E+01  0.18456509143E+01  0.11751749811E+02  0.51100000000E-03 0. -1.
        -11    1    3    3    0    0  0.25717771982E+01  0.17279133770E+01  0.27091229027E+01  0.41157101160E+01  0.51100000000E-03 0.  1.
        -12    1    3    3    0    0  0.92089316841E+00 -0.34496133748E+02 -0.32528199100E+01  0.34661392429E+02  0.00000000000E+00 0.  1.
</event>
<event>
 7    1  0.6245487E-013  0.5052881E+02  0.7816164E-02  0.1300439E+00
        -11   -1    0    0    0    0  0.00000000000E+00  0.00000000000E+00  0.45593999997E+02  0.45594000000E+02  0.51100000000E-03 0.  1.
         11   -1    0    0    0    0 -0.00000000000E+00 -0.00000000000E+00 -0.45593999997E+02  0.45594000000E+02  0.51100000000E-03 0. -1.
    9900012    2    1    2    0    0  0.40321040052E+02 -0.52065701921E+01  0.52452946776E+00  0.50528809462E+02  0.29999846841E+02 0.  0.
         12    1    1    2    0    0 -0.40321040052E+02  0.52065701921E+01 -0.52452946776E+00  0.40659190538E+02  0.00000000000E+00 0. -1.
         11    1    3    3    0    0  0.45119985452E+01 -0.60742616824E+01  0.31162131982E+01  0.81832494045E+01  0.51100000000E-03 0. -1.
        -11    1    3    3    0    0  0.33512105591E+02 -0.12419077911E+00  0.54240391973E+01  0.33948443940E+02  0.51100000000E-03 0.  1.
         12    1    3    3    0    0  0.22969359157E+01  0.99188226939E+00 -0.80157229277E+01  0.83971161175E+01  0.00000000000E+00 0. -1.
</event>
<event>
 7    1  0.6245487E-013  0.5052886E+02  0.7816164E-02  0.1300439E+00
        -11   -1    0    0    0    0  0.00000000000E+00  0.00000000000E+00  0.45593999997E+02  0.45594000000E+02  0.51100000000E-03 0.  1.
         11   -1    0    0    0    0 -0.00000000000E+00 -0.00000000000E+00 -0.45593999997E+02  0.45594000000E+02  0.51100000000E-03 0. -1.
    9900012    2    1    2    0    0  0.23649967004E+02  0.26095986179E+02  0.20318564428E+02  0.50528862105E+02  0.30000006854E+02 0.  0.
         12    1    1    2    0    0 -0.23649967004E+02 -0.26095986179E+02 -0.20318564428E+02  0.40659137895E+02  0.00000000000E+00 0. -1.
         11    1    3    3    0    0  0.64601420382E+01  0.19152243552E+02 -0.22566587541E+00  0.20213678379E+02  0.51100000000E-03 0.  1.
        -11    1    3    3    0    0  0.35531764986E+01  0.49614044799E+01  0.13552195367E+02  0.14862792374E+02  0.51100000000E-03 0. -1.
        -12    1    3    3    0    0  0.13636648467E+02  0.19823381470E+01  0.69920349373E+01  0.15452391352E+02  0.00000000000E+00 0.  1.
</event>
<event>
 7    1  0.7015231E-013  0.5052886E+02  0.7816164E-02  0.1300439E+00
        -11   -1    0    0    0    0  0.00000000000E+00  0.00000000000E+00  0.45593999997E+02  0.45594000000E+02  0.51100000000E-03 0. -1.
         11   -1    0    0    0    0 -0.00000000000E+00 -0.00000000000E+00 -0.45593999997E+02  0.45594000000E+02  0.51100000000E-03 0.  1.
    9900012    2    1    2    0    0 -0.17504108936E+02 -0.89871812258E+01 -0.35580926131E+02  0.50528861294E+02  0.30000004388E+02 0.  0.
         12    1    1    2    0    0  0.17504108936E+02  0.89871812258E+01  0.35580926131E+02  0.40659138706E+02  0.00000000000E+00 0. -1.
         11    1    3    3    0    0 -0.10223071455E+02  0.31388256413E+00 -0.17423485836E+01  0.10375234508E+02  0.51100000000E-03 0. -1.
        -11    1    3    3    0    0 -0.10321541635E+02  0.14344907849E+01 -0.15158247806E+02  0.18394685710E+02  0.51100000000E-03 0.  1.
        -12    1    3    3    0    0  0.30405041542E+01 -0.10735554575E+02 -0.18680329741E+02  0.21758941076E+02  0.00000000000E+00 0.  1.
</event>
<event>
 7    1  0.6245487E-013  0.5052886E+02  0.7816164E-02  0.1300439E+00
        -11   -1    0    0    0    0  0.00000000000E+00  0.00000000000E+00  0.45593999997E+02  0.45594000000E+02  0.51100000000E-03 0.  1.
         11   -1    0    0    0    0 -0.00000000000E+00 -0.00000000000E+00 -0.45593999997E+02  0.45594000000E+02  0.51100000000E-03 0. -1.
    9900012    2    1    2    0    0 -0.19974157611E+02 -0.18183294207E+02  0.30390235453E+02  0.50528861158E+02  0.30000003976E+02 0.  0.
         12    1    1    2    0    0  0.19974157611E+02  0.18183294207E+02 -0.30390235453E+02  0.40659138842E+02  0.00000000000E+00 0. -1.
         11    1    3    3    0    0 -0.67661465684E+01 -0.31521962024E+01 -0.38313789496E+01  0.83902649065E+01  0.51100000000E-03 0.  1.
        -11    1    3    3    0    0 -0.24084578976E+00 -0.13420532209E+01 -0.13245689786E+01  0.19009462860E+01  0.51100000000E-03 0. -1.
        -12    1    3    3    0    0 -0.12967165253E+02 -0.13689044784E+02  0.35546183381E+02  0.40237649965E+02  0.00000000000E+00 0.  1.
</event>
<event>
 7    1  0.6245487E-013  0.5052886E+02  0.7816164E-02  0.1300439E+00
        -11   -1    0    0    0    0  0.00000000000E+00  0.00000000000E+00  0.45593999997E+02  0.45594000000E+02  0.51100000000E-03 0.  1.
         11   -1    0    0    0    0 -0.00000000000E+00 -0.00000000000E+00 -0.45593999997E+02  0.45594000000E+02  0.51100000000E-03 0. -1.
    9900012    2    1    2    0    0  0.32007528221E+02 -0.18977326522E+02  0.16387334631E+02  0.50528861776E+02  0.30000005856E+02 0.  0.
         12    1    1    2    0    0 -0.32007528221E+02  0.18977326522E+02 -0.16387334631E+02  0.40659138224E+02  0.00000000000E+00 0. -1.
         11    1    3    3    0    0  0.30033482199E+02 -0.14224876694E+02  0.24534765814E+00  0.33232775474E+02  0.51100000000E-03 0. -1.
        -11    1    3    3    0    0 -0.83396798676E+00 -0.74772295608E+00  0.50640394452E+01  0.51864330696E+01  0.51100000000E-03 0.  1.
        -12    1    3    3    0    0  0.28080140088E+01 -0.40047268719E+01  0.11077947527E+02  0.12109653232E+02  0.00000000000E+00 0.  1.
</event>
<event>
 7    1  0.6245487E-013  0.5052887E+02  0.7816164E-02  0.1300439E+00
        -11   -1    0    0    0    0  0.00000000000E+00  0.00000000000E+00  0.45593999997E+02  0.45594000000E+02  0.51100000000E-03 0. -1.
         11   -1    0    0    0    0 -0.00000000000E+00 -0.00000000000E+00 -0.45593999997E+02  0.45594000000E+02  0.51100000000E-03 0.  1.
    9900012    2    1    2    0    0  0.30333669738E+02 -0.89130177361E+01 -0.25565436869E+02  0.50528868587E+02  0.30000026557E+02 0.  0.
         12    1    1    2    0    0 -0.30333669738E+02  0.89130177361E+01  0.25565436869E+02  0.40659131413E+02  0.00000000000E+00 0. -1.
         11    1    3    3    0    0  0.36953635077E+00  0.14675574304E+01 -0.24520267782E+00  0.15331035648E+01  0.51100000000E-03 0. -1.
        -11    1    3    3    0    0  0.33937442707E+02 -0.52201434129E+01 -0.25002824738E+02  0.42475182871E+02  0.51100000000E-03 0.  1.
         12    1    3    3    0    0 -0.39733093196E+01 -0.51604317536E+01 -0.31740945353E+00  0.65205821514E+01  0.00000000000E+00 0. -1.
</event>
<event>
 7    1  0.6245487E-013  0.5052886E+02  0.7816164E-02  0.1300439E+00
        -11   -1    0    0    0    0  0.00000000000E+00  0.00000000000E+00  0.45593999997E+02  0.45594000000E+02  0.51100000000E-03 0. -1.
         11   -1    0    0    0    0 -0.00000000000E+00 -0.00000000000E+00 -0.45593999997E+02  0.45594000000E+02  0.51100000000E-03 0.  1.
    9900012    2    1    2    0    0 -0.28484882304E+01  0.75256017774E+01 -0.39854955329E+02  0.50528855498E+02  0.29999986773E+02 0.  0.
         12    1    1    2    0    0  0.28484882304E+01 -0.75256017774E+01  0.39854955329E+02  0.40659144502E+02  0.00000000000E+00 0. -1.
         11    1    3    3    0    0  0.70104306216E+01  0.34305611235E+01 -0.48681706077E+01  0.91985853505E+01  0.51100000000E-03 0. -1.
        -11    1    3    3    0    0  0.24055893298E+01  0.16428385603E+01 -0.25413057967E+02  0.25579470167E+02  0.51100000000E-03 0.  1.
         12    1    3    3    0    0 -0.12264508182E+02  0.24522020936E+01 -0.95737267549E+01  0.15750799981E+02  0.00000000000E+00 0. -1.
</event>
<event>
 7    1  0.6245487E-013  0.5052886E+02  0.7816164E-02  0.1300439E+00
        -11   -1    0    0    0    0  0.00000000000E+00  0.00000000000E+00  0.45593999997E+02  0.45594000000E+02  0.51100000000E-03 0. -1.
         11   -1    0    0    0    0 -0.00000000000E+00 -0.00000000000E+00 -0.45593999997E+02  0.45594000000E+02  0.51100000000E-03 0.  1.
    9900012    2    1    2    0    0 -0.40416613172E+01 -0.29340283941E+02 -0.27856393270E+02  0.50528856699E+02  0.29999990422E+02 0.  0.
         12    1    1    2    0    0  0.40416613172E+01  0.29340283941E+02  0.27856393270E+02  0.40659143301E+02  0.00000000000E+00 0. -1.
         11    1    3    3    0    0  0.23507247259E+01 -0.26824635758E+00 -0.33019342818E+01  0.40620971318E+01  0.51100000000E-03 0. -1.
        -11    1    3    3    0    0  0.13403273709E+01 -0.17148265387E+02  0.99650052415E+00  0.17229407906E+02  0.51100000000E-03 0.  1.
        -12    1    3    3    0    0 -0.77327134140E+01 -0.11923772197E+02 -0.25550959512E+02  0.29237351661E+02  0.00000000000E+00 0.  1.
</event>
<event>
 7    1  0.6245487E-013  0.5052887E+02  0.7816164E-02  0.1300439E+00
        -11   -1    0    0    0    0  0.00000000000E+00  0.00000000000E+00  0.45593999997E+02  0.45594000000E+02  0.51100000000E-03 0.  1.
         11   -1    0    0    0    0 -0.00000000000E+00 -0.00000000000E+00 -0.45593999997E+02  0.45594000000E+02  0.51100000000E-03 0. -1.
    9900012    2    1    2    0    0 -0.35857168543E+02 -0.26258966896E+01 -0.18987706652E+02  0.50528869743E+02  0.30000030071E+02 0.  0.
         12    1    1    2    0    0  0.35857168543E+02  0.26258966896E+01  0.18987706652E+02  0.40659130257E+02  0.00000000000E+00 0. -1.
         11    1    3    3    0    0 -0.94802089399E+01  0.44877008576E+01 -0.12611596467E+02  0.16403237066E+02  0.51100000000E-03 0. -1.
        -11    1    3    3    0    0 -0.13285514152E+02  0.63666931684E+01 -0.26503752692E+01  0.14968772746E+02  0.51100000000E-03 0.  1.
        -12    1    3    3    0    0 -0.13091445451E+02 -0.13480290716E+02 -0.37257349154E+01  0.19156859931E+02  0.00000000000E+00 0.  1.
</event>
<event>
 7    1  0.6245487E-013  0.5052886E+02  0.7816164E-02  0.1300439E+00
        -11   -1    0    0    0    0  0.00000000000E+00  0.00000000000E+00  0.45593999997E+02  0.45594000000E+02  0.51100000000E-03 0. -1.
         11   -1    0    0    0    0 -0.00000000000E+00 -0.00000000000E+00 -0.45593999997E+02  0.45594000000E+02  0.51100000000E-03 0.  1.
    9900012    2    1    2    0    0 -0.40644197717E+02  0.29718154794E+00  0.10612437399E+01  0.50528863718E+02  0.30000011758E+02 0.  0.
         12    1    1    2    0    0  0.40644197717E+02 -0.29718154794E+00 -0.10612437399E+01  0.40659136282E+02  0.00000000000E+00 0. -1.
         11    1    3    3    0    0 -0.19749307852E+02 -0.11897891135E+02 -0.44817845707E+01  0.23487898316E+02  0.51100000000E-03 0.  1.
        -11    1    3    3    0    0 -0.93986213261E+01  0.16234644368E+01  0.62563467064E+01  0.11406646921E+02  0.51100000000E-03 0. -1.
        -12    1    3    3    0    0 -0.11496268538E+02  0.10571608247E+02 -0.71331839581E+00  0.15634318481E+02  0.00000000000E+00 0.  1.
</event>
<event>
 7    1  0.6245487E-013  0.5052874E+02  0.7816164E-02  0.1300439E+00
        -11   -1    0    0    0    0  0.00000000000E+00  0.00000000000E+00  0.45593999997E+02  0.45594000000E+02  0.51100000000E-03 0.  1.
         11   -1    0    0    0    0 -0.00000000000E+00 -0.00000000000E+00 -0.45593999997E+02  0.45594000000E+02  0.51100000000E-03 0. -1.
    9900012    2    1    2    0    0 -0.26854770137E+02 -0.93596055259E+01  0.29058472371E+02  0.50528736465E+02  0.29999624956E+02 0.  0.
         12    1    1    2    0    0  0.26854770137E+02  0.93596055259E+01 -0.29058472371E+02  0.40659263535E+02  0.00000000000E+00 0. -1.
         11    1    3    3    0    0  0.11000224142E+01  0.10030760813E+01 -0.33609210925E+01  0.36758674878E+01  0.51100000000E-03 0. -1.
        -11    1    3    3    0    0 -0.88815006753E+01 -0.69768137005E+01  0.30997213329E+01  0.11711757181E+02  0.51100000000E-03 0.  1.
        -12    1    3    3    0    0 -0.19073291876E+02 -0.33858679067E+01  0.29319672130E+02  0.35141111796E+02  0.00000000000E+00 0.  1.
</event>
<event>
 7    1  0.6245487E-013  0.5052886E+02  0.7816164E-02  0.1300439E+00
        -11   -1    0    0    0    0  0.00000000000E+00  0.00000000000E+00  0.45593999997E+02  0.45594000000E+02  0.51100000000E-03 0.  1.
         11   -1    0    0    0    0 -0.00000000000E+00 -0.00000000000E+00 -0.45593999997E+02  0.45594000000E+02  0.51100000000E-03 0. -1.
    9900012    2    1    2    0    0 -0.21176332635E+01 -0.11378655573E+02  0.38977009839E+02  0.50528862414E+02  0.30000007792E+02 0.  0.
         12    1    1    2    0    0  0.21176332635E+01  0.11378655573E+02 -0.38977009839E+02  0.40659137586E+02  0.00000000000E+00 0. -1.
         11    1    3    3    0    0 -0.88808791711E+01  0.28064545987E+01  0.12172449205E+02  0.15326928008E+02  0.51100000000E-03 0.  1.
        -11    1    3    3    0    0  0.55908616836E+01 -0.93377313601E+00  0.45735651574E+00  0.56867250574E+01  0.51100000000E-03 0. -1.
         12    1    3    3    0    0  0.11723842240E+01 -0.13251337035E+02  0.26347204119E+02  0.29515209348E+02  0.00000000000E+00 0. -1.
</event>
<event>
 7    1  0.6245487E-013  0.5052886E+02  0.7816164E-02  0.1300439E+00
        -11   -1    0    0    0    0  0.00000000000E+00  0.00000000000E+00  0.45593999997E+02  0.45594000000E+02  0.51100000000E-03 0. -1.
         11   -1    0    0    0    0 -0.00000000000E+00 -0.00000000000E+00 -0.45593999997E+02  0.45594000000E+02  0.51100000000E-03 0.  1.
    9900012    2    1    2    0    0 -0.34271361094E+02 -0.15033777622E+02 -0.15894190654E+02  0.50528856412E+02  0.29999989549E+02 0.  0.
         12    1    1    2    0    0  0.34271361094E+02  0.15033777622E+02  0.15894190654E+02  0.40659143588E+02  0.00000000000E+00 0. -1.
         11    1    3    3    0    0 -0.52098388990E+01 -0.11959572169E+02 -0.14556675863E+01  0.13126033529E+02  0.51100000000E-03 0. -1.
        -11    1    3    3    0    0 -0.16976601538E+02 -0.90819751678E+01 -0.14167748314E+02  0.23904233209E+02  0.51100000000E-03 0.  1.
        -12    1    3    3    0    0 -0.12084920656E+02  0.60077697150E+01 -0.27077475340E+00  0.13498589674E+02  0.00000000000E+00 0.  1.
</event>
<event>
 7    1  0.6245487E-013  0.5052886E+02  0.7816164E-02  0.1300439E+00
        -11   -1    0    0    0    0  0.00000000000E+00  0.00000000000E+00  0.45593999997E+02  0.45594000000E+02  0.51100000000E-03 0. -1.
         11   -1    0    0    0    0 -0.00000000000E+00 -0.00000000000E+00 -0.45593999997E+02  0.45594000000E+02  0.51100000000E-03 0.  1.
    9900012    2    1    2    0    0 -0.32335650734E+01 -0.15388125500E+02 -0.37495538198E+02  0.50528859155E+02  0.29999997889E+02 0.  0.
         12    1    1    2    0    0  0.32335650734E+01  0.15388125500E+02  0.37495538198E+02  0.40659140845E+02  0.00000000000E+00 0. -1.
         11    1    3    3    0    0 -0.29847213146E+01  0.44353363357E+01 -0.10799154028E+02  0.12049999905E+02  0.51100000000E-03 0. -1.
        -11    1    3    3    0    0  0.12625694951E+01  0.37877431172E+01 -0.47815702654E+01  0.62293253339E+01  0.51100000000E-03 0.  1.
         12    1    3    3    0    0 -0.15114132540E+01 -0.23611204953E+02 -0.21914813905E+02  0.32249533916E+02  0.00000000000E+00 0. -1.
</event>
<event>
 7    1  0.6245487E-013  0.5052880E+02  0.7816164E-02  0.1300439E+00
        -11   -1    0    0    0    0  0.00000000000E+00  0.00000000000E+00  0.45593999997E+02  0.45594000000E+02  0.51100000000E-03 0.  1.
         11   -1    0    0    0    0 -0.00000000000E+00 -0.00000000000E+00 -0.45593999997E+02  0.45594000000E+02  0.51100000000E-03 0. -1.
    9900012    2    1    2    0    0 -0.14342464691E+02 -0.27296891180E+01  0.37947508406E+02  0.50528795749E+02  0.29999805158E+02 0.  0.
         12    1    1    2    0    0  0.14342464691E+02  0.27296891180E+01 -0.37947508406E+02  0.40659204251E+02  0.00000000000E+00 0. -1.
         11    1    3    3    0    0 -0.77876280766E+01 -0.84014632479E+01  0.60719597422E+01  0.12965355033E+02  0.51100000000E-03 0. -1.
        -11    1    3    3    0    0 -0.12210998705E+02  0.79655341913E+00  0.22105958891E+02  0.25266903361E+02  0.51100000000E-03 0.  1.
         12    1    3    3    0    0  0.56561620911E+01  0.48752207108E+01  0.97695897730E+01  0.12296537355E+02  0.00000000000E+00 0. -1.
</event>
<event>
 7    1  0.6245487E-013  0.5052885E+02  0.7816164E-02  0.1300439E+00
        -11   -1    0    0    0    0  0.00000000000E+00  0.00000000000E+00  0.45593999997E+02  0.45594000000E+02  0.51100000000E-03 0. -1.
         11   -1    0    0    0    0 -0.00000000000E+00 -0.00000000000E+00 -0.45593999997E+02  0.45594000000E+02  0.51100000000E-03 0.  1.
    9900012    2    1    2    0    0  0.13343509175E+02  0.36754899798E+02 -0.11144262733E+02  0.50528849885E+02  0.29999969709E+02 0.  0.
         12    1    1    2    0    0 -0.13343509175E+02 -0.36754899798E+02  0.11144262733E+02  0.40659150115E+02  0.00000000000E+00 0. -1.
         11    1    3    3    0    0  0.96220839738E+01  0.64661604155E+01 -0.31103678404E+01  0.12002921264E+02  0.51100000000E-03 0. -1.
        -11    1    3    3    0    0  0.27063222098E+01  0.33821256708E+02 -0.79557995011E+01  0.34849624548E+02  0.51100000000E-03 0.  1.
         12    1    3    3    0    0  0.10151029911E+01 -0.35325173255E+01 -0.78095391297E-01  0.36763040717E+01  0.00000000000E+00 0. -1.
</event>
<event>
 7    1  0.6245487E-013  0.5052886E+02  0.7816164E-02  0.1300439E+00
        -11   -1    0    0    0    0  0.00000000000E+00  0.00000000000E+00  0.45593999997E+02  0.45594000000E+02  0.51100000000E-03 0.  1.
         11   -1    0    0    0    0 -0.00000000000E+00 -0.00000000000E+00 -0.45593999997E+02  0.45594000000E+02  0.51100000000E-03 0. -1.
    9900012    2    1    2    0    0  0.16021812259E+02  0.23847127221E+02  0.28771197504E+02  0.50528858955E+02  0.29999997278E+02 0.  0.
         12    1    1    2    0    0 -0.16021812259E+02 -0.23847127221E+02 -0.28771197504E+02  0.40659141045E+02  0.00000000000E+00 0. -1.
         11    1    3    3    0    0  0.11142921991E+02  0.10985293944E+02  0.90084119434E+01  0.18055272902E+02  0.51100000000E-03 0. -1.
        -11    1    3    3    0    0  0.38373795082E+01  0.18156416970E+02  0.19718061131E+02  0.27077350197E+02  0.51100000000E-03 0.  1.
         12    1    3    3    0    0  0.10415107593E+01 -0.52945836927E+01  0.44724429637E-01  0.53962358562E+01  0.00000000000E+00 0. -1.
</event>
<event>
 7    1  0.6245487E-013  0.5052884E+02  0.7816164E-02  0.1300439E+00
        -11   -1    0    0    0    0  0.00000000000E+00  0.00000000000E+00  0.45593999997E+02  0.45594000000E+02  0.51100000000E-03 0.  1.
         11   -1    0    0    0    0 -0.00000000000E+00 -0.00000000000E+00 -0.45593999997E+02  0.45594000000E+02  0.51100000000E-03 0. -1.
    9900012    2    1    2    0    0 -0.36908677251E+02 -0.88037681263E+01  0.14608566457E+02  0.50528843546E+02  0.29999950441E+02 0.  0.
         12    1    1    2    0    0  0.36908677251E+02  0.88037681263E+01 -0.14608566457E+02  0.40659156454E+02  0.00000000000E+00 0. -1.
         11    1    3    3    0    0 -0.11069034240E+00 -0.12924943851E+01  0.93407535453E+01  0.94304014306E+01  0.51100000000E-03 0. -1.
        -11    1    3    3    0    0 -0.11169400616E+02 -0.79866491890E+01  0.69896120377E+01  0.15407684839E+02  0.51100000000E-03 0.  1.
         12    1    3    3    0    0 -0.25628586293E+02  0.47537544779E+00 -0.17217991264E+01  0.25690757276E+02  0.00000000000E+00 0. -1.
</event>
<event>
 7    1  0.6245487E-013  0.5052885E+02  0.7816164E-02  0.1300439E+00
        -11   -1    0    0    0    0  0.00000000000E+00  0.00000000000E+00  0.45593999997E+02  0.45594000000E+02  0.51100000000E-03 0. -1.
         11   -1    0    0    0    0 -0.00000000000E+00 -0.00000000000E+00 -0.45593999997E+02  0.45594000000E+02  0.51100000000E-03 0.  1.
    9900012    2    1    2    0    0  0.45512390287E+01  0.66793860914E+01 -0.39847686748E+02  0.50528854480E+02  0.29999983677E+02 0.  0.
         12    1    1    2    0    0 -0.45512390287E+01 -0.66793860914E+01  0.39847686748E+02  0.40659145520E+02  0.00000000000E+00 0. -1.
         11    1    3    3    0    0  0.80236980215E+01  0.33663227656E+00  0.41252847436E-01  0.80308625495E+01  0.51100000000E-03 0. -1.
        -11    1    3    3    0    0 -0.31518359736E+01 -0.19279717232E+01 -0.32026424038E+01  0.48895872625E+01  0.51100000000E-03 0.  1.
        -12    1    3    3    0    0 -0.32062301913E+00  0.82707255380E+01 -0.36686297192E+02  0.37608404668E+02  0.00000000000E+00 0.  1.
</event>
<event>
 7    1  0.6245487E-013  0.5052886E+02  0.7816164E-02  0.1300439E+00
        -11   -1    0    0    0    0  0.00000000000E+00  0.00000000000E+00  0.45593999997E+02  0.45594000000E+02  0.51100000000E-03 0.  1.
         11   -1    0    0    0    0 -0.00000000000E+00 -0.00000000000E+00 -0.45593999997E+02  0.45594000000E+02  0.51100000000E-03 0. -1.
    9900012    2    1    2    0    0 -0.32660650198E+02  0.38991969231E+01  0.23900708625E+02  0.50528859813E+02  0.29999999886E+02 0.  0.
         12    1    1    2    0    0  0.32660650198E+02 -0.38991969231E+01 -0.23900708625E+02  0.40659140187E+02  0.00000000000E+00 0. -1.
         11    1    3    3    0    0 -0.10735449346E+02 -0.44478931478E+01  0.12730085187E+02  0.17236261058E+02  0.51100000000E-03 0.  1.
        -11    1    3    3    0    0 -0.25596870710E+02  0.44049298894E+01  0.94037086097E+01  0.27623050761E+02  0.51100000000E-03 0. -1.
         12    1    3    3    0    0  0.36716698581E+01  0.39421601816E+01  0.17669148283E+01  0.56695479938E+01  0.00000000000E+00 0. -1.
</event>
<event>
 7    1  0.6245487E-013  0.5052886E+02  0.7816164E-02  0.1300439E+00
        -11   -1    0    0    0    0  0.00000000000E+00  0.00000000000E+00  0.45593999997E+02  0.45594000000E+02  0.51100000000E-03 0. -1.
         11   -1    0    0    0    0 -0.00000000000E+00 -0.00000000000E+00 -0.45593999997E+02  0.45594000000E+02  0.51100000000E-03 0.  1.
    9900012    2    1    2    0    0  0.12472646722E+02  0.34462626995E+02  0.17604717913E+02  0.50528859965E+02  0.30000000348E+02 0.  0.
         12    1    1    2    0    0 -0.12472646722E+02 -0.34462626995E+02 -0.17604717913E+02  0.40659140035E+02  0.00000000000E+00 0. -1.
         11    1    3    3    0    0  0.12770277633E+02  0.17070352662E+02  0.12589584243E+02  0.24758323096E+02  0.51100000000E-03 0. -1.
        -11    1    3    3    0    0  0.24432659280E+01 -0.33328497671E+01  0.21840483049E+01  0.46741312801E+01  0.51100000000E-03 0.  1.
        -12    1    3    3    0    0 -0.27408968391E+01  0.20725124100E+02  0.28310853652E+01  0.21096405589E+02  0.00000000000E+00 0.  1.
</event>
<event>
 7    1  0.6245487E-013  0.5052885E+02  0.7816164E-02  0.1300439E+00
        -11   -1    0    0    0    0  0.00000000000E+00  0.00000000000E+00  0.45593999997E+02  0.45594000000E+02  0.51100000000E-03 0. -1.
         11   -1    0    0    0    0 -0.00000000000E+00 -0.00000000000E+00 -0.45593999997E+02  0.45594000000E+02  0.51100000000E-03 0.  1.
    9900012    2    1    2    0    0  0.40246476458E+02  0.43143697431E+01  0.38436236537E+01  0.50528854702E+02  0.29999984351E+02 0.  0.
         12    1    1    2    0    0 -0.40246476458E+02 -0.43143697431E+01 -0.38436236537E+01  0.40659145298E+02  0.00000000000E+00 0. -1.
         11    1    3    3    0    0  0.20968811059E+01  0.37050392160E+01  0.96929010684E+00  0.43662053933E+01  0.51100000000E-03 0. -1.
        -11    1    3    3    0    0  0.11564545519E+02 -0.66547996472E+01  0.11149120826E+02  0.17387580822E+02  0.51100000000E-03 0.  1.
        -12    1    3    3    0    0  0.26585049834E+02  0.72641301743E+01 -0.82747872792E+01  0.28775068486E+02  0.00000000000E+00 0.  1.
</event>
<event>
 7    1  0.6245487E-013  0.5052886E+02  0.7816164E-02  0.1300439E+00
        -11   -1    0    0    0    0  0.00000000000E+00  0.00000000000E+00  0.45593999997E+02  0.45594000000E+02  0.51100000000E-03 0. -1.
         11   -1    0    0    0    0 -0.00000000000E+00 -0.00000000000E+00 -0.45593999997E+02  0.45594000000E+02  0.51100000000E-03 0.  1.
    9900012    2    1    2    0    0 -0.16284461883E+02  0.26875726332E+02 -0.25800724288E+02  0.50528859103E+02  0.29999997729E+02 0.  0.
         12    1    1    2    0    0  0.16284461883E+02 -0.26875726332E+02  0.25800724288E+02  0.40659140897E+02  0.00000000000E+00 0. -1.
         11    1    3    3    0    0 -0.23623321761E+01  0.14118758751E+01  0.34876389538E+01  0.44427055417E+01  0.51100000000E-03 0. -1.
        -11    1    3    3    0    0  0.11598999135E+01  0.17345636747E+02 -0.91378436673E+01  0.19639670800E+02  0.51100000000E-03 0.  1.
        -12    1    3    3    0    0 -0.15082029621E+02  0.81182137096E+01 -0.20150519575E+02  0.26446482761E+02  0.00000000000E+00 0.  1.
</event>
<event>
 7    1  0.6245487E-013  0.5052884E+02  0.7816164E-02  0.1300439E+00
        -11   -1    0    0    0    0  0.00000000000E+00  0.00000000000E+00  0.45593999997E+02  0.45594000000E+02  0.51100000000E-03 0.  1.
         11   -1    0    0    0    0 -0.00000000000E+00 -0.00000000000E+00 -0.45593999997E+02  0.45594000000E+02  0.51100000000E-03 0. -1.
    9900012    2    1    2    0    0 -0.10316217802E+02  0.32184512011E+02  0.22603094739E+02  0.50528842915E+02  0.29999948524E+02 0.  0.
         12    1    1    2    0    0  0.10316217802E+02 -0.32184512011E+02 -0.22603094739E+02  0.40659157085E+02  0.00000000000E+00 0. -1.
         11    1    3    3    0    0  0.13047865061E+01  0.46920969145E+01 -0.63808984011E+01  0.80270857693E+01  0.51100000000E-03 0. -1.
        -11    1    3    3    0    0 -0.27087983658E+01  0.93599169131E+00  0.42899342852E+01  0.51591865120E+01  0.51100000000E-03 0.  1.
        -12    1    3    3    0    0 -0.89122059424E+01  0.26556423405E+02  0.24694058855E+02  0.37342570634E+02  0.00000000000E+00 0.  1.
</event>
<event>
 7    1  0.6245487E-013  0.5052885E+02  0.7816164E-02  0.1300439E+00
        -11   -1    0    0    0    0  0.00000000000E+00  0.00000000000E+00  0.45593999997E+02  0.45594000000E+02  0.51100000000E-03 0.  1.
         11   -1    0    0    0    0 -0.00000000000E+00 -0.00000000000E+00 -0.45593999997E+02  0.45594000000E+02  0.51100000000E-03 0. -1.
    9900012    2    1    2    0    0 -0.37848553980E+02 -0.13838631094E+02 -0.53986476005E+01  0.50528854106E+02  0.29999982540E+02 0.  0.
         12    1    1    2    0    0  0.37848553980E+02  0.13838631094E+02  0.53986476005E+01  0.40659145894E+02  0.00000000000E+00 0. -1.
         11    1    3    3    0    0 -0.87505702373E+01 -0.51538451605E+01 -0.71494842453E+01  0.12419731263E+02  0.51100000000E-03 0. -1.
        -11    1    3    3    0    0 -0.31909238506E+02 -0.11373842209E+02  0.30374582452E+01  0.34011614802E+02  0.51100000000E-03 0.  1.
         12    1    3    3    0    0  0.28112547630E+01  0.26890562760E+01 -0.12866216003E+01  0.40975080403E+01  0.00000000000E+00 0. -1.
</event>
<event>
 7    1  0.6245487E-013  0.5052886E+02  0.7816164E-02  0.1300439E+00
        -11   -1    0    0    0    0  0.00000000000E+00  0.00000000000E+00  0.45593999997E+02  0.45594000000E+02  0.51100000000E-03 0.  1.
         11   -1    0    0    0    0 -0.00000000000E+00 -0.00000000000E+00 -0.45593999997E+02  0.45594000000E+02  0.51100000000E-03 0. -1.
    9900012    2    1    2    0    0 -0.29573897907E+02 -0.16850984876E+02  0.22239489663E+02  0.50528855529E+02  0.29999986866E+02 0.  0.
         12    1    1    2    0    0  0.29573897907E+02  0.16850984876E+02 -0.22239489663E+02  0.40659144471E+02  0.00000000000E+00 0. -1.
         11    1    3    3    0    0  0.33340704130E+01 -0.99535433694E+00  0.28393733591E+01  0.44909683932E+01  0.51100000000E-03 0. -1.
        -11    1    3    3    0    0 -0.25522955988E+02 -0.35159750818E+01  0.61595878454E+01  0.26490071458E+02  0.51100000000E-03 0.  1.
         12    1    3    3    0    0 -0.73850123312E+01 -0.12339655457E+02  0.13240528458E+02  0.19547815678E+02  0.00000000000E+00 0. -1.
</event>
<event>
 7    1  0.7077483E-013  0.5052885E+02  0.7816164E-02  0.1300439E+00
        -11   -1    0    0    0    0  0.00000000000E+00  0.00000000000E+00  0.45593999997E+02  0.45594000000E+02  0.51100000000E-03 0.  1.
         11   -1    0    0    0    0 -0.00000000000E+00 -0.00000000000E+00 -0.45593999997E+02  0.45594000000E+02  0.51100000000E-03 0. -1.
    9900012    2    1    2    0    0  0.29645036543E+02  0.26814471591E+02 -0.74379097329E+01  0.50528848760E+02  0.29999966291E+02 0.  0.
         12    1    1    2    0    0 -0.29645036543E+02 -0.26814471591E+02  0.74379097329E+01  0.40659151240E+02  0.00000000000E+00 0. -1.
         11    1    3    3    0    0 -0.18007677423E+01 -0.83971464032E+00 -0.22782090241E+01  0.30229326419E+01  0.51100000000E-03 0. -1.
        -11    1    3    3    0    0  0.21934825296E+02  0.62868260812E+01  0.23565017698E+01  0.22939351425E+02  0.51100000000E-03 0.  1.
        -12    1    3    3    0    0  0.95109789898E+01  0.21367360150E+02 -0.75162024786E+01  0.24566564693E+02  0.00000000000E+00 0.  1.
</event>
<event>
 7    1  0.6245487E-013  0.5052887E+02  0.7816164E-02  0.1300439E+00
        -11   -1    0    0    0    0  0.00000000000E+00  0.00000000000E+00  0.45593999997E+02  0.45594000000E+02  0.51100000000E-03 0. -1.
         11   -1    0    0    0    0 -0.00000000000E+00 -0.00000000000E+00 -0.45593999997E+02  0.45594000000E+02  0.51100000000E-03 0.  1.
    9900012    2    1    2    0    0 -0.29584254854E+02  0.17477226405E+02 -0.21736689632E+02  0.50528865058E+02  0.30000015830E+02 0.  0.
         12    1    1    2    0    0  0.29584254854E+02 -0.17477226405E+02  0.21736689632E+02  0.40659134942E+02  0.00000000000E+00 0. -1.
         11    1    3    3    0    0 -0.14814473017E+01  0.28056540541E+01  0.56618171928E+01  0.64901891317E+01  0.51100000000E-03 0. -1.
        -11    1    3    3    0    0 -0.57270289069E+00  0.47469121206E+01 -0.65402814242E+01  0.81016322214E+01  0.51100000000E-03 0.  1.
        -12    1    3    3    0    0 -0.27530104662E+02  0.99246602306E+01 -0.20858225401E+02  0.35937043705E+02  0.00000000000E+00 0.  1.
</event>
<event>
 7    1  0.6245487E-013  0.5052887E+02  0.7816164E-02  0.1300439E+00
        -11   -1    0    0    0    0  0.00000000000E+00  0.00000000000E+00  0.45593999997E+02  0.45594000000E+02  0.51100000000E-03 0.  1.
         11   -1    0    0    0    0 -0.00000000000E+00 -0.00000000000E+00 -0.45593999997E+02  0.45594000000E+02  0.51100000000E-03 0. -1.
    9900012    2    1    2    0    0  0.13457224630E+02 -0.31124469432E+02  0.22435140360E+02  0.50528867998E+02  0.30000024767E+02 0.  0.
         12    1    1    2    0    0 -0.13457224630E+02  0.31124469432E+02 -0.22435140360E+02  0.40659132002E+02  0.00000000000E+00 0. -1.
         11    1    3    3    0    0  0.50624717111E+01  0.50752975440E+00  0.13174852134E+02  0.14123134754E+02  0.51100000000E-03 0.  1.
        -11    1    3    3    0    0  0.26220171994E+01 -0.10255675433E+01 -0.18142456450E+01  0.33493656864E+01  0.51100000000E-03 0. -1.
        -12    1    3    3    0    0  0.57727357199E+01 -0.30606431643E+02  0.11074533871E+02  0.33056367557E+02  0.00000000000E+00 0.  1.
</event>
<event>
 7    1  0.6245487E-013  0.5052885E+02  0.7816164E-02  0.1300439E+00
        -11   -1    0    0    0    0  0.00000000000E+00  0.00000000000E+00  0.45593999997E+02  0.45594000000E+02  0.51100000000E-03 0.  1.
         11   -1    0    0    0    0 -0.00000000000E+00 -0.00000000000E+00 -0.45593999997E+02  0.45594000000E+02  0.51100000000E-03 0. -1.
    9900012    2    1    2    0    0 -0.38461863083E+00 -0.22934127470E+02  0.33571475278E+02  0.50528854821E+02  0.29999984715E+02 0.  0.
         12    1    1    2    0    0  0.38461863083E+00  0.22934127470E+02 -0.33571475278E+02  0.40659145179E+02  0.00000000000E+00 0. -1.
         11    1    3    3    0    0  0.24605731136E+01 -0.22235679844E+01  0.69459407773E+01  0.76970623079E+01  0.51100000000E-03 0. -1.
        -11    1    3    3    0    0 -0.29839742611E+01 -0.26886581755E+02  0.23831223246E+02  0.36051623854E+02  0.51100000000E-03 0.  1.
         12    1    3    3    0    0  0.13878251665E+00  0.61760222697E+01  0.27943112555E+01  0.67801686598E+01  0.00000000000E+00 0. -1.
</event>
<event>
 7    1  0.6245487E-013  0.5052885E+02  0.7816164E-02  0.1300439E+00
        -11   -1    0    0    0    0  0.00000000000E+00  0.00000000000E+00  0.45593999997E+02  0.45594000000E+02  0.51100000000E-03 0.  1.
         11   -1    0    0    0    0 -0.00000000000E+00 -0.00000000000E+00 -0.45593999997E+02  0.45594000000E+02  0.51100000000E-03 0. -1.
    9900012    2    1    2    0    0 -0.27491533311E+02  0.26991804672E+02  0.12993263684E+02  0.50528845749E+02  0.29999957139E+02 0.  0.
         12    1    1    2    0    0  0.27491533311E+02 -0.26991804672E+02 -0.12993263684E+02  0.40659154251E+02  0.00000000000E+00 0. -1.
         11    1    3    3    0    0 -0.97457818088E+01  0.22835585137E+02  0.73264865572E+01  0.25886707344E+02  0.51100000000E-03 0. -1.
        -11    1    3    3    0    0 -0.63464606386E+01 -0.16747872768E+01  0.92536386101E+01  0.11345144461E+02  0.51100000000E-03 0.  1.
        -12    1    3    3    0    0 -0.11399290864E+02  0.58310068118E+01 -0.35868614836E+01  0.13296993944E+02  0.00000000000E+00 0.  1.
</event>
<event>
 7    1  0.6245487E-013  0.5052886E+02  0.7816164E-02  0.1300439E+00
        -11   -1    0    0    0    0  0.00000000000E+00  0.00000000000E+00  0.45593999997E+02  0.45594000000E+02  0.51100000000E-03 0.  1.
         11   -1    0    0    0    0 -0.00000000000E+00 -0.00000000000E+00 -0.45593999997E+02  0.45594000000E+02  0.51100000000E-03 0. -1.
    9900012    2    1    2    0    0 -0.24224764540E+02 -0.26514946685E+02  0.19060008833E+02  0.50528861403E+02  0.30000004720E+02 0.  0.
         12    1    1    2    0    0  0.24224764540E+02  0.26514946685E+02 -0.19060008833E+02  0.40659138597E+02  0.00000000000E+00 0. -1.
         11    1    3    3    0    0  0.21107751741E+01 -0.10709881971E+02 -0.69151355066E+00  0.10937784736E+02  0.51100000000E-03 0. -1.
        -11    1    3    3    0    0 -0.17165751266E+02 -0.17121616886E+02  0.17918309260E+02  0.30147613311E+02  0.51100000000E-03 0.  1.
        -12    1    3    3    0    0 -0.91697884480E+01  0.13165521721E+01  0.18332131238E+01  0.94434633563E+01  0.00000000000E+00 0.  1.
</event>
<event>
 7    1  0.6245487E-013  0.5052886E+02  0.7816164E-02  0.1300439E+00
        -11   -1    0    0    0    0  0.00000000000E+00  0.00000000000E+00  0.45593999997E+02  0.45594000000E+02  0.51100000000E-03 0.  1.
         11   -1    0    0    0    0 -0.00000000000E+00 -0.00000000000E+00 -0.45593999997E+02  0.45594000000E+02  0.51100000000E-03 0. -1.
    9900012    2    1    2    0    0 -0.37826567592E+02  0.40185935950E+01  0.14358517441E+02  0.50528864085E+02  0.30000012873E+02 0.  0.
         12    1    1    2    0    0  0.37826567592E+02 -0.40185935950E+01 -0.14358517441E+02  0.40659135915E+02  0.00000000000E+00 0. -1.
         11    1    3    3    0    0 -0.20170627774E+02  0.71639568137E+00 -0.27108750864E+01  0.20364584247E+02  0.51100000000E-03 0. -1.
        -11    1    3    3    0    0 -0.33484049538E+01  0.65253374750E+01 -0.41165976514E+00  0.73458361621E+01  0.51100000000E-03 0.  1.
        -12    1    3    3    0    0 -0.14307534864E+02 -0.32231395614E+01  0.17481052293E+02  0.22818443675E+02  0.00000000000E+00 0.  1.
</event>
<event>
 7    1  0.6245487E-013  0.5052895E+02  0.7816164E-02  0.1300438E+00
        -11   -1    0    0    0    0  0.00000000000E+00  0.00000000000E+00  0.45593999997E+02  0.45594000000E+02  0.51100000000E-03 0. -1.
         11   -1    0    0    0    0 -0.00000000000E+00 -0.00000000000E+00 -0.45593999997E+02  0.45594000000E+02  0.51100000000E-03 0.  1.
    9900012    2    1    2    0    0 -0.33564722945E+02  0.15818131745E+02 -0.16623920420E+02  0.50528946292E+02  0.30000262748E+02 0.  0.
         12    1    1    2    0    0  0.33564722945E+02 -0.15818131745E+02  0.16623920420E+02  0.40659053708E+02  0.00000000000E+00 0. -1.
         11    1    3    3    0    0 -0.19925896644E+02  0.41699308116E+01  0.31847978913E+01  0.20605159983E+02  0.51100000000E-03 0. -1.
        -11    1    3    3    0    0 -0.13453313397E+02  0.50012085070E+01 -0.81587446441E+01  0.16509659061E+02  0.51100000000E-03 0.  1.
         12    1    3    3    0    0 -0.18551290323E+00  0.66469924266E+01 -0.11649973668E+02  0.13414127248E+02  0.00000000000E+00 0. -1.
</event>
<event>
 7    1  0.6245487E-013  0.5052886E+02  0.7816164E-02  0.1300439E+00
        -11   -1    0    0    0    0  0.00000000000E+00  0.00000000000E+00  0.45593999997E+02  0.45594000000E+02  0.51100000000E-03 0. -1.
         11   -1    0    0    0    0 -0.00000000000E+00 -0.00000000000E+00 -0.45593999997E+02  0.45594000000E+02  0.51100000000E-03 0.  1.
    9900012    2    1    2    0    0 -0.12292115603E+02  0.17512689237E+02 -0.34574196013E+02  0.50528863016E+02  0.30000009625E+02 0.  0.
         12    1    1    2    0    0  0.12292115603E+02 -0.17512689237E+02  0.34574196013E+02  0.40659136984E+02  0.00000000000E+00 0. -1.
         11    1    3    3    0    0 -0.79925009848E+00  0.17792025754E+02 -0.12046479732E+02  0.21501457051E+02  0.51100000000E-03 0. -1.
        -11    1    3    3    0    0 -0.90877372281E+01  0.23379301895E+01 -0.40661307258E+01  0.10226744587E+02  0.51100000000E-03 0.  1.
         12    1    3    3    0    0 -0.24051282764E+01 -0.26172667067E+01 -0.18461585556E+02  0.18800661379E+02  0.00000000000E+00 0. -1.
</event>
<event>
 7    1  0.6245487E-013  0.5052885E+02  0.7816164E-02  0.1300439E+00
        -11   -1    0    0    0    0  0.00000000000E+00  0.00000000000E+00  0.45593999997E+02  0.45594000000E+02  0.51100000000E-03 0.  1.
         11   -1    0    0    0    0 -0.00000000000E+00 -0.00000000000E+00 -0.45593999997E+02  0.45594000000E+02  0.51100000000E-03 0. -1.
    9900012    2    1    2    0    0 -0.15467477289E+02  0.57107859551E+01  0.37165983671E+02  0.50528852540E+02  0.29999977782E+02 0.  0.
         12    1    1    2    0    0  0.15467477289E+02 -0.57107859551E+01 -0.37165983671E+02  0.40659147460E+02  0.00000000000E+00 0. -1.
         11    1    3    3    0    0  0.17231510937E+01 -0.34466413323E+01  0.25160178724E+01  0.46020574052E+01  0.51100000000E-03 0. -1.
        -11    1    3    3    0    0 -0.18104066869E+02  0.15229469839E+01  0.11424061525E+02  0.21461262468E+02  0.51100000000E-03 0.  1.
        -12    1    3    3    0    0  0.91343848676E+00  0.76344803035E+01  0.23225904274E+02  0.24465532668E+02  0.00000000000E+00 0.  1.
</event>
<event>
 7    1  0.6245487E-013  0.5052885E+02  0.7816164E-02  0.1300439E+00
        -11   -1    0    0    0    0  0.00000000000E+00  0.00000000000E+00  0.45593999997E+02  0.45594000000E+02  0.51100000000E-03 0.  1.
         11   -1    0    0    0    0 -0.00000000000E+00 -0.00000000000E+00 -0.45593999997E+02  0.45594000000E+02  0.51100000000E-03 0. -1.
    9900012    2    1    2    0    0 -0.54200917625E+01 -0.33384943856E+02  0.22566221916E+02  0.50528852904E+02  0.29999978887E+02 0.  0.
         12    1    1    2    0    0  0.54200917625E+01  0.33384943856E+02 -0.22566221916E+02  0.40659147096E+02  0.00000000000E+00 0. -1.
         11    1    3    3    0    0  0.81128270844E+00 -0.69127058507E+01 -0.23676997948E+01  0.73518490457E+01  0.51100000000E-03 0. -1.
        -11    1    3    3    0    0  0.87603766097E+00 -0.73075703001E+01 -0.35071567764E+01  0.81528016405E+01  0.51100000000E-03 0.  1.
        -12    1    3    3    0    0 -0.71074121319E+01 -0.19164667705E+02  0.28441078488E+02  0.35024202218E+02  0.00000000000E+00 0.  1.
</event>
<event>
 7    1  0.6245487E-013  0.5052886E+02  0.7816164E-02  0.1300439E+00
        -11   -1    0    0    0    0  0.00000000000E+00  0.00000000000E+00  0.45593999997E+02  0.45594000000E+02  0.51100000000E-03 0.  1.
         11   -1    0    0    0    0 -0.00000000000E+00 -0.00000000000E+00 -0.45593999997E+02  0.45594000000E+02  0.51100000000E-03 0. -1.
    9900012    2    1    2    0    0  0.36415607817E+02  0.13703851628E+02  0.11801434598E+02  0.50528857108E+02  0.29999991667E+02 0.  0.
         12    1    1    2    0    0 -0.36415607817E+02 -0.13703851628E+02 -0.11801434598E+02  0.40659142892E+02  0.00000000000E+00 0. -1.
         11    1    3    3    0    0  0.78180621824E+00  0.57787426275E+01  0.43959221990E+01  0.73026857771E+01  0.51100000000E-03 0. -1.
        -11    1    3    3    0    0  0.63102170185E+01 -0.35828875358E+01 -0.55799313057E+01  0.91537727497E+01  0.51100000000E-03 0.  1.
        -12    1    3    3    0    0  0.29323584580E+02  0.11507996536E+02  0.12985443705E+02  0.34072398582E+02  0.00000000000E+00 0.  1.
</event>
<event>
 7    1  0.6245487E-013  0.5052884E+02  0.7816164E-02  0.1300439E+00
        -11   -1    0    0    0    0  0.00000000000E+00  0.00000000000E+00  0.45593999997E+02  0.45594000000E+02  0.51100000000E-03 0. -1.
         11   -1    0    0    0    0 -0.00000000000E+00 -0.00000000000E+00 -0.45593999997E+02  0.45594000000E+02  0.51100000000E-03 0.  1.
    9900012    2    1    2    0    0  0.35015656373E+02 -0.23447035115E+01 -0.20532258368E+02  0.50528837940E+02  0.29999933401E+02 0.  0.
         12    1    1    2    0    0 -0.35015656373E+02  0.23447035115E+01  0.20532258368E+02  0.40659162060E+02  0.00000000000E+00 0. -1.
         11    1    3    3    0    0  0.10702426276E+02  0.32659064423E+01  0.31514868279E+01  0.11624970648E+02  0.51100000000E-03 0. -1.
        -11    1    3    3    0    0 -0.27991643953E+01 -0.21542342250E+01 -0.27433036706E+01  0.44723329145E+01  0.51100000000E-03 0.  1.
        -12    1    3    3    0    0  0.27112394492E+02 -0.34563757287E+01 -0.20940441525E+02  0.34431534377E+02  0.00000000000E+00 0.  1.
</event>
<event>
 7    1  0.6245487E-013  0.5052885E+02  0.7816164E-02  0.1300439E+00
        -11   -1    0    0    0    0  0.00000000000E+00  0.00000000000E+00  0.45593999997E+02  0.45594000000E+02  0.51100000000E-03 0.  1.
         11   -1    0    0    0    0 -0.00000000000E+00 -0.00000000000E+00 -0.45593999997E+02  0.45594000000E+02  0.51100000000E-03 0. -1.
    9900012    2    1    2    0    0 -0.26191346012E+02  0.65775806478E+01  0.30395970204E+02  0.50528853702E+02  0.29999981312E+02 0.  0.
         12    1    1    2    0    0  0.26191346012E+02 -0.65775806478E+01 -0.30395970204E+02  0.40659146298E+02  0.00000000000E+00 0. -1.
         11    1    3    3    0    0 -0.14344561527E+02 -0.26277972103E+01  0.26223871883E+02  0.30006053062E+02  0.51100000000E-03 0. -1.
        -11    1    3    3    0    0 -0.98326517702E+01 -0.81448850539E+00  0.17666609557E+01  0.10023249152E+02  0.51100000000E-03 0.  1.
         12    1    3    3    0    0 -0.20141327139E+01  0.10019866363E+02  0.24054373649E+01  0.10499551488E+02  0.00000000000E+00 0. -1.
</event>
<event>
 7    1  0.6245487E-013  0.5052887E+02  0.7816164E-02  0.1300439E+00
        -11   -1    0    0    0    0  0.00000000000E+00  0.00000000000E+00  0.45593999997E+02  0.45594000000E+02  0.51100000000E-03 0.  1.
         11   -1    0    0    0    0 -0.00000000000E+00 -0.00000000000E+00 -0.45593999997E+02  0.45594000000E+02  0.51100000000E-03 0. -1.
    9900012    2    1    2    0    0 -0.41612229238E+01  0.25610663946E+02  0.31304045385E+02  0.50528866445E+02  0.30000020046E+02 0.  0.
         12    1    1    2    0    0  0.41612229238E+01 -0.25610663946E+02 -0.31304045385E+02  0.40659133555E+02  0.00000000000E+00 0. -1.
         11    1    3    3    0    0  0.39823480745E+00 -0.95762084974E+00 -0.48657570493E+01  0.49750598567E+01  0.51100000000E-03 0. -1.
        -11    1    3    3    0    0 -0.21487374509E+01  0.48237693177E+01  0.38906023443E+01  0.65591622884E+01  0.51100000000E-03 0.  1.
        -12    1    3    3    0    0 -0.24107202803E+01  0.21744515479E+02  0.32279200090E+02  0.38994644300E+02  0.00000000000E+00 0.  1.
</event>
<event>
 7    1  0.6245487E-013  0.5052875E+02  0.7816164E-02  0.1300439E+00
        -11   -1    0    0    0    0  0.00000000000E+00  0.00000000000E+00  0.45593999997E+02  0.45594000000E+02  0.51100000000E-03 0.  1.
         11   -1    0    0    0    0 -0.00000000000E+00 -0.00000000000E+00 -0.45593999997E+02  0.45594000000E+02  0.51100000000E-03 0. -1.
    9900012    2    1    2    0    0 -0.33176622964E+01  0.40370849113E+02  0.35159867597E+01  0.50528751309E+02  0.29999670076E+02 0.  0.
         12    1    1    2    0    0  0.33176622964E+01 -0.40370849113E+02 -0.35159867597E+01  0.40659248691E+02  0.00000000000E+00 0. -1.
         11    1    3    3    0    0 -0.22448365037E+01  0.22641575531E+02  0.26747770282E+01  0.22909270304E+02  0.51100000000E-03 0.  1.
        -11    1    3    3    0    0 -0.73306915186E+01  0.13213276196E+02 -0.69685909197E+01  0.16640041035E+02  0.51100000000E-03 0. -1.
        -12    1    3    3    0    0  0.62578657259E+01  0.45159973866E+01  0.78098006513E+01  0.10979439970E+02  0.00000000000E+00 0.  1.
</event>
<event>
 7    1  0.6245487E-013  0.5052886E+02  0.7816164E-02  0.1300439E+00
        -11   -1    0    0    0    0  0.00000000000E+00  0.00000000000E+00  0.45593999997E+02  0.45594000000E+02  0.51100000000E-03 0.  1.
         11   -1    0    0    0    0 -0.00000000000E+00 -0.00000000000E+00 -0.45593999997E+02  0.45594000000E+02  0.51100000000E-03 0. -1.
    9900012    2    1    2    0    0 -0.68334330317E+01  0.37311219158E+02  0.14640450503E+02  0.50528859909E+02  0.30000000178E+02 0.  0.
         12    1    1    2    0    0  0.68334330317E+01 -0.37311219158E+02 -0.14640450503E+02  0.40659140091E+02  0.00000000000E+00 0. -1.
         11    1    3    3    0    0  0.18092565674E+00  0.26972570017E+02  0.51479058356E+01  0.27460029173E+02  0.51100000000E-03 0. -1.
        -11    1    3    3    0    0 -0.93740531540E+01  0.13889891018E+02  0.73762219526E+01  0.18308757347E+02  0.51100000000E-03 0.  1.
        -12    1    3    3    0    0  0.23596944655E+01 -0.35512418770E+01  0.21163227150E+01  0.47600733895E+01  0.00000000000E+00 0.  1.
</event>
<event>
 7    1  0.6245487E-013  0.5052886E+02  0.7816164E-02  0.1300439E+00
        -11   -1    0    0    0    0  0.00000000000E+00  0.00000000000E+00  0.45593999997E+02  0.45594000000E+02  0.51100000000E-03 0.  1.
         11   -1    0    0    0    0 -0.00000000000E+00 -0.00000000000E+00 -0.45593999997E+02  0.45594000000E+02  0.51100000000E-03 0. -1.
    9900012    2    1    2    0    0  0.37507347039E+02 -0.15664996915E+02 -0.98605867425E+00  0.50528861765E+02  0.30000005822E+02 0.  0.
         12    1    1    2    0    0 -0.37507347039E+02  0.15664996915E+02  0.98605867425E+00  0.40659138235E+02  0.00000000000E+00 0. -1.
         11    1    3    3    0    0  0.10821859648E+02 -0.95734441994E+01 -0.70185712703E+01  0.16063119965E+02  0.51100000000E-03 0. -1.
        -11    1    3    3    0    0 -0.31305958221E+01 -0.10173706324E+01 -0.94864043487E+00  0.34257250533E+01  0.51100000000E-03 0.  1.
         12    1    3    3    0    0  0.29816083214E+02 -0.50741820829E+01  0.69811530309E+01  0.31040016747E+02  0.00000000000E+00 0. -1.
</event>
<event>
 7    1  0.6245487E-013  0.5052878E+02  0.7816164E-02  0.1300439E+00
        -11   -1    0    0    0    0  0.00000000000E+00  0.00000000000E+00  0.45593999997E+02  0.45594000000E+02  0.51100000000E-03 0. -1.
         11   -1    0    0    0    0 -0.00000000000E+00 -0.00000000000E+00 -0.45593999997E+02  0.45594000000E+02  0.51100000000E-03 0.  1.
    9900012    2    1    2    0    0 -0.16383512304E+02 -0.60647595089E+01 -0.36714729320E+02  0.50528780475E+02  0.29999758731E+02 0.  0.
         12    1    1    2    0    0  0.16383512304E+02  0.60647595089E+01  0.36714729320E+02  0.40659219525E+02  0.00000000000E+00 0. -1.
         11    1    3    3    0    0  0.30841314709E+01  0.22417862605E+01  0.11572155381E+01  0.39845477322E+01  0.51100000000E-03 0.  1.
        -11    1    3    3    0    0 -0.27708338672E+01 -0.10301555063E+01  0.13875866240E+01  0.32655991161E+01  0.51100000000E-03 0. -1.
        -12    1    3    3    0    0 -0.16696809908E+02 -0.72763902631E+01 -0.39259531482E+02  0.43278633627E+02  0.00000000000E+00 0.  1.
</event>
<event>
 7    1  0.6245487E-013  0.5052885E+02  0.7816164E-02  0.1300439E+00
        -11   -1    0    0    0    0  0.00000000000E+00  0.00000000000E+00  0.45593999997E+02  0.45594000000E+02  0.51100000000E-03 0.  1.
         11   -1    0    0    0    0 -0.00000000000E+00 -0.00000000000E+00 -0.45593999997E+02  0.45594000000E+02  0.51100000000E-03 0. -1.
    9900012    2    1    2    0    0 -0.88427789749E+01  0.35652380669E+02  0.17432146678E+02  0.50528846970E+02  0.29999960850E+02 0.  0.
         12    1    1    2    0    0  0.88427789749E+01 -0.35652380669E+02 -0.17432146678E+02  0.40659153030E+02  0.00000000000E+00 0. -1.
         11    1    3    3    0    0 -0.16683862664E+01 -0.95997716069E+00 -0.37714213186E+01  0.42342281359E+01  0.51100000000E-03 0. -1.
        -11    1    3    3    0    0 -0.11406259628E+02  0.14251834583E+02  0.11353206106E+02  0.21496809922E+02  0.51100000000E-03 0.  1.
        -12    1    3    3    0    0  0.42318669193E+01  0.22360523246E+02  0.98503618900E+01  0.24797808912E+02  0.00000000000E+00 0.  1.
</event>
<event>
 7    1  0.6245487E-013  0.5052884E+02  0.7816164E-02  0.1300439E+00
        -11   -1    0    0    0    0  0.00000000000E+00  0.00000000000E+00  0.45593999997E+02  0.45594000000E+02  0.51100000000E-03 0.  1.
         11   -1    0    0    0    0 -0.00000000000E+00 -0.00000000000E+00 -0.45593999997E+02  0.45594000000E+02  0.51100000000E-03 0. -1.
    9900012    2    1    2    0    0  0.21567773207E+02  0.61165421480E+01  0.33920289151E+02  0.50528844266E+02  0.29999952630E+02 0.  0.
         12    1    1    2    0    0 -0.21567773207E+02 -0.61165421480E+01 -0.33920289151E+02  0.40659155734E+02  0.00000000000E+00 0. -1.
         11    1    3    3    0    0  0.19710433612E+00  0.34157189467E+00 -0.11895082007E+01  0.12531765634E+01  0.51100000000E-03 0. -1.
        -11    1    3    3    0    0  0.19833593298E+02  0.29322883581E+00  0.38018888795E+02  0.42882319338E+02  0.51100000000E-03 0.  1.
        -12    1    3    3    0    0  0.15370755721E+01  0.54817414175E+01 -0.29090914436E+01  0.63933483645E+01  0.00000000000E+00 0.  1.
</event>
<event>
 7    1  0.6245487E-013  0.5052888E+02  0.7816164E-02  0.1300439E+00
        -11   -1    0    0    0    0  0.00000000000E+00  0.00000000000E+00  0.45593999997E+02  0.45594000000E+02  0.51100000000E-03 0.  1.
         11   -1    0    0    0    0 -0.00000000000E+00 -0.00000000000E+00 -0.45593999997E+02  0.45594000000E+02  0.51100000000E-03 0. -1.
    9900012    2    1    2    0    0 -0.12702397466E+01 -0.39314344947E+02 -0.10292384068E+02  0.50528875595E+02  0.30000047857E+02 0.  0.
         12    1    1    2    0    0  0.12702397466E+01  0.39314344947E+02  0.10292384068E+02  0.40659124405E+02  0.00000000000E+00 0. -1.
         11    1    3    3    0    0  0.15697889126E+01 -0.79824061736E+01 -0.10688672509E+02  0.13432451966E+02  0.51100000000E-03 0. -1.
        -11    1    3    3    0    0  0.64482078865E+01 -0.28138326188E+01  0.94663486187E+00  0.70988137584E+01  0.51100000000E-03 0.  1.
        -12    1    3    3    0    0 -0.92882365456E+01 -0.28518106154E+02 -0.55034642171E+00  0.29997609871E+02  0.00000000000E+00 0.  1.
</event>
<event>
 7    1  0.6245487E-013  0.5052887E+02  0.7816164E-02  0.1300439E+00
        -11   -1    0    0    0    0  0.00000000000E+00  0.00000000000E+00  0.45593999997E+02  0.45594000000E+02  0.51100000000E-03 0.  1.
         11   -1    0    0    0    0 -0.00000000000E+00 -0.00000000000E+00 -0.45593999997E+02  0.45594000000E+02  0.51100000000E-03 0. -1.
    9900012    2    1    2    0    0 -0.51464646814E+00 -0.40654609213E+02  0.32057514781E+00  0.50528869664E+02  0.30000029829E+02 0.  0.
         12    1    1    2    0    0  0.51464646814E+00  0.40654609213E+02 -0.32057514781E+00  0.40659130336E+02  0.00000000000E+00 0. -1.
         11    1    3    3    0    0 -0.57193744230E+01 -0.14786940957E+01 -0.55372077971E+01  0.80968173049E+01  0.51100000000E-03 0. -1.
        -11    1    3    3    0    0 -0.35476977219E+01 -0.21662208408E+02  0.63371290799E+01  0.22847245731E+02  0.51100000000E-03 0.  1.
        -12    1    3    3    0    0  0.87524256768E+01 -0.17513706710E+02 -0.47934613497E+00  0.19584806628E+02  0.00000000000E+00 0.  1.
</event>
<event>
 7    1  0.6245487E-013  0.5052887E+02  0.7816164E-02  0.1300439E+00
        -11   -1    0    0    0    0  0.00000000000E+00  0.00000000000E+00  0.45593999997E+02  0.45594000000E+02  0.51100000000E-03 0.  1.
         11   -1    0    0    0    0 -0.00000000000E+00 -0.00000000000E+00 -0.45593999997E+02  0.45594000000E+02  0.51100000000E-03 0. -1.
    9900012    2    1    2    0    0 -0.40105118476E+02  0.33579877459E+01  0.57851797739E+01  0.50528869233E+02  0.30000028521E+02 0.  0.
         12    1    1    2    0    0  0.40105118476E+02 -0.33579877459E+01 -0.57851797739E+01  0.40659130767E+02  0.00000000000E+00 0. -1.
         11    1    3    3    0    0  0.70275284885E+00  0.35046794995E+01  0.14970971301E+01  0.38752987032E+01  0.51100000000E-03 0. -1.
        -11    1    3    3    0    0 -0.25225871265E+01 -0.70641396279E+01 -0.99955551985E-01  0.75017001984E+01  0.51100000000E-03 0.  1.
        -12    1    3    3    0    0 -0.38285284199E+02  0.69174478742E+01  0.43880381958E+01  0.39151870332E+02  0.00000000000E+00 0.  1.
</event>
<event>
 7    1  0.6245487E-013  0.5052887E+02  0.7816164E-02  0.1300439E+00
        -11   -1    0    0    0    0  0.00000000000E+00  0.00000000000E+00  0.45593999997E+02  0.45594000000E+02  0.51100000000E-03 0.  1.
         11   -1    0    0    0    0 -0.00000000000E+00 -0.00000000000E+00 -0.45593999997E+02  0.45594000000E+02  0.51100000000E-03 0. -1.
    9900012    2    1    2    0    0  0.15771347464E+02  0.16104300145E+02  0.33839044014E+02  0.50528870844E+02  0.30000033418E+02 0.  0.
         12    1    1    2    0    0 -0.15771347464E+02 -0.16104300145E+02 -0.33839044014E+02  0.40659129156E+02  0.00000000000E+00 0. -1.
         11    1    3    3    0    0  0.12360803363E+02 -0.98813868562E+00  0.37281598250E+01  0.12948554119E+02  0.51100000000E-03 0. -1.
        -11    1    3    3    0    0 -0.33685381078E+01 -0.36315718203E+00  0.74452554765E+01  0.81798998463E+01  0.51100000000E-03 0.  1.
        -12    1    3    3    0    0  0.67790822087E+01  0.17455596012E+02  0.22665628712E+02  0.29400416879E+02  0.00000000000E+00 0.  1.
</event>
<event>
 7    1  0.6245487E-013  0.5052886E+02  0.7816164E-02  0.1300439E+00
        -11   -1    0    0    0    0  0.00000000000E+00  0.00000000000E+00  0.45593999997E+02  0.45594000000E+02  0.51100000000E-03 0. -1.
         11   -1    0    0    0    0 -0.00000000000E+00 -0.00000000000E+00 -0.45593999997E+02  0.45594000000E+02  0.51100000000E-03 0.  1.
    9900012    2    1    2    0    0 -0.40532611870E+02  0.14129883743E+01 -0.28768724105E+01  0.50528861347E+02  0.30000004549E+02 0.  0.
         12    1    1    2    0    0  0.40532611870E+02 -0.14129883743E+01  0.28768724105E+01  0.40659138653E+02  0.00000000000E+00 0. -1.
         11    1    3    3    0    0 -0.97993302202E+01  0.77604482273E+01 -0.20105894046E+01  0.12660722707E+02  0.51100000000E-03 0. -1.
        -11    1    3    3    0    0  0.46818486440E+00 -0.37590248362E+00 -0.57027916092E+01  0.57343118282E+01  0.51100000000E-03 0.  1.
        -12    1    3    3    0    0 -0.31201466514E+02 -0.59715573694E+01  0.48365086033E+01  0.32133826811E+02  0.00000000000E+00 0.  1.
</event>
<event>
 7    1  0.6245487E-013  0.5052886E+02  0.7816164E-02  0.1300439E+00
        -11   -1    0    0    0    0  0.00000000000E+00  0.00000000000E+00  0.45593999997E+02  0.45594000000E+02  0.51100000000E-03 0. -1.
         11   -1    0    0    0    0 -0.00000000000E+00 -0.00000000000E+00 -0.45593999997E+02  0.45594000000E+02  0.51100000000E-03 0.  1.
    9900012    2    1    2    0    0  0.14146685768E+02 -0.36804476736E+02 -0.99230743020E+01  0.50528860442E+02  0.30000001799E+02 0.  0.
         12    1    1    2    0    0 -0.14146685768E+02  0.36804476736E+02  0.99230743020E+01  0.40659139558E+02  0.00000000000E+00 0. -1.
         11    1    3    3    0    0  0.25735749612E+01 -0.27586245543E+02 -0.61148551423E-01  0.27706099882E+02  0.51100000000E-03 0. -1.
        -11    1    3    3    0    0  0.19780666326E+01 -0.10619596570E+02 -0.41726455800E+01  0.11580136023E+02  0.51100000000E-03 0.  1.
         12    1    3    3    0    0  0.95950441741E+01  0.14013653777E+01 -0.56892801705E+01  0.11242624537E+02  0.00000000000E+00 0. -1.
</event>
<event>
 7    1  0.6245487E-013  0.5052887E+02  0.7816164E-02  0.1300439E+00
        -11   -1    0    0    0    0  0.00000000000E+00  0.00000000000E+00  0.45593999997E+02  0.45594000000E+02  0.51100000000E-03 0. -1.
         11   -1    0    0    0    0 -0.00000000000E+00 -0.00000000000E+00 -0.45593999997E+02  0.45594000000E+02  0.51100000000E-03 0.  1.
    9900012    2    1    2    0    0 -0.29597867187E+02 -0.26749433616E+02 -0.78484983971E+01  0.50528869809E+02  0.30000030271E+02 0.  0.
         12    1    1    2    0    0  0.29597867187E+02  0.26749433616E+02  0.78484983971E+01  0.40659130191E+02  0.00000000000E+00 0. -1.
         11    1    3    3    0    0 -0.63470429540E+01 -0.25790588661E+01  0.41992810208E+01  0.80355746681E+01  0.51100000000E-03 0. -1.
        -11    1    3    3    0    0 -0.23272488904E+02 -0.22784643903E+02 -0.17426973398E+02  0.36938437157E+02  0.51100000000E-03 0.  1.
         12    1    3    3    0    0  0.21664670895E-01 -0.13857308479E+01  0.53791939801E+01  0.55548579834E+01  0.00000000000E+00 0. -1.
</event>
<event>
 7    1  0.6245487E-013  0.5052879E+02  0.7816164E-02  0.1300439E+00
        -11   -1    0    0    0    0  0.00000000000E+00  0.00000000000E+00  0.45593999997E+02  0.45594000000E+02  0.51100000000E-03 0. -1.
         11   -1    0    0    0    0 -0.00000000000E+00 -0.00000000000E+00 -0.45593999997E+02  0.45594000000E+02  0.51100000000E-03 0.  1.
    9900012    2    1    2    0    0 -0.10730257523E+02 -0.38357515627E+02  0.81690736533E+01  0.50528791991E+02  0.29999793735E+02 0.  0.
         12    1    1    2    0    0  0.10730257523E+02  0.38357515627E+02 -0.81690736533E+01  0.40659208009E+02  0.00000000000E+00 0. -1.
         11    1    3    3    0    0 -0.12568008400E+02 -0.20182982953E+02  0.46905829655E+01  0.24234463164E+02  0.51100000000E-03 0.  1.
        -11    1    3    3    0    0 -0.50886577647E+01 -0.72255361484E+01  0.86295303383E+01  0.12351987881E+02  0.51100000000E-03 0. -1.
        -12    1    3    3    0    0  0.69264086416E+01 -0.10948996525E+02 -0.51510396505E+01  0.13942340946E+02  0.00000000000E+00 0.  1.
</event>
<event>
 7    1  0.6245487E-013  0.5052887E+02  0.7816164E-02  0.1300439E+00
        -11   -1    0    0    0    0  0.00000000000E+00  0.00000000000E+00  0.45593999997E+02  0.45594000000E+02  0.51100000000E-03 0.  1.
         11   -1    0    0    0    0 -0.00000000000E+00 -0.00000000000E+00 -0.45593999997E+02  0.45594000000E+02  0.51100000000E-03 0. -1.
    9900012    2    1    2    0    0 -0.16523117479E+02 -0.24515822334E+02  0.27912828837E+02  0.50528868558E+02  0.30000026469E+02 0.  0.
         12    1    1    2    0    0  0.16523117479E+02  0.24515822334E+02 -0.27912828837E+02  0.40659131442E+02  0.00000000000E+00 0. -1.
         11    1    3    3    0    0  0.93057778818E+00  0.15081490552E+01 -0.16379317345E+01  0.24131533769E+01  0.51100000000E-03 0. -1.
        -11    1    3    3    0    0 -0.59325511315E+01 -0.25623934666E+00  0.15473888283E+02  0.16574137697E+02  0.51100000000E-03 0.  1.
        -12    1    3    3    0    0 -0.11521144135E+02 -0.25767732042E+02  0.14076872289E+02  0.31541577485E+02  0.00000000000E+00 0.  1.
</event>
<event>
 7    1  0.6245487E-013  0.5052887E+02  0.7816164E-02  0.1300439E+00
        -11   -1    0    0    0    0  0.00000000000E+00  0.00000000000E+00  0.45593999997E+02  0.45594000000E+02  0.51100000000E-03 0. -1.
         11   -1    0    0    0    0 -0.00000000000E+00 -0.00000000000E+00 -0.45593999997E+02  0.45594000000E+02  0.51100000000E-03 0.  1.
    9900012    2    1    2    0    0  0.83582839940E+01  0.21341695637E+02 -0.33583268750E+02  0.50528870350E+02  0.30000031916E+02 0.  0.
         12    1    1    2    0    0 -0.83582839940E+01 -0.21341695637E+02  0.33583268750E+02  0.40659129650E+02  0.00000000000E+00 0. -1.
         11    1    3    3    0    0  0.90241197322E+00  0.20857474047E+01  0.11277119270E+01  0.25370108507E+01  0.51100000000E-03 0. -1.
        -11    1    3    3    0    0  0.10672642841E+02  0.50705991316E+01 -0.17249199661E+01  0.11941173724E+02  0.51100000000E-03 0.  1.
        -12    1    3    3    0    0 -0.32167708203E+01  0.14185349100E+02 -0.32986060711E+02  0.36050685775E+02  0.00000000000E+00 0.  1.
</event>
<event>
 7    1  0.6245487E-013  0.5052886E+02  0.7816164E-02  0.1300439E+00
        -11   -1    0    0    0    0  0.00000000000E+00  0.00000000000E+00  0.45593999997E+02  0.45594000000E+02  0.51100000000E-03 0.  1.
         11   -1    0    0    0    0 -0.00000000000E+00 -0.00000000000E+00 -0.45593999997E+02  0.45594000000E+02  0.51100000000E-03 0. -1.
    9900012    2    1    2    0    0  0.66186334418E+01  0.12755313468E+02  0.38035004345E+02  0.50528857291E+02  0.29999992221E+02 0.  0.
         12    1    1    2    0    0 -0.66186334418E+01 -0.12755313468E+02 -0.38035004345E+02  0.40659142709E+02  0.00000000000E+00 0. -1.
         11    1    3    3    0    0 -0.46088024811E+01  0.45904089725E+01  0.38661493605E+01  0.75670354819E+01  0.51100000000E-03 0. -1.
        -11    1    3    3    0    0 -0.13525818270E+01  0.66235973066E+01  0.28114599626E+02  0.28915951156E+02  0.51100000000E-03 0.  1.
         12    1    3    3    0    0  0.12580017750E+02  0.15413071888E+01  0.60542553591E+01  0.14045870653E+02  0.00000000000E+00 0. -1.
</event>
<event>
 7    1  0.6245487E-013  0.5052887E+02  0.7816164E-02  0.1300439E+00
        -11   -1    0    0    0    0  0.00000000000E+00  0.00000000000E+00  0.45593999997E+02  0.45594000000E+02  0.51100000000E-03 0. -1.
         11   -1    0    0    0    0 -0.00000000000E+00 -0.00000000000E+00 -0.45593999997E+02  0.45594000000E+02  0.51100000000E-03 0.  1.
    9900012    2    1    2    0    0 -0.25063846207E+02  0.31673966140E+02 -0.46613228936E+01  0.50528874963E+02  0.30000045937E+02 0.  0.
         12    1    1    2    0    0  0.25063846207E+02 -0.31673966140E+02  0.46613228936E+01  0.40659125037E+02  0.00000000000E+00 0. -1.
         11    1    3    3    0    0 -0.74038544050E+01 -0.11107659832E+01 -0.12195777863E+01  0.75853959263E+01  0.51100000000E-03 0. -1.
        -11    1    3    3    0    0 -0.16923384218E+02  0.15387348584E+02 -0.91258501731E+01  0.24626257765E+02  0.51100000000E-03 0.  1.
         12    1    3    3    0    0 -0.73660758347E+00  0.17397383539E+02  0.56841050658E+01  0.18317221272E+02  0.00000000000E+00 0. -1.
</event>
<event>
 7    1  0.6245487E-013  0.5052886E+02  0.7816164E-02  0.1300439E+00
        -11   -1    0    0    0    0  0.00000000000E+00  0.00000000000E+00  0.45593999997E+02  0.45594000000E+02  0.51100000000E-03 0. -1.
         11   -1    0    0    0    0 -0.00000000000E+00 -0.00000000000E+00 -0.45593999997E+02  0.45594000000E+02  0.51100000000E-03 0.  1.
    9900012    2    1    2    0    0 -0.36860183653E+02  0.56423867814E+01 -0.16206674118E+02  0.50528856459E+02  0.29999989692E+02 0.  0.
         12    1    1    2    0    0  0.36860183653E+02 -0.56423867814E+01  0.16206674118E+02  0.40659143541E+02  0.00000000000E+00 0. -1.
         11    1    3    3    0    0 -0.59060575773E+01  0.12298939065E+02 -0.32331398908E+01  0.14021362703E+02  0.51100000000E-03 0. -1.
        -11    1    3    3    0    0 -0.16364357938E+02 -0.19660267796E+01 -0.83688151661E-01  0.16482247298E+02  0.51100000000E-03 0.  1.
        -12    1    3    3    0    0 -0.14589768138E+02 -0.46905255044E+01 -0.12889846076E+02  0.20025246457E+02  0.00000000000E+00 0.  1.
</event>
<event>
 7    1  0.6245487E-013  0.5052886E+02  0.7816164E-02  0.1300439E+00
        -11   -1    0    0    0    0  0.00000000000E+00  0.00000000000E+00  0.45593999997E+02  0.45594000000E+02  0.51100000000E-03 0.  1.
         11   -1    0    0    0    0 -0.00000000000E+00 -0.00000000000E+00 -0.45593999997E+02  0.45594000000E+02  0.51100000000E-03 0. -1.
    9900012    2    1    2    0    0  0.18306586948E+02 -0.11778228656E+02  0.34341052420E+02  0.50528859855E+02  0.30000000016E+02 0.  0.
         12    1    1    2    0    0 -0.18306586948E+02  0.11778228656E+02 -0.34341052420E+02  0.40659140145E+02  0.00000000000E+00 0. -1.
         11    1    3    3    0    0  0.16040350493E+02 -0.10396481095E+02  0.18715423332E+02  0.26751574419E+02  0.51100000000E-03 0. -1.
        -11    1    3    3    0    0 -0.32485494321E+01 -0.37738637790E+01  0.16912096673E+02  0.17629921593E+02  0.51100000000E-03 0.  1.
         12    1    3    3    0    0  0.55147858873E+01  0.23921162178E+01 -0.12864675845E+01  0.61473638438E+01  0.00000000000E+00 0. -1.
</event>
<event>
 7    1  0.6487253E-013  0.5052884E+02  0.7816164E-02  0.1300439E+00
        -11   -1    0    0    0    0  0.00000000000E+00  0.00000000000E+00  0.45593999997E+02  0.45594000000E+02  0.51100000000E-03 0.  1.
         11   -1    0    0    0    0 -0.00000000000E+00 -0.00000000000E+00 -0.45593999997E+02  0.45594000000E+02  0.51100000000E-03 0. -1.
    9900012    2    1    2    0    0  0.26144931699E+02  0.22714427301E+02  0.21299409530E+02  0.50528837349E+02  0.29999931606E+02 0.  0.
         12    1    1    2    0    0 -0.26144931699E+02 -0.22714427301E+02 -0.21299409530E+02  0.40659162651E+02  0.00000000000E+00 0. -1.
         11    1    3    3    0    0  0.33070970050E+01  0.50403816334E+01 -0.48560736112E+01  0.77410457168E+01  0.51100000000E-03 0. -1.
        -11    1    3    3    0    0  0.94454555103E+01  0.18087939777E+02  0.14551063078E+02  0.25062394781E+02  0.51100000000E-03 0.  1.
        -12    1    3    3    0    0  0.13392379184E+02 -0.41389411005E+00  0.11604420063E+02  0.17725396851E+02  0.00000000000E+00 0.  1.
</event>
<event>
 7    1  0.6245487E-013  0.5052887E+02  0.7816164E-02  0.1300439E+00
        -11   -1    0    0    0    0  0.00000000000E+00  0.00000000000E+00  0.45593999997E+02  0.45594000000E+02  0.51100000000E-03 0.  1.
         11   -1    0    0    0    0 -0.00000000000E+00 -0.00000000000E+00 -0.45593999997E+02  0.45594000000E+02  0.51100000000E-03 0. -1.
    9900012    2    1    2    0    0  0.21233344014E+02 -0.32441915767E+02  0.12240582957E+02  0.50528872270E+02  0.30000037752E+02 0.  0.
         12    1    1    2    0    0 -0.21233344014E+02  0.32441915767E+02 -0.12240582957E+02  0.40659127730E+02  0.00000000000E+00 0. -1.
         11    1    3    3    0    0 -0.45929219384E+01 -0.11536802706E+02 -0.15190486900E+01  0.12510006307E+02  0.51100000000E-03 0. -1.
        -11    1    3    3    0    0  0.55361685637E+01 -0.11496209398E+02  0.74710413007E+01  0.14786089790E+02  0.51100000000E-03 0.  1.
        -12    1    3    3    0    0  0.20290097389E+02 -0.94089036625E+01  0.62885903462E+01  0.23232776173E+02  0.00000000000E+00 0.  1.
</event>
<event>
 7    1  0.6245487E-013  0.5052887E+02  0.7816164E-02  0.1300439E+00
        -11   -1    0    0    0    0  0.00000000000E+00  0.00000000000E+00  0.45593999997E+02  0.45594000000E+02  0.51100000000E-03 0.  1.
         11   -1    0    0    0    0 -0.00000000000E+00 -0.00000000000E+00 -0.45593999997E+02  0.45594000000E+02  0.51100000000E-03 0. -1.
    9900012    2    1    2    0    0 -0.68922506749E+01 -0.28698952028E+02  0.27964838759E+02  0.50528866049E+02  0.30000018841E+02 0.  0.
         12    1    1    2    0    0  0.68922506749E+01  0.28698952028E+02 -0.27964838759E+02  0.40659133951E+02  0.00000000000E+00 0. -1.
         11    1    3    3    0    0 -0.18003960980E+02 -0.12628018787E+02  0.12751361912E+02  0.25420595987E+02  0.51100000000E-03 0.  1.
        -11    1    3    3    0    0  0.55889209694E+01 -0.60159118090E+01  0.42764760529E+01  0.92582655065E+01  0.51100000000E-03 0. -1.
        -12    1    3    3    0    0  0.55227893353E+01 -0.10055021432E+02  0.10937000794E+02  0.15850004555E+02  0.00000000000E+00 0.  1.
</event>
<event>
 7    1  0.6245487E-013  0.5052886E+02  0.7816164E-02  0.1300439E+00
        -11   -1    0    0    0    0  0.00000000000E+00  0.00000000000E+00  0.45593999997E+02  0.45594000000E+02  0.51100000000E-03 0.  1.
         11   -1    0    0    0    0 -0.00000000000E+00 -0.00000000000E+00 -0.45593999997E+02  0.45594000000E+02  0.51100000000E-03 0. -1.
    9900012    2    1    2    0    0 -0.13874177194E+02  0.14641348612E+02  0.35303023587E+02  0.50528863802E+02  0.30000012014E+02 0.  0.
         12    1    1    2    0    0  0.13874177194E+02 -0.14641348612E+02 -0.35303023587E+02  0.40659136198E+02  0.00000000000E+00 0. -1.
         11    1    3    3    0    0  0.33836151300E+01  0.83033559471E+01  0.75650799648E+01  0.11731368482E+02  0.51100000000E-03 0. -1.
        -11    1    3    3    0    0  0.29261270760E+01 -0.30701260405E+01  0.79341825264E+01  0.89966185977E+01  0.51100000000E-03 0.  1.
        -12    1    3    3    0    0 -0.20183919399E+02  0.94081187054E+01  0.19803761095E+02  0.29800876722E+02  0.00000000000E+00 0.  1.
</event>
<event>
 7    1  0.6245487E-013  0.5052887E+02  0.7816164E-02  0.1300439E+00
        -11   -1    0    0    0    0  0.00000000000E+00  0.00000000000E+00  0.45593999997E+02  0.45594000000E+02  0.51100000000E-03 0.  1.
         11   -1    0    0    0    0 -0.00000000000E+00 -0.00000000000E+00 -0.45593999997E+02  0.45594000000E+02  0.51100000000E-03 0. -1.
    9900012    2    1    2    0    0 -0.27011954705E+02 -0.24737379936E+02  0.17651661560E+02  0.50528870411E+02  0.30000032100E+02 0.  0.
         12    1    1    2    0    0  0.27011954705E+02  0.24737379936E+02 -0.17651661560E+02  0.40659129589E+02  0.00000000000E+00 0. -1.
         11    1    3    3    0    0 -0.18143155514E+02 -0.25478286443E+01  0.19728235099E+01  0.18427087552E+02  0.51100000000E-03 0. -1.
        -11    1    3    3    0    0 -0.84766335689E+01 -0.40649107979E+01  0.82581016943E+01  0.12512915740E+02  0.51100000000E-03 0.  1.
         12    1    3    3    0    0 -0.39216562243E+00 -0.18124640494E+02  0.74207363563E+01  0.19588867119E+02  0.00000000000E+00 0. -1.
</event>
<event>
 7    1  0.6245487E-013  0.5052886E+02  0.7816164E-02  0.1300439E+00
        -11   -1    0    0    0    0  0.00000000000E+00  0.00000000000E+00  0.45593999997E+02  0.45594000000E+02  0.51100000000E-03 0. -1.
         11   -1    0    0    0    0 -0.00000000000E+00 -0.00000000000E+00 -0.45593999997E+02  0.45594000000E+02  0.51100000000E-03 0.  1.
    9900012    2    1    2    0    0  0.16378485471E+02  0.37091066479E+02 -0.30271414777E+01  0.50528860998E+02  0.30000003489E+02 0.  0.
         12    1    1    2    0    0 -0.16378485471E+02 -0.37091066479E+02  0.30271414777E+01  0.40659139002E+02  0.00000000000E+00 0. -1.
         11    1    3    3    0    0  0.10752186241E+02  0.63392303725E+01  0.13439088777E+01  0.12553941294E+02  0.51100000000E-03 0.  1.
        -11    1    3    3    0    0 -0.43683146781E+00  0.28986456351E+01  0.67639325859E+01  0.73718215210E+01  0.51100000000E-03 0. -1.
        -12    1    3    3    0    0  0.60631306976E+01  0.27853190472E+02 -0.11134982941E+02  0.30603098183E+02  0.00000000000E+00 0.  1.
</event>
<event>
 7    1  0.6245487E-013  0.5052886E+02  0.7816164E-02  0.1300439E+00
        -11   -1    0    0    0    0  0.00000000000E+00  0.00000000000E+00  0.45593999997E+02  0.45594000000E+02  0.51100000000E-03 0.  1.
         11   -1    0    0    0    0 -0.00000000000E+00 -0.00000000000E+00 -0.45593999997E+02  0.45594000000E+02  0.51100000000E-03 0. -1.
    9900012    2    1    2    0    0 -0.13522572825E+02  0.13015692410E+02  0.36067950505E+02  0.50528864761E+02  0.30000014928E+02 0.  0.
         12    1    1    2    0    0  0.13522572825E+02 -0.13015692410E+02 -0.36067950505E+02  0.40659135239E+02  0.00000000000E+00 0. -1.
         11    1    3    3    0    0 -0.97263238593E+01  0.11217793210E+02  0.10614829062E+02  0.18251434371E+02  0.51100000000E-03 0. -1.
        -11    1    3    3    0    0 -0.88766678785E+01  0.52492631546E+01  0.61192909728E+01  0.11991485253E+02  0.51100000000E-03 0.  1.
         12    1    3    3    0    0  0.50804189127E+01 -0.34513639545E+01  0.19333830471E+02  0.20285945138E+02  0.00000000000E+00 0. -1.
</event>
<event>
 7    1  0.6245487E-013  0.5052885E+02  0.7816164E-02  0.1300439E+00
        -11   -1    0    0    0    0  0.00000000000E+00  0.00000000000E+00  0.45593999997E+02  0.45594000000E+02  0.51100000000E-03 0. -1.
         11   -1    0    0    0    0 -0.00000000000E+00 -0.00000000000E+00 -0.45593999997E+02  0.45594000000E+02  0.51100000000E-03 0.  1.
    9900012    2    1    2    0    0 -0.24072229804E+02 -0.31651083059E+02 -0.84795894745E+01  0.50528846735E+02  0.29999960137E+02 0.  0.
         12    1    1    2    0    0  0.24072229804E+02  0.31651083059E+02  0.84795894745E+01  0.40659153265E+02  0.00000000000E+00 0. -1.
         11    1    3    3    0    0 -0.65217429873E+01 -0.61987523440E+01 -0.14554921253E+02  0.17111498916E+02  0.51100000000E-03 0. -1.
        -11    1    3    3    0    0 -0.14447891034E+02 -0.11254298228E+02  0.29125407208E+01  0.18544100885E+02  0.51100000000E-03 0.  1.
        -12    1    3    3    0    0 -0.31025957826E+01 -0.14198032487E+02  0.31627910572E+01  0.14873246934E+02  0.00000000000E+00 0.  1.
</event>
<event>
 7    1  0.6245487E-013  0.5052886E+02  0.7816164E-02  0.1300439E+00
        -11   -1    0    0    0    0  0.00000000000E+00  0.00000000000E+00  0.45593999997E+02  0.45594000000E+02  0.51100000000E-03 0.  1.
         11   -1    0    0    0    0 -0.00000000000E+00 -0.00000000000E+00 -0.45593999997E+02  0.45594000000E+02  0.51100000000E-03 0. -1.
    9900012    2    1    2    0    0  0.11999656931E+02 -0.16716621022E+02  0.35067482480E+02  0.50528861884E+02  0.30000006183E+02 0.  0.
         12    1    1    2    0    0 -0.11999656931E+02  0.16716621022E+02 -0.35067482480E+02  0.40659138116E+02  0.00000000000E+00 0. -1.
         11    1    3    3    0    0  0.11554277397E+02  0.22760844816E+01  0.68716074943E+01  0.13634547170E+02  0.51100000000E-03 0. -1.
        -11    1    3    3    0    0  0.70909421760E+01 -0.12999503104E+02  0.16553234032E+02  0.22209864904E+02  0.51100000000E-03 0.  1.
        -12    1    3    3    0    0 -0.66455626419E+01 -0.59932023994E+01  0.11642640954E+02  0.14684449810E+02  0.00000000000E+00 0.  1.
</event>
<event>
 7    1  0.6482354E-013  0.5052886E+02  0.7816164E-02  0.1300439E+00
        -11   -1    0    0    0    0  0.00000000000E+00  0.00000000000E+00  0.45593999997E+02  0.45594000000E+02  0.51100000000E-03 0.  1.
         11   -1    0    0    0    0 -0.00000000000E+00 -0.00000000000E+00 -0.45593999997E+02  0.45594000000E+02  0.51100000000E-03 0. -1.
    9900012    2    1    2    0    0  0.15954886257E+02  0.26080907747E+02  0.26802862510E+02  0.50528861014E+02  0.30000003538E+02 0.  0.
         12    1    1    2    0    0 -0.15954886257E+02 -0.26080907747E+02 -0.26802862510E+02  0.40659138986E+02  0.00000000000E+00 0. -1.
         11    1    3    3    0    0 -0.21226113599E+01 -0.30547857153E+00 -0.40408973523E+01  0.45746746131E+01  0.51100000000E-03 0. -1.
        -11    1    3    3    0    0  0.12057470181E+02  0.85131925111E+01  0.17267450390E+02  0.22716114921E+02  0.51100000000E-03 0.  1.
        -12    1    3    3    0    0  0.60200274365E+01  0.17873193807E+02  0.13576309472E+02  0.23238071480E+02  0.00000000000E+00 0.  1.
</event>
<event>
 7    1  0.6245487E-013  0.5052886E+02  0.7816164E-02  0.1300439E+00
        -11   -1    0    0    0    0  0.00000000000E+00  0.00000000000E+00  0.45593999997E+02  0.45594000000E+02  0.51100000000E-03 0. -1.
         11   -1    0    0    0    0 -0.00000000000E+00 -0.00000000000E+00 -0.45593999997E+02  0.45594000000E+02  0.51100000000E-03 0.  1.
    9900012    2    1    2    0    0  0.34653744778E+02 -0.24226421682E+01 -0.21128521342E+02  0.50528860359E+02  0.30000001548E+02 0.  0.
         12    1    1    2    0    0 -0.34653744778E+02  0.24226421682E+01  0.21128521342E+02  0.40659139641E+02  0.00000000000E+00 0. -1.
         11    1    3    3    0    0  0.16590183010E+01  0.67426594186E+01 -0.14561146096E+01  0.70947915949E+01  0.51100000000E-03 0. -1.
        -11    1    3    3    0    0  0.15829246461E+02  0.21299572569E+01 -0.15695245819E+01  0.16048837002E+02  0.51100000000E-03 0.  1.
         12    1    3    3    0    0  0.17165480016E+02 -0.11295258844E+02 -0.18102882150E+02  0.27385231762E+02  0.00000000000E+00 0. -1.
</event>
<event>
 7    1  0.6245487E-013  0.5052878E+02  0.7816164E-02  0.1300439E+00
        -11   -1    0    0    0    0  0.00000000000E+00  0.00000000000E+00  0.45593999997E+02  0.45594000000E+02  0.51100000000E-03 0. -1.
         11   -1    0    0    0    0 -0.00000000000E+00 -0.00000000000E+00 -0.45593999997E+02  0.45594000000E+02  0.51100000000E-03 0.  1.
    9900012    2    1    2    0    0 -0.40054764051E+02 -0.15249593198E+01 -0.68163294441E+01  0.50528782457E+02  0.29999764755E+02 0.  0.
         12    1    1    2    0    0  0.40054764051E+02  0.15249593198E+01  0.68163294441E+01  0.40659217543E+02  0.00000000000E+00 0. -1.
         11    1    3    3    0    0 -0.15344633279E+02  0.95054306153E+01  0.16434876000E+01  0.18124900921E+02  0.51100000000E-03 0. -1.
        -11    1    3    3    0    0 -0.23711761850E+02 -0.47977179052E+01 -0.36456345926E+01  0.24465412299E+02  0.51100000000E-03 0.  1.
         12    1    3    3    0    0 -0.99836892191E+00 -0.62326720298E+01 -0.48141824515E+01  0.79384692361E+01  0.00000000000E+00 0. -1.
</event>
<event>
 7    1  0.6245487E-013  0.5052885E+02  0.7816164E-02  0.1300439E+00
        -11   -1    0    0    0    0  0.00000000000E+00  0.00000000000E+00  0.45593999997E+02  0.45594000000E+02  0.51100000000E-03 0. -1.
         11   -1    0    0    0    0 -0.00000000000E+00 -0.00000000000E+00 -0.45593999997E+02  0.45594000000E+02  0.51100000000E-03 0.  1.
    9900012    2    1    2    0    0 -0.18110444737E+02  0.99351543974E+00 -0.36389432449E+02  0.50528854960E+02  0.29999985135E+02 0.  0.
         12    1    1    2    0    0  0.18110444737E+02 -0.99351543974E+00  0.36389432449E+02  0.40659145040E+02  0.00000000000E+00 0. -1.
         11    1    3    3    0    0 -0.17204416804E+02 -0.21618930381E+00 -0.10796611136E+02  0.20312693265E+02  0.51100000000E-03 0.  1.
        -11    1    3    3    0    0 -0.78479607030E+01  0.18712527941E+01 -0.18902946098E+02  0.20552699231E+02  0.51100000000E-03 0. -1.
         12    1    3    3    0    0  0.69419327704E+01 -0.66154805059E+00 -0.66898752141E+01  0.96634624640E+01  0.00000000000E+00 0. -1.
</event>
<event>
 7    1  0.6245487E-013  0.5052886E+02  0.7816164E-02  0.1300439E+00
        -11   -1    0    0    0    0  0.00000000000E+00  0.00000000000E+00  0.45593999997E+02  0.45594000000E+02  0.51100000000E-03 0. -1.
         11   -1    0    0    0    0 -0.00000000000E+00 -0.00000000000E+00 -0.45593999997E+02  0.45594000000E+02  0.51100000000E-03 0.  1.
    9900012    2    1    2    0    0  0.79832215888E+01  0.32501100458E+02 -0.23089221153E+02  0.50528862142E+02  0.30000006966E+02 0.  0.
         12    1    1    2    0    0 -0.79832215888E+01 -0.32501100458E+02  0.23089221153E+02  0.40659137858E+02  0.00000000000E+00 0. -1.
         11    1    3    3    0    0  0.57890344473E+01  0.48331605428E+01  0.12004791888E+01  0.76363283853E+01  0.51100000000E-03 0. -1.
        -11    1    3    3    0    0 -0.19728510782E+01  0.20795459720E+02 -0.42713876262E+01  0.21321070303E+02  0.51100000000E-03 0.  1.
         12    1    3    3    0    0  0.41670382198E+01  0.68724801954E+01 -0.20018312716E+02  0.21571463454E+02  0.00000000000E+00 0. -1.
</event>
<event>
 7    1  0.6245487E-013  0.5052886E+02  0.7816164E-02  0.1300439E+00
        -11   -1    0    0    0    0  0.00000000000E+00  0.00000000000E+00  0.45593999997E+02  0.45594000000E+02  0.51100000000E-03 0. -1.
         11   -1    0    0    0    0 -0.00000000000E+00 -0.00000000000E+00 -0.45593999997E+02  0.45594000000E+02  0.51100000000E-03 0.  1.
    9900012    2    1    2    0    0 -0.29423427114E+02 -0.15288926920E+02 -0.23530328325E+02  0.50528859569E+02  0.29999999146E+02 0.  0.
         12    1    1    2    0    0  0.29423427114E+02  0.15288926920E+02  0.23530328325E+02  0.40659140431E+02  0.00000000000E+00 0. -1.
         11    1    3    3    0    0 -0.69418799400E-01 -0.61825303643E+01 -0.10500428691E+02  0.12185544864E+02  0.51100000000E-03 0. -1.
        -11    1    3    3    0    0 -0.16325694917E+02 -0.11538904806E+02 -0.14933787152E+02  0.24953810082E+02  0.51100000000E-03 0.  1.
         12    1    3    3    0    0 -0.13028313398E+02  0.24325082509E+01  0.19038875174E+01  0.13389504623E+02  0.00000000000E+00 0. -1.
</event>
<event>
 7    1  0.6245487E-013  0.5052885E+02  0.7816164E-02  0.1300439E+00
        -11   -1    0    0    0    0  0.00000000000E+00  0.00000000000E+00  0.45593999997E+02  0.45594000000E+02  0.51100000000E-03 0.  1.
         11   -1    0    0    0    0 -0.00000000000E+00 -0.00000000000E+00 -0.45593999997E+02  0.45594000000E+02  0.51100000000E-03 0. -1.
    9900012    2    1    2    0    0  0.15220082771E+02  0.11098167371E+02  0.36032572762E+02  0.50528849266E+02  0.29999967830E+02 0.  0.
         12    1    1    2    0    0 -0.15220082771E+02 -0.11098167371E+02 -0.36032572762E+02  0.40659150734E+02  0.00000000000E+00 0. -1.
         11    1    3    3    0    0  0.51691571525E+01  0.28386591436E+01  0.25048402087E+02  0.25733259000E+02  0.51100000000E-03 0.  1.
        -11    1    3    3    0    0  0.94974571607E+01  0.11158523038E+02  0.14218097147E+02  0.20417360644E+02  0.51100000000E-03 0. -1.
         12    1    3    3    0    0  0.55346845747E+00 -0.28990148100E+01 -0.32339264722E+01  0.43782296227E+01  0.00000000000E+00 0. -1.
</event>
<event>
 7    1  0.6245487E-013  0.5052886E+02  0.7816164E-02  0.1300439E+00
        -11   -1    0    0    0    0  0.00000000000E+00  0.00000000000E+00  0.45593999997E+02  0.45594000000E+02  0.51100000000E-03 0. -1.
         11   -1    0    0    0    0 -0.00000000000E+00 -0.00000000000E+00 -0.45593999997E+02  0.45594000000E+02  0.51100000000E-03 0.  1.
    9900012    2    1    2    0    0 -0.38225746893E+02  0.13831137248E+02 -0.81081961191E+00  0.50528861894E+02  0.30000006213E+02 0.  0.
         12    1    1    2    0    0  0.38225746893E+02 -0.13831137248E+02  0.81081961191E+00  0.40659138106E+02  0.00000000000E+00 0. -1.
         11    1    3    3    0    0  0.68898225060E+00  0.85200168514E+01  0.41209386677E+01  0.94893371451E+01  0.51100000000E-03 0. -1.
        -11    1    3    3    0    0 -0.61156652330E+01  0.18044463525E+01 -0.49195570344E+01  0.80535352210E+01  0.51100000000E-03 0.  1.
        -12    1    3    3    0    0 -0.32799063910E+02  0.35066740439E+01 -0.12201245183E-01  0.32985989528E+02  0.00000000000E+00 0.  1.
</event>
<event>
 7    1  0.6245487E-013  0.5052887E+02  0.7816164E-02  0.1300439E+00
        -11   -1    0    0    0    0  0.00000000000E+00  0.00000000000E+00  0.45593999997E+02  0.45594000000E+02  0.51100000000E-03 0.  1.
         11   -1    0    0    0    0 -0.00000000000E+00 -0.00000000000E+00 -0.45593999997E+02  0.45594000000E+02  0.51100000000E-03 0. -1.
    9900012    2    1    2    0    0  0.36478800900E+02  0.15849935415E+02 -0.84404805033E+01  0.50528867215E+02  0.30000022385E+02 0.  0.
         12    1    1    2    0    0 -0.36478800900E+02 -0.15849935415E+02  0.84404805033E+01  0.40659132785E+02  0.00000000000E+00 0. -1.
         11    1    3    3    0    0  0.23492333956E+02 -0.35203154969E+01 -0.10995512833E+01  0.23780062850E+02  0.51100000000E-03 0.  1.
        -11    1    3    3    0    0  0.10576379221E+02  0.76098356530E+01 -0.68816062664E+01  0.14735192607E+02  0.51100000000E-03 0. -1.
        -12    1    3    3    0    0  0.24100877234E+01  0.11760415258E+02 -0.45932295356E+00  0.12013611757E+02  0.00000000000E+00 0.  1.
</event>
<event>
 7    1  0.6245487E-013  0.5052887E+02  0.7816164E-02  0.1300439E+00
        -11   -1    0    0    0    0  0.00000000000E+00  0.00000000000E+00  0.45593999997E+02  0.45594000000E+02  0.51100000000E-03 0. -1.
         11   -1    0    0    0    0 -0.00000000000E+00 -0.00000000000E+00 -0.45593999997E+02  0.45594000000E+02  0.51100000000E-03 0.  1.
    9900012    2    1    2    0    0 -0.27833666040E+02 -0.20249956126E+02  0.21642353982E+02  0.50528866042E+02  0.30000018821E+02 0.  0.
         12    1    1    2    0    0  0.27833666040E+02  0.20249956126E+02 -0.21642353982E+02  0.40659133958E+02  0.00000000000E+00 0. -1.
         11    1    3    3    0    0  0.14908692656E+01  0.28636833566E+01  0.10274371966E+01  0.33880674415E+01  0.51100000000E-03 0. -1.
        -11    1    3    3    0    0 -0.13702222423E+02  0.52338937204E+00  0.96149204137E+01  0.16747284275E+02  0.51100000000E-03 0.  1.
        -12    1    3    3    0    0 -0.15622312882E+02 -0.23637028854E+02  0.10999996372E+02  0.30393514325E+02  0.00000000000E+00 0.  1.
</event>
<event>
 7    1  0.6245487E-013  0.5052886E+02  0.7816164E-02  0.1300439E+00
        -11   -1    0    0    0    0  0.00000000000E+00  0.00000000000E+00  0.45593999997E+02  0.45594000000E+02  0.51100000000E-03 0. -1.
         11   -1    0    0    0    0 -0.00000000000E+00 -0.00000000000E+00 -0.45593999997E+02  0.45594000000E+02  0.51100000000E-03 0.  1.
    9900012    2    1    2    0    0  0.14665828318E+02  0.21615702454E+02 -0.31158313381E+02  0.50528860737E+02  0.30000002698E+02 0.  0.
         12    1    1    2    0    0 -0.14665828318E+02 -0.21615702454E+02  0.31158313381E+02  0.40659139263E+02  0.00000000000E+00 0. -1.
         11    1    3    3    0    0 -0.36008328411E+01  0.90620732319E+01 -0.17510468370E+02  0.20042546525E+02  0.51100000000E-03 0. -1.
        -11    1    3    3    0    0  0.15423315355E+01  0.60713825729E+01 -0.10571056708E+02  0.12287705770E+02  0.51100000000E-03 0.  1.
         12    1    3    3    0    0  0.16724329623E+02  0.64822466494E+01 -0.30767883028E+01  0.18198608442E+02  0.00000000000E+00 0. -1.
</event>
<event>
 7    1  0.6245487E-013  0.5052886E+02  0.7816164E-02  0.1300439E+00
        -11   -1    0    0    0    0  0.00000000000E+00  0.00000000000E+00  0.45593999997E+02  0.45594000000E+02  0.51100000000E-03 0.  1.
         11   -1    0    0    0    0 -0.00000000000E+00 -0.00000000000E+00 -0.45593999997E+02  0.45594000000E+02  0.51100000000E-03 0. -1.
    9900012    2    1    2    0    0 -0.11856586667E+02 -0.54223712351E+01  0.38512136871E+02  0.50528862730E+02  0.30000008754E+02 0.  0.
         12    1    1    2    0    0  0.11856586667E+02  0.54223712351E+01 -0.38512136871E+02  0.40659137270E+02  0.00000000000E+00 0. -1.
         11    1    3    3    0    0  0.65238467152E+01  0.68412325828E+00  0.53092666703E+01  0.84390114014E+01  0.51100000000E-03 0. -1.
        -11    1    3    3    0    0 -0.10404486783E+02 -0.91032789775E+01  0.29918942878E+02  0.32958552403E+02  0.51100000000E-03 0.  1.
        -12    1    3    3    0    0 -0.79759465993E+01  0.29967844841E+01  0.32839273227E+01  0.91312989251E+01  0.00000000000E+00 0.  1.
</event>
<event>
 7    1  0.6245487E-013  0.5052888E+02  0.7816164E-02  0.1300439E+00
        -11   -1    0    0    0    0  0.00000000000E+00  0.00000000000E+00  0.45593999997E+02  0.45594000000E+02  0.51100000000E-03 0.  1.
         11   -1    0    0    0    0 -0.00000000000E+00 -0.00000000000E+00 -0.45593999997E+02  0.45594000000E+02  0.51100000000E-03 0. -1.
    9900012    2    1    2    0    0  0.33017659883E+02  0.26755489917E+01  0.23576259170E+02  0.50528875280E+02  0.30000046900E+02 0.  0.
         12    1    1    2    0    0 -0.33017659883E+02 -0.26755489917E+01 -0.23576259170E+02  0.40659124720E+02  0.00000000000E+00 0. -1.
         11    1    3    3    0    0  0.20386738293E+02  0.86353788720E+01  0.11547100127E+02  0.24970470322E+02  0.51100000000E-03 0. -1.
        -11    1    3    3    0    0  0.15566320984E+02 -0.25142505100E+01  0.13542844854E+02  0.20785582782E+02  0.51100000000E-03 0.  1.
         12    1    3    3    0    0 -0.29353993933E+01 -0.34455793702E+01 -0.15136858097E+01  0.47728221762E+01  0.00000000000E+00 0. -1.
</event>
<event>
 7    1  0.6245487E-013  0.5052886E+02  0.7816164E-02  0.1300439E+00
        -11   -1    0    0    0    0  0.00000000000E+00  0.00000000000E+00  0.45593999997E+02  0.45594000000E+02  0.51100000000E-03 0.  1.
         11   -1    0    0    0    0 -0.00000000000E+00 -0.00000000000E+00 -0.45593999997E+02  0.45594000000E+02  0.51100000000E-03 0. -1.
    9900012    2    1    2    0    0 -0.15512546732E+02  0.15742999494E+02  0.34127477478E+02  0.50528857631E+02  0.29999993254E+02 0.  0.
         12    1    1    2    0    0  0.15512546732E+02 -0.15742999494E+02 -0.34127477478E+02  0.40659142369E+02  0.00000000000E+00 0. -1.
         11    1    3    3    0    0 -0.81035081991E+01 -0.16206311113E+01  0.41532650427E+01  0.92489405397E+01  0.51100000000E-03 0. -1.
        -11    1    3    3    0    0 -0.48843980791E+01 -0.11869607053E+01  0.18836897169E+02  0.19496023069E+02  0.51100000000E-03 0.  1.
         12    1    3    3    0    0 -0.25246404539E+01  0.18550591310E+02  0.11137315267E+02  0.21783894022E+02  0.00000000000E+00 0. -1.
</event>
<event>
 7    1  0.6245487E-013  0.5052878E+02  0.7816164E-02  0.1300439E+00
        -11   -1    0    0    0    0  0.00000000000E+00  0.00000000000E+00  0.45593999997E+02  0.45594000000E+02  0.51100000000E-03 0.  1.
         11   -1    0    0    0    0 -0.00000000000E+00 -0.00000000000E+00 -0.45593999997E+02  0.45594000000E+02  0.51100000000E-03 0. -1.
    9900012    2    1    2    0    0  0.98080589837E+01  0.23428797982E+02  0.31750043361E+02  0.50528783956E+02  0.29999769310E+02 0.  0.
         12    1    1    2    0    0 -0.98080589837E+01 -0.23428797982E+02 -0.31750043361E+02  0.40659216044E+02  0.00000000000E+00 0. -1.
         11    1    3    3    0    0 -0.49576464235E+00  0.24538907108E+01 -0.29125037058E+01  0.38405781203E+01  0.51100000000E-03 0. -1.
        -11    1    3    3    0    0 -0.29259526383E+01  0.15848095788E+02  0.12598640091E+02  0.20456027751E+02  0.51100000000E-03 0.  1.
        -12    1    3    3    0    0  0.13229776264E+02  0.51268114833E+01  0.22063906976E+02  0.26232178084E+02  0.00000000000E+00 0.  1.
</event>
<event>
 7    1  0.6245487E-013  0.5052885E+02  0.7816164E-02  0.1300439E+00
        -11   -1    0    0    0    0  0.00000000000E+00  0.00000000000E+00  0.45593999997E+02  0.45594000000E+02  0.51100000000E-03 0.  1.
         11   -1    0    0    0    0 -0.00000000000E+00 -0.00000000000E+00 -0.45593999997E+02  0.45594000000E+02  0.51100000000E-03 0. -1.
    9900012    2    1    2    0    0 -0.11646226182E+02 -0.15312060400E+02  0.35820003699E+02  0.50528850440E+02  0.29999971397E+02 0.  0.
         12    1    1    2    0    0  0.11646226182E+02  0.15312060400E+02 -0.35820003699E+02  0.40659149560E+02  0.00000000000E+00 0. -1.
         11    1    3    3    0    0 -0.96194095728E+01  0.67999784446E+00  0.17908701458E+02  0.20340035048E+02  0.51100000000E-03 0. -1.
        -11    1    3    3    0    0  0.28249901600E+01 -0.66870051993E+01  0.18300413338E+02  0.19687603626E+02  0.51100000000E-03 0.  1.
         12    1    3    3    0    0 -0.48518067696E+01 -0.93050530449E+01 -0.38911109694E+00  0.10501211765E+02  0.00000000000E+00 0. -1.
</event>
<event>
 7    1  0.6245487E-013  0.5052887E+02  0.7816164E-02  0.1300439E+00
        -11   -1    0    0    0    0  0.00000000000E+00  0.00000000000E+00  0.45593999997E+02  0.45594000000E+02  0.51100000000E-03 0.  1.
         11   -1    0    0    0    0 -0.00000000000E+00 -0.00000000000E+00 -0.45593999997E+02  0.45594000000E+02  0.51100000000E-03 0. -1.
    9900012    2    1    2    0    0  0.80985557479E+01  0.14518258408E+02  0.37105229224E+02  0.50528874725E+02  0.30000045213E+02 0.  0.
         12    1    1    2    0    0 -0.80985557479E+01 -0.14518258408E+02 -0.37105229224E+02  0.40659125275E+02  0.00000000000E+00 0. -1.
         11    1    3    3    0    0  0.10378810685E+01  0.14764127510E+01  0.10737248980E+02  0.10887860563E+02  0.51100000000E-03 0. -1.
        -11    1    3    3    0    0  0.15645141267E+02  0.13651033352E+02  0.20806076490E+02  0.29394114649E+02  0.51100000000E-03 0.  1.
         12    1    3    3    0    0 -0.85844665876E+01 -0.60918769547E+00  0.55619037543E+01  0.10246899512E+02  0.00000000000E+00 0. -1.
</event>
<event>
 7    1  0.6245487E-013  0.5052886E+02  0.7816164E-02  0.1300439E+00
        -11   -1    0    0    0    0  0.00000000000E+00  0.00000000000E+00  0.45593999997E+02  0.45594000000E+02  0.51100000000E-03 0.  1.
         11   -1    0    0    0    0 -0.00000000000E+00 -0.00000000000E+00 -0.45593999997E+02  0.45594000000E+02  0.51100000000E-03 0. -1.
    9900012    2    1    2    0    0  0.39975771867E+02  0.76513566138E+00  0.73836232931E+01  0.50528860045E+02  0.30000000592E+02 0.  0.
         12    1    1    2    0    0 -0.39975771867E+02 -0.76513566138E+00 -0.73836232931E+01  0.40659139955E+02  0.00000000000E+00 0. -1.
         11    1    3    3    0    0 -0.18571305370E+01 -0.83162241131E+00 -0.47597231571E+01  0.51764364634E+01  0.51100000000E-03 0.  1.
        -11    1    3    3    0    0  0.17694113005E+02 -0.31562944198E+01  0.13038365918E+00  0.17973893002E+02  0.51100000000E-03 0. -1.
        -12    1    3    3    0    0  0.24138789400E+02  0.47530524925E+01  0.12012962791E+02  0.27378530580E+02  0.00000000000E+00 0.  1.
</event>
<event>
 7    1  0.6245487E-013  0.5052886E+02  0.7816164E-02  0.1300439E+00
        -11   -1    0    0    0    0  0.00000000000E+00  0.00000000000E+00  0.45593999997E+02  0.45594000000E+02  0.51100000000E-03 0.  1.
         11   -1    0    0    0    0 -0.00000000000E+00 -0.00000000000E+00 -0.45593999997E+02  0.45594000000E+02  0.51100000000E-03 0. -1.
    9900012    2    1    2    0    0 -0.43292031629E+01  0.19999479887E+02  0.35134661837E+02  0.50528860091E+02  0.30000000732E+02 0.  0.
         12    1    1    2    0    0  0.43292031629E+01 -0.19999479887E+02 -0.35134661837E+02  0.40659139909E+02  0.00000000000E+00 0. -1.
         11    1    3    3    0    0 -0.88833729680E+01  0.19183769064E+02  0.38714604436E+02  0.44110677933E+02  0.51100000000E-03 0. -1.
        -11    1    3    3    0    0 -0.60279838379E-01 -0.48108075435E+00 -0.61089988263E+00  0.77991748207E+00  0.51100000000E-03 0.  1.
         12    1    3    3    0    0  0.46144496435E+01  0.12967915771E+01 -0.29690427161E+01  0.56382646760E+01  0.00000000000E+00 0. -1.
</event>
<event>
 7    1  0.6245487E-013  0.5052889E+02  0.7816164E-02  0.1300439E+00
        -11   -1    0    0    0    0  0.00000000000E+00  0.00000000000E+00  0.45593999997E+02  0.45594000000E+02  0.51100000000E-03 0. -1.
         11   -1    0    0    0    0 -0.00000000000E+00 -0.00000000000E+00 -0.45593999997E+02  0.45594000000E+02  0.51100000000E-03 0.  1.
    9900012    2    1    2    0    0 -0.25091129724E+02  0.20034164319E+02 -0.24944551126E+02  0.50528890792E+02  0.30000094050E+02 0.  0.
         12    1    1    2    0    0  0.25091129724E+02 -0.20034164319E+02  0.24944551126E+02  0.40659109208E+02  0.00000000000E+00 0. -1.
         11    1    3    3    0    0 -0.15773284516E+02  0.32677380624E+00 -0.72760103734E+01  0.17373647077E+02  0.51100000000E-03 0.  1.
        -11    1    3    3    0    0 -0.70508495847E+01  0.15313053933E+02 -0.21194969437E+02  0.27081928113E+02  0.51100000000E-03 0. -1.
         12    1    3    3    0    0 -0.22669956234E+01  0.43943365802E+01  0.35264286847E+01  0.60733156022E+01  0.00000000000E+00 0. -1.
</event>
<event>
 7    1  0.6245487E-013  0.5052872E+02  0.7816164E-02  0.1300439E+00
        -11   -1    0    0    0    0  0.00000000000E+00  0.00000000000E+00  0.45593999997E+02  0.45594000000E+02  0.51100000000E-03 0. -1.
         11   -1    0    0    0    0 -0.00000000000E+00 -0.00000000000E+00 -0.45593999997E+02  0.45594000000E+02  0.51100000000E-03 0.  1.
    9900012    2    1    2    0    0  0.19671020142E+02  0.26130121702E+02 -0.24154594486E+02  0.50528723956E+02  0.29999586935E+02 0.  0.
         12    1    1    2    0    0 -0.19671020142E+02 -0.26130121702E+02  0.24154594486E+02  0.40659276044E+02  0.00000000000E+00 0. -1.
         11    1    3    3    0    0  0.97690888427E+01  0.10507649104E+01 -0.31308853399E+01  0.10312208638E+02  0.51100000000E-03 0.  1.
        -11    1    3    3    0    0  0.11068947615E+02  0.27442804459E+02 -0.14041857493E+02  0.32753669718E+02  0.51100000000E-03 0. -1.
         12    1    3    3    0    0 -0.11670163156E+01 -0.23634476672E+01 -0.69818516530E+01  0.74628456007E+01  0.00000000000E+00 0. -1.
</event>
<event>
 7    1  0.6245487E-013  0.5052889E+02  0.7816164E-02  0.1300439E+00
        -11   -1    0    0    0    0  0.00000000000E+00  0.00000000000E+00  0.45593999997E+02  0.45594000000E+02  0.51100000000E-03 0.  1.
         11   -1    0    0    0    0 -0.00000000000E+00 -0.00000000000E+00 -0.45593999997E+02  0.45594000000E+02  0.51100000000E-03 0. -1.
    9900012    2    1    2    0    0 -0.37534676702E+02  0.13445139347E+02  0.79711865979E+01  0.50528886102E+02  0.30000079795E+02 0.  0.
         12    1    1    2    0    0  0.37534676702E+02 -0.13445139347E+02 -0.79711865979E+01  0.40659113898E+02  0.00000000000E+00 0. -1.
         11    1    3    3    0    0  0.22964567226E+01 -0.21415205430E+01 -0.37415583870E+00  0.31622486568E+01  0.51100000000E-03 0. -1.
        -11    1    3    3    0    0 -0.20049949070E+02 -0.88010517780E+00 -0.71064404021E+00  0.20081834031E+02  0.51100000000E-03 0.  1.
         12    1    3    3    0    0 -0.19781184355E+02  0.16466765068E+02  0.90559864768E+01  0.27284803414E+02  0.00000000000E+00 0. -1.
</event>
<event>
 7    1  0.6614922E-013  0.5052886E+02  0.7816164E-02  0.1300439E+00
        -11   -1    0    0    0    0  0.00000000000E+00  0.00000000000E+00  0.45593999997E+02  0.45594000000E+02  0.51100000000E-03 0. -1.
         11   -1    0    0    0    0 -0.00000000000E+00 -0.00000000000E+00 -0.45593999997E+02  0.45594000000E+02  0.51100000000E-03 0.  1.
    9900012    2    1    2    0    0  0.33580870773E+02  0.13398699640E+01 -0.22884388214E+02  0.50528863790E+02  0.30000011977E+02 0.  0.
         12    1    1    2    0    0 -0.33580870773E+02 -0.13398699640E+01  0.22884388214E+02  0.40659136210E+02  0.00000000000E+00 0. -1.
         11    1    3    3    0    0  0.56445205231E+01  0.88139659566E+01 -0.87969125220E+01  0.13672317945E+02  0.51100000000E-03 0. -1.
        -11    1    3    3    0    0  0.10900198325E+02 -0.67193329844E+01 -0.15069933463E+02  0.19775405283E+02  0.51100000000E-03 0.  1.
        -12    1    3    3    0    0  0.17036151925E+02 -0.75476300818E+00  0.98245777112E+00  0.17081140561E+02  0.00000000000E+00 0.  1.
</event>
<event>
 7    1  0.6245487E-013  0.5052885E+02  0.7816164E-02  0.1300439E+00
        -11   -1    0    0    0    0  0.00000000000E+00  0.00000000000E+00  0.45593999997E+02  0.45594000000E+02  0.51100000000E-03 0.  1.
         11   -1    0    0    0    0 -0.00000000000E+00 -0.00000000000E+00 -0.45593999997E+02  0.45594000000E+02  0.51100000000E-03 0. -1.
    9900012    2    1    2    0    0 -0.22347539252E+02 -0.33189015611E+02 -0.72279280825E+01  0.50528853277E+02  0.29999980022E+02 0.  0.
         12    1    1    2    0    0  0.22347539252E+02  0.33189015611E+02  0.72279280825E+01  0.40659146723E+02  0.00000000000E+00 0. -1.
         11    1    3    3    0    0 -0.13052897246E+02 -0.19842057613E+02 -0.41559422750E+01  0.24111350715E+02  0.51100000000E-03 0. -1.
        -11    1    3    3    0    0 -0.78596209743E+01 -0.18068149045E+02  0.14065084866E+01  0.19753731753E+02  0.51100000000E-03 0.  1.
         12    1    3    3    0    0 -0.14350210314E+01  0.47211910470E+01 -0.44784942942E+01  0.66637708098E+01  0.00000000000E+00 0. -1.
</event>
<event>
 7    1  0.6245487E-013  0.5052884E+02  0.7816164E-02  0.1300439E+00
        -11   -1    0    0    0    0  0.00000000000E+00  0.00000000000E+00  0.45593999997E+02  0.45594000000E+02  0.51100000000E-03 0.  1.
         11   -1    0    0    0    0 -0.00000000000E+00 -0.00000000000E+00 -0.45593999997E+02  0.45594000000E+02  0.51100000000E-03 0. -1.
    9900012    2    1    2    0    0 -0.87352317752E+01 -0.80693418375E+00  0.39701530401E+02  0.50528844412E+02  0.29999953075E+02 0.  0.
         12    1    1    2    0    0  0.87352317752E+01  0.80693418375E+00 -0.39701530401E+02  0.40659155588E+02  0.00000000000E+00 0. -1.
         11    1    3    3    0    0  0.13375546000E+01 -0.95403323662E+01  0.16630095483E+02  0.19218924788E+02  0.51100000000E-03 0. -1.
        -11    1    3    3    0    0 -0.99654701590E+01 -0.77327401763E+00  0.56985418773E+01  0.11505734570E+02  0.51100000000E-03 0.  1.
         12    1    3    3    0    0 -0.10731621617E+00  0.95066722001E+01  0.17372893040E+02  0.19804185055E+02  0.00000000000E+00 0. -1.
</event>
<event>
 7    1  0.6245487E-013  0.5052887E+02  0.7816164E-02  0.1300439E+00
        -11   -1    0    0    0    0  0.00000000000E+00  0.00000000000E+00  0.45593999997E+02  0.45594000000E+02  0.51100000000E-03 0.  1.
         11   -1    0    0    0    0 -0.00000000000E+00 -0.00000000000E+00 -0.45593999997E+02  0.45594000000E+02  0.51100000000E-03 0. -1.
    9900012    2    1    2    0    0 -0.34100383655E+02 -0.15642626598E+02  0.15672807403E+02  0.50528870347E+02  0.30000031906E+02 0.  0.
         12    1    1    2    0    0  0.34100383655E+02  0.15642626598E+02 -0.15672807403E+02  0.40659129653E+02  0.00000000000E+00 0. -1.
         11    1    3    3    0    0 -0.36164200174E+01  0.12630798852E+01  0.51838078698E+01  0.64455976317E+01  0.51100000000E-03 0. -1.
        -11    1    3    3    0    0 -0.23295974386E+02 -0.71484438012E+00 -0.36127630387E+00  0.23309739293E+02  0.51100000000E-03 0.  1.
         12    1    3    3    0    0 -0.71879892512E+01 -0.16190862103E+02  0.10850275837E+02  0.20773533422E+02  0.00000000000E+00 0. -1.
</event>
<event>
 7    1  0.6245487E-013  0.5052886E+02  0.7816164E-02  0.1300439E+00
        -11   -1    0    0    0    0  0.00000000000E+00  0.00000000000E+00  0.45593999997E+02  0.45594000000E+02  0.51100000000E-03 0.  1.
         11   -1    0    0    0    0 -0.00000000000E+00 -0.00000000000E+00 -0.45593999997E+02  0.45594000000E+02  0.51100000000E-03 0. -1.
    9900012    2    1    2    0    0 -0.39257363188E+02  0.77934467438E+01 -0.71615227006E+01  0.50528858543E+02  0.29999996027E+02 0.  0.
         12    1    1    2    0    0  0.39257363188E+02 -0.77934467438E+01  0.71615227006E+01  0.40659141457E+02  0.00000000000E+00 0. -1.
         11    1    3    3    0    0 -0.15796380223E+02 -0.78837756483E+01  0.84723556197E+00  0.17674766052E+02  0.51100000000E-03 0. -1.
        -11    1    3    3    0    0 -0.72331602050E+00  0.47468673048E+01  0.26293971780E+01  0.54744556858E+01  0.51100000000E-03 0.  1.
        -12    1    3    3    0    0 -0.22737666944E+02  0.10930355087E+02 -0.10638155441E+02  0.27379636805E+02  0.00000000000E+00 0.  1.
</event>
<event>
 7    1  0.6245487E-013  0.5052887E+02  0.7816164E-02  0.1300439E+00
        -11   -1    0    0    0    0  0.00000000000E+00  0.00000000000E+00  0.45593999997E+02  0.45594000000E+02  0.51100000000E-03 0.  1.
         11   -1    0    0    0    0 -0.00000000000E+00 -0.00000000000E+00 -0.45593999997E+02  0.45594000000E+02  0.51100000000E-03 0. -1.
    9900012    2    1    2    0    0  0.33942175090E+02  0.21980344129E+02  0.42377050649E+01  0.50528869143E+02  0.30000028246E+02 0.  0.
         12    1    1    2    0    0 -0.33942175090E+02 -0.21980344129E+02 -0.42377050649E+01  0.40659130857E+02  0.00000000000E+00 0. -1.
         11    1    3    3    0    0  0.24093149446E+02  0.16354975600E+02  0.16254092079E+02  0.33349071751E+02  0.51100000000E-03 0.  1.
        -11    1    3    3    0    0  0.42508624016E+01  0.82093932107E+00 -0.20769613358E+01  0.48018268584E+01  0.51100000000E-03 0. -1.
        -12    1    3    3    0    0  0.55981632419E+01  0.48044292084E+01 -0.99394256784E+01  0.12377970533E+02  0.00000000000E+00 0.  1.
</event>
<event>
 7    1  0.6245487E-013  0.5052887E+02  0.7816164E-02  0.1300439E+00
        -11   -1    0    0    0    0  0.00000000000E+00  0.00000000000E+00  0.45593999997E+02  0.45594000000E+02  0.51100000000E-03 0.  1.
         11   -1    0    0    0    0 -0.00000000000E+00 -0.00000000000E+00 -0.45593999997E+02  0.45594000000E+02  0.51100000000E-03 0. -1.
    9900012    2    1    2    0    0  0.34349044988E+02  0.21567593873E+02  0.28542836803E+01  0.50528869015E+02  0.30000027859E+02 0.  0.
         12    1    1    2    0    0 -0.34349044988E+02 -0.21567593873E+02 -0.28542836803E+01  0.40659130985E+02  0.00000000000E+00 0. -1.
         11    1    3    3    0    0 -0.19870106011E+01  0.79666432963E+01  0.14659761979E+01  0.83405457264E+01  0.51100000000E-03 0. -1.
        -11    1    3    3    0    0  0.15174385182E+02  0.12942439142E+02  0.53493230522E+01  0.20649066661E+02  0.51100000000E-03 0.  1.
         12    1    3    3    0    0  0.21161670407E+02  0.65851143496E+00 -0.39610155698E+01  0.21539256628E+02  0.00000000000E+00 0. -1.
</event>
<event>
 7    1  0.6245487E-013  0.5052888E+02  0.7816164E-02  0.1300439E+00
        -11   -1    0    0    0    0  0.00000000000E+00  0.00000000000E+00  0.45593999997E+02  0.45594000000E+02  0.51100000000E-03 0. -1.
         11   -1    0    0    0    0 -0.00000000000E+00 -0.00000000000E+00 -0.45593999997E+02  0.45594000000E+02  0.51100000000E-03 0.  1.
    9900012    2    1    2    0    0  0.12325188722E+02  0.38742915008E+02 -0.49039651937E+00  0.50528877665E+02  0.30000054149E+02 0.  0.
         12    1    1    2    0    0 -0.12325188722E+02 -0.38742915008E+02  0.49039651937E+00  0.40659122335E+02  0.00000000000E+00 0. -1.
         11    1    3    3    0    0  0.11741462616E+02  0.49067257469E+01  0.81645948541E+00  0.12751647277E+02  0.51100000000E-03 0. -1.
        -11    1    3    3    0    0  0.78260615322E+01  0.25679117194E+02 -0.10662485636E+01  0.26866357870E+02  0.51100000000E-03 0.  1.
         12    1    3    3    0    0 -0.72423354269E+01  0.81570720674E+01 -0.24060744121E+00  0.10910872517E+02  0.00000000000E+00 0. -1.
</event>
<event>
 7    1  0.6245487E-013  0.5052877E+02  0.7816164E-02  0.1300439E+00
        -11   -1    0    0    0    0  0.00000000000E+00  0.00000000000E+00  0.45593999997E+02  0.45594000000E+02  0.51100000000E-03 0.  1.
         11   -1    0    0    0    0 -0.00000000000E+00 -0.00000000000E+00 -0.45593999997E+02  0.45594000000E+02  0.51100000000E-03 0. -1.
    9900012    2    1    2    0    0 -0.61832411977E+01  0.40183934073E+02 -0.43780480741E+00  0.50528773466E+02  0.29999737426E+02 0.  0.
         12    1    1    2    0    0  0.61832411977E+01 -0.40183934073E+02  0.43780480741E+00  0.40659226534E+02  0.00000000000E+00 0. -1.
         11    1    3    3    0    0  0.74785276254E+01  0.11504760709E+02 -0.14676959282E+01  0.13800073406E+02  0.51100000000E-03 0.  1.
        -11    1    3    3    0    0 -0.82162297756E+01  0.22056151335E+01 -0.37230766866E+01  0.92861439854E+01  0.51100000000E-03 0. -1.
         12    1    3    3    0    0 -0.54455390476E+01  0.26473558231E+02  0.47529678074E+01  0.27442556074E+02  0.00000000000E+00 0. -1.
</event>
<event>
 7    1  0.6245487E-013  0.5052886E+02  0.7816164E-02  0.1300439E+00
        -11   -1    0    0    0    0  0.00000000000E+00  0.00000000000E+00  0.45593999997E+02  0.45594000000E+02  0.51100000000E-03 0. -1.
         11   -1    0    0    0    0 -0.00000000000E+00 -0.00000000000E+00 -0.45593999997E+02  0.45594000000E+02  0.51100000000E-03 0.  1.
    9900012    2    1    2    0    0 -0.65205712826E+01  0.39245643894E+02 -0.83920788800E+01  0.50528863236E+02  0.30000010292E+02 0.  0.
         12    1    1    2    0    0  0.65205712826E+01 -0.39245643894E+02  0.83920788800E+01  0.40659136764E+02  0.00000000000E+00 0. -1.
         11    1    3    3    0    0 -0.21749611200E+01  0.82960995195E+01  0.23899484052E+01  0.89032340614E+01  0.51100000000E-03 0. -1.
        -11    1    3    3    0    0  0.56273739399E+01 -0.18492404187E+01 -0.15623241306E+01  0.61260006967E+01  0.51100000000E-03 0.  1.
         12    1    3    3    0    0 -0.99729841026E+01  0.32798784793E+02 -0.92197031546E+01  0.35499628478E+02  0.00000000000E+00 0. -1.
</event>
<event>
 7    1  0.6245487E-013  0.5052885E+02  0.7816164E-02  0.1300439E+00
        -11   -1    0    0    0    0  0.00000000000E+00  0.00000000000E+00  0.45593999997E+02  0.45594000000E+02  0.51100000000E-03 0.  1.
         11   -1    0    0    0    0 -0.00000000000E+00 -0.00000000000E+00 -0.45593999997E+02  0.45594000000E+02  0.51100000000E-03 0. -1.
    9900012    2    1    2    0    0  0.35211646410E+02  0.19508493621E+02  0.57205798504E+01  0.50528850967E+02  0.29999973000E+02 0.  0.
         12    1    1    2    0    0 -0.35211646410E+02 -0.19508493621E+02 -0.57205798504E+01  0.40659149033E+02  0.00000000000E+00 0. -1.
         11    1    3    3    0    0  0.15939130924E+02  0.94950249174E+01 -0.81350870449E+01  0.20258110333E+02  0.51100000000E-03 0. -1.
        -11    1    3    3    0    0  0.78032868423E+01  0.35345930513E+01 -0.28211176109E+01  0.90190541864E+01  0.51100000000E-03 0.  1.
        -12    1    3    3    0    0  0.11469228644E+02  0.64788756525E+01  0.16676784506E+02  0.21251686448E+02  0.00000000000E+00 0.  1.
</event>
<event>
 7    1  0.6245487E-013  0.5052886E+02  0.7816164E-02  0.1300439E+00
        -11   -1    0    0    0    0  0.00000000000E+00  0.00000000000E+00  0.45593999997E+02  0.45594000000E+02  0.51100000000E-03 0.  1.
         11   -1    0    0    0    0 -0.00000000000E+00 -0.00000000000E+00 -0.45593999997E+02  0.45594000000E+02  0.51100000000E-03 0. -1.
    9900012    2    1    2    0    0 -0.22480986111E+02 -0.16764412764E+02  0.29440204944E+02  0.50528856637E+02  0.29999990235E+02 0.  0.
         12    1    1    2    0    0  0.22480986111E+02  0.16764412764E+02 -0.29440204944E+02  0.40659143363E+02  0.00000000000E+00 0. -1.
         11    1    3    3    0    0  0.20408037106E+01 -0.19475110095E+01  0.15705982790E+02  0.15957304740E+02  0.51100000000E-03 0. -1.
        -11    1    3    3    0    0 -0.75681117152E+01 -0.69005099616E+01  0.12006186632E+02  0.15781060495E+02  0.51100000000E-03 0.  1.
        -12    1    3    3    0    0 -0.16953678106E+02 -0.79163917933E+01  0.17280355222E+01  0.18790491402E+02  0.00000000000E+00 0.  1.
</event>
<event>
 7    1  0.6245487E-013  0.5052888E+02  0.7816164E-02  0.1300439E+00
        -11   -1    0    0    0    0  0.00000000000E+00  0.00000000000E+00  0.45593999997E+02  0.45594000000E+02  0.51100000000E-03 0.  1.
         11   -1    0    0    0    0 -0.00000000000E+00 -0.00000000000E+00 -0.45593999997E+02  0.45594000000E+02  0.51100000000E-03 0. -1.
    9900012    2    1    2    0    0 -0.61192939774E+00 -0.16046901546E+02  0.37353534628E+02  0.50528879793E+02  0.30000060619E+02 0.  0.
         12    1    1    2    0    0  0.61192939774E+00  0.16046901546E+02 -0.37353534628E+02  0.40659120207E+02  0.00000000000E+00 0. -1.
         11    1    3    3    0    0  0.53356136009E+01  0.29202084242E+01 -0.19333021007E+01  0.63823230106E+01  0.51100000000E-03 0. -1.
        -11    1    3    3    0    0 -0.24886354101E+01 -0.80671809701E+01  0.20245289412E+02  0.21935005326E+02  0.51100000000E-03 0.  1.
         12    1    3    3    0    0 -0.34589075885E+01 -0.10899929000E+02  0.19041547316E+02  0.22211551457E+02  0.00000000000E+00 0. -1.
</event>
<event>
 7    1  0.6245487E-013  0.5052885E+02  0.7816164E-02  0.1300439E+00
        -11   -1    0    0    0    0  0.00000000000E+00  0.00000000000E+00  0.45593999997E+02  0.45594000000E+02  0.51100000000E-03 0.  1.
         11   -1    0    0    0    0 -0.00000000000E+00 -0.00000000000E+00 -0.45593999997E+02  0.45594000000E+02  0.51100000000E-03 0. -1.
    9900012    2    1    2    0    0 -0.11536633707E+01 -0.22049145652E+01  0.40582924766E+02  0.50528851337E+02  0.29999974124E+02 0.  0.
         12    1    1    2    0    0  0.11536633707E+01  0.22049145652E+01 -0.40582924766E+02  0.40659148663E+02  0.00000000000E+00 0. -1.
         11    1    3    3    0    0 -0.29354020124E+01  0.98852879278E+01  0.18719543618E+02  0.21371869734E+02  0.51100000000E-03 0. -1.
        -11    1    3    3    0    0 -0.60149004405E+01 -0.53455899482E+01  0.14163159145E+02  0.16289549915E+02  0.51100000000E-03 0.  1.
         12    1    3    3    0    0  0.77966390822E+01 -0.67446125448E+01  0.77002220036E+01  0.12867431689E+02  0.00000000000E+00 0. -1.
</event>
<event>
 7    1  0.6245487E-013  0.5052885E+02  0.7816164E-02  0.1300439E+00
        -11   -1    0    0    0    0  0.00000000000E+00  0.00000000000E+00  0.45593999997E+02  0.45594000000E+02  0.51100000000E-03 0.  1.
         11   -1    0    0    0    0 -0.00000000000E+00 -0.00000000000E+00 -0.45593999997E+02  0.45594000000E+02  0.51100000000E-03 0. -1.
    9900012    2    1    2    0    0  0.16012293325E+02  0.37367987272E+02  0.63743617104E+00  0.50528851765E+02  0.29999975425E+02 0.  0.
         12    1    1    2    0    0 -0.16012293325E+02 -0.37367987272E+02 -0.63743617104E+00  0.40659148235E+02  0.00000000000E+00 0. -1.
         11    1    3    3    0    0  0.39220871951E+01  0.91557885615E+01 -0.26974706722E+01  0.10319281973E+02  0.51100000000E-03 0. -1.
        -11    1    3    3    0    0  0.94158703330E+01  0.17546514455E+02  0.14427538411E+02  0.24590499151E+02  0.51100000000E-03 0.  1.
         12    1    3    3    0    0  0.26743357972E+01  0.10665684255E+02 -0.11092631567E+02  0.15619070641E+02  0.00000000000E+00 0. -1.
</event>
<event>
 7    1  0.6245487E-013  0.5052886E+02  0.7816164E-02  0.1300439E+00
        -11   -1    0    0    0    0  0.00000000000E+00  0.00000000000E+00  0.45593999997E+02  0.45594000000E+02  0.51100000000E-03 0. -1.
         11   -1    0    0    0    0 -0.00000000000E+00 -0.00000000000E+00 -0.45593999997E+02  0.45594000000E+02  0.51100000000E-03 0.  1.
    9900012    2    1    2    0    0 -0.30098307999E+02  0.25249240511E+02 -0.10475376632E+02  0.50528858268E+02  0.29999995193E+02 0.  0.
         12    1    1    2    0    0  0.30098307999E+02 -0.25249240511E+02  0.10475376632E+02  0.40659141732E+02  0.00000000000E+00 0. -1.
         11    1    3    3    0    0 -0.63145876167E-01 -0.15905719724E+01 -0.55609633824E+01  0.57843081351E+01  0.51100000000E-03 0. -1.
        -11    1    3    3    0    0 -0.35174120550E+01  0.11968035533E+02 -0.69382892691E+01  0.14273959518E+02  0.51100000000E-03 0.  1.
         12    1    3    3    0    0 -0.26517750068E+02  0.14871776950E+02  0.20238760191E+01  0.30470590615E+02  0.00000000000E+00 0. -1.
</event>
<event>
 7    1  0.6245487E-013  0.5052886E+02  0.7816164E-02  0.1300439E+00
        -11   -1    0    0    0    0  0.00000000000E+00  0.00000000000E+00  0.45593999997E+02  0.45594000000E+02  0.51100000000E-03 0. -1.
         11   -1    0    0    0    0 -0.00000000000E+00 -0.00000000000E+00 -0.45593999997E+02  0.45594000000E+02  0.51100000000E-03 0.  1.
    9900012    2    1    2    0    0  0.44514679579E+01  0.39597551152E+02  0.80860431170E+01  0.50528859361E+02  0.29999998515E+02 0.  0.
         12    1    1    2    0    0 -0.44514679579E+01 -0.39597551152E+02 -0.80860431170E+01  0.40659140639E+02  0.00000000000E+00 0. -1.
         11    1    3    3    0    0 -0.22529227295E+01  0.17772297197E+02  0.18242830721E+01  0.18007171279E+02  0.51100000000E-03 0. -1.
        -11    1    3    3    0    0  0.13555528749E+02  0.17338789653E+02 -0.32641810418E+00  0.22011191139E+02  0.51100000000E-03 0.  1.
         12    1    3    3    0    0 -0.68511380621E+01  0.44864643016E+01  0.65881781491E+01  0.10510496944E+02  0.00000000000E+00 0. -1.
</event>
<event>
 7    1  0.6245487E-013  0.5052885E+02  0.7816164E-02  0.1300439E+00
        -11   -1    0    0    0    0  0.00000000000E+00  0.00000000000E+00  0.45593999997E+02  0.45594000000E+02  0.51100000000E-03 0.  1.
         11   -1    0    0    0    0 -0.00000000000E+00 -0.00000000000E+00 -0.45593999997E+02  0.45594000000E+02  0.51100000000E-03 0. -1.
    9900012    2    1    2    0    0  0.40276340010E+02 -0.44511262814E+01  0.33421967553E+01  0.50528851350E+02  0.29999974164E+02 0.  0.
         12    1    1    2    0    0 -0.40276340010E+02  0.44511262814E+01 -0.33421967553E+01  0.40659148650E+02  0.00000000000E+00 0. -1.
         11    1    3    3    0    0  0.12541270462E+02 -0.11733053868E+02 -0.37038230229E+00  0.17178044161E+02  0.51100000000E-03 0. -1.
        -11    1    3    3    0    0  0.17832543518E+02 -0.32212825386E+01  0.51643982527E+01  0.18842698296E+02  0.51100000000E-03 0.  1.
        -12    1    3    3    0    0  0.99025260294E+01  0.10503210125E+02 -0.14518191951E+01  0.14508108893E+02  0.00000000000E+00 0.  1.
</event>
<event>
 7    1  0.6245487E-013  0.5052886E+02  0.7816164E-02  0.1300439E+00
        -11   -1    0    0    0    0  0.00000000000E+00  0.00000000000E+00  0.45593999997E+02  0.45594000000E+02  0.51100000000E-03 0.  1.
         11   -1    0    0    0    0 -0.00000000000E+00 -0.00000000000E+00 -0.45593999997E+02  0.45594000000E+02  0.51100000000E-03 0. -1.
    9900012    2    1    2    0    0 -0.28422579774E+02  0.12514116887E+02  0.26243469739E+02  0.50528857530E+02  0.29999992947E+02 0.  0.
         12    1    1    2    0    0  0.28422579774E+02 -0.12514116887E+02 -0.26243469739E+02  0.40659142470E+02  0.00000000000E+00 0. -1.
         11    1    3    3    0    0 -0.16909598428E+02  0.75359114022E+01  0.40715909608E+01  0.18955271902E+02  0.51100000000E-03 0. -1.
        -11    1    3    3    0    0 -0.89963642738E+01  0.26253163392E+01  0.25262804359E+02  0.26945057809E+02  0.51100000000E-03 0.  1.
         12    1    3    3    0    0 -0.25166170726E+01  0.23528891458E+01 -0.30909255806E+01  0.46285278186E+01  0.00000000000E+00 0. -1.
</event>
<event>
 7    1  0.6245487E-013  0.5052885E+02  0.7816164E-02  0.1300439E+00
        -11   -1    0    0    0    0  0.00000000000E+00  0.00000000000E+00  0.45593999997E+02  0.45594000000E+02  0.51100000000E-03 0.  1.
         11   -1    0    0    0    0 -0.00000000000E+00 -0.00000000000E+00 -0.45593999997E+02  0.45594000000E+02  0.51100000000E-03 0. -1.
    9900012    2    1    2    0    0  0.34527489024E+01  0.33596049120E+02  0.22639586719E+02  0.50528845087E+02  0.29999955125E+02 0.  0.
         12    1    1    2    0    0 -0.34527489024E+01 -0.33596049120E+02 -0.22639586719E+02  0.40659154913E+02  0.00000000000E+00 0. -1.
         11    1    3    3    0    0  0.87080746080E+01  0.58557297773E+01  0.86122567490E+01  0.13575385857E+02  0.51100000000E-03 0.  1.
        -11    1    3    3    0    0  0.45159145078E+00 -0.14552893153E+01 -0.24960815211E+01  0.29244187544E+01  0.51100000000E-03 0. -1.
        -12    1    3    3    0    0 -0.57069171564E+01  0.29195608658E+02  0.16523411491E+02  0.34029040475E+02  0.00000000000E+00 0.  1.
</event>
<event>
 7    1  0.6245487E-013  0.5052886E+02  0.7816164E-02  0.1300439E+00
        -11   -1    0    0    0    0  0.00000000000E+00  0.00000000000E+00  0.45593999997E+02  0.45594000000E+02  0.51100000000E-03 0.  1.
         11   -1    0    0    0    0 -0.00000000000E+00 -0.00000000000E+00 -0.45593999997E+02  0.45594000000E+02  0.51100000000E-03 0. -1.
    9900012    2    1    2    0    0 -0.13496487815E+02  0.20722156596E+02  0.32273870573E+02  0.50528859833E+02  0.29999999949E+02 0.  0.
         12    1    1    2    0    0  0.13496487815E+02 -0.20722156596E+02 -0.32273870573E+02  0.40659140167E+02  0.00000000000E+00 0. -1.
         11    1    3    3    0    0  0.63658312880E-01 -0.51254076836E+01  0.48033823295E+01  0.70246948951E+01  0.51100000000E-03 0. -1.
        -11    1    3    3    0    0 -0.29662947996E+01  0.36725844407E+01  0.15432889757E+02  0.16138800074E+02  0.51100000000E-03 0.  1.
         12    1    3    3    0    0 -0.10593851329E+02  0.22174979839E+02  0.12037598486E+02  0.27365364864E+02  0.00000000000E+00 0. -1.
</event>
<event>
 7    1  0.6245487E-013  0.5052887E+02  0.7816164E-02  0.1300439E+00
        -11   -1    0    0    0    0  0.00000000000E+00  0.00000000000E+00  0.45593999997E+02  0.45594000000E+02  0.51100000000E-03 0. -1.
         11   -1    0    0    0    0 -0.00000000000E+00 -0.00000000000E+00 -0.45593999997E+02  0.45594000000E+02  0.51100000000E-03 0.  1.
    9900012    2    1    2    0    0  0.34547591792E+01  0.20454730911E+02 -0.34969038466E+02  0.50528867829E+02  0.30000024253E+02 0.  0.
         12    1    1    2    0    0 -0.34547591792E+01 -0.20454730911E+02  0.34969038466E+02  0.40659132171E+02  0.00000000000E+00 0. -1.
         11    1    3    3    0    0  0.28658554208E+01  0.11382693742E+02  0.22460422367E+00  0.11740072037E+02  0.51100000000E-03 0. -1.
        -11    1    3    3    0    0  0.65319132788E+01  0.48581870935E+01 -0.12183145041E+02  0.14652538902E+02  0.51100000000E-03 0.  1.
         12    1    3    3    0    0 -0.59430095204E+01  0.42138500758E+01 -0.23010497649E+02  0.24136256890E+02  0.00000000000E+00 0. -1.
</event>
<event>
 7    1  0.6245487E-013  0.5052885E+02  0.7816164E-02  0.1300439E+00
        -11   -1    0    0    0    0  0.00000000000E+00  0.00000000000E+00  0.45593999997E+02  0.45594000000E+02  0.51100000000E-03 0. -1.
         11   -1    0    0    0    0 -0.00000000000E+00 -0.00000000000E+00 -0.45593999997E+02  0.45594000000E+02  0.51100000000E-03 0.  1.
    9900012    2    1    2    0    0  0.80112275725E+01 -0.30159604195E+02 -0.26065009312E+02  0.50528853392E+02  0.29999980371E+02 0.  0.
         12    1    1    2    0    0 -0.80112275725E+01  0.30159604195E+02  0.26065009312E+02  0.40659146608E+02  0.00000000000E+00 0. -1.
         11    1    3    3    0    0 -0.38687609985E+01 -0.19932377889E+01 -0.82686353372E+01  0.93440162215E+01  0.51100000000E-03 0. -1.
        -11    1    3    3    0    0  0.21177081405E+01 -0.20445730294E+02 -0.19844371891E+02  0.28571168528E+02  0.51100000000E-03 0.  1.
         12    1    3    3    0    0  0.97622804305E+01 -0.77206361120E+01  0.20479979157E+01  0.12613668643E+02  0.00000000000E+00 0. -1.
</event>
<event>
 7    1  0.6245487E-013  0.5052886E+02  0.7816164E-02  0.1300439E+00
        -11   -1    0    0    0    0  0.00000000000E+00  0.00000000000E+00  0.45593999997E+02  0.45594000000E+02  0.51100000000E-03 0.  1.
         11   -1    0    0    0    0 -0.00000000000E+00 -0.00000000000E+00 -0.45593999997E+02  0.45594000000E+02  0.51100000000E-03 0. -1.
    9900012    2    1    2    0    0  0.38380427873E+02  0.20091473583E+01  0.13269199799E+02  0.50528861050E+02  0.30000003649E+02 0.  0.
         12    1    1    2    0    0 -0.38380427873E+02 -0.20091473583E+01 -0.13269199799E+02  0.40659138950E+02  0.00000000000E+00 0. -1.
         11    1    3    3    0    0  0.12949488208E+00  0.50432682876E+01  0.89787665003E+00  0.51242079081E+01  0.51100000000E-03 0. -1.
        -11    1    3    3    0    0  0.25961503744E+02 -0.11207883730E+02  0.11780948296E+02  0.30633430715E+02  0.51100000000E-03 0.  1.
         12    1    3    3    0    0  0.12289429247E+02  0.81737628007E+01  0.59037485286E+00  0.14771222427E+02  0.00000000000E+00 0. -1.
</event>
<event>
 7    1  0.6245487E-013  0.5052886E+02  0.7816164E-02  0.1300439E+00
        -11   -1    0    0    0    0  0.00000000000E+00  0.00000000000E+00  0.45593999997E+02  0.45594000000E+02  0.51100000000E-03 0.  1.
         11   -1    0    0    0    0 -0.00000000000E+00 -0.00000000000E+00 -0.45593999997E+02  0.45594000000E+02  0.51100000000E-03 0. -1.
    9900012    2    1    2    0    0  0.69269587403E+01 -0.33083487579E+02  0.22597912522E+02  0.50528861321E+02  0.30000004470E+02 0.  0.
         12    1    1    2    0    0 -0.69269587403E+01  0.33083487579E+02 -0.22597912522E+02  0.40659138679E+02  0.00000000000E+00 0. -1.
         11    1    3    3    0    0  0.46386880427E+01  0.15457089484E+01 -0.41177720008E+01  0.63923930904E+01  0.51100000000E-03 0. -1.
        -11    1    3    3    0    0  0.28098773277E+01 -0.19854793526E+02  0.12516282291E+02  0.23638222420E+02  0.51100000000E-03 0.  1.
        -12    1    3    3    0    0 -0.52160663008E+00 -0.14774403002E+02  0.14199402231E+02  0.20498245810E+02  0.00000000000E+00 0.  1.
</event>
<event>
 7    1  0.6245487E-013  0.5052886E+02  0.7816164E-02  0.1300439E+00
        -11   -1    0    0    0    0  0.00000000000E+00  0.00000000000E+00  0.45593999997E+02  0.45594000000E+02  0.51100000000E-03 0.  1.
         11   -1    0    0    0    0 -0.00000000000E+00 -0.00000000000E+00 -0.45593999997E+02  0.45594000000E+02  0.51100000000E-03 0. -1.
    9900012    2    1    2    0    0 -0.29875141281E+02 -0.32506201347E+00  0.27577817282E+02  0.50528859110E+02  0.29999997751E+02 0.  0.
         12    1    1    2    0    0  0.29875141281E+02  0.32506201347E+00 -0.27577817282E+02  0.40659140890E+02  0.00000000000E+00 0. -1.
         11    1    3    3    0    0 -0.65580176657E+01 -0.20498111053E+01  0.18696048253E+01  0.71207263488E+01  0.51100000000E-03 0. -1.
        -11    1    3    3    0    0 -0.86593685229E+01 -0.10156223169E+02  0.19332055048E+02  0.23491740781E+02  0.51100000000E-03 0.  1.
         12    1    3    3    0    0 -0.14657755092E+02  0.11880972261E+02  0.63761574090E+01  0.19916391980E+02  0.00000000000E+00 0. -1.
</event>
<event>
 7    1  0.6245487E-013  0.5052885E+02  0.7816164E-02  0.1300439E+00
        -11   -1    0    0    0    0  0.00000000000E+00  0.00000000000E+00  0.45593999997E+02  0.45594000000E+02  0.51100000000E-03 0. -1.
         11   -1    0    0    0    0 -0.00000000000E+00 -0.00000000000E+00 -0.45593999997E+02  0.45594000000E+02  0.51100000000E-03 0.  1.
    9900012    2    1    2    0    0  0.32020634394E+02 -0.22241403465E+02  0.11539744666E+02  0.50528846516E+02  0.29999959470E+02 0.  0.
         12    1    1    2    0    0 -0.32020634394E+02  0.22241403465E+02 -0.11539744666E+02  0.40659153484E+02  0.00000000000E+00 0. -1.
         11    1    3    3    0    0 -0.11065558233E+01 -0.14832132075E+01  0.23698721092E+01  0.30067725694E+01  0.51100000000E-03 0. -1.
        -11    1    3    3    0    0  0.13219828750E+02 -0.11187820967E+01 -0.72241708383E+01  0.15106428768E+02  0.51100000000E-03 0.  1.
        -12    1    3    3    0    0  0.19907361467E+02 -0.19639408161E+02  0.16394043396E+02  0.32415645179E+02  0.00000000000E+00 0.  1.
</event>
<event>
 7    1  0.6245487E-013  0.5052886E+02  0.7816164E-02  0.1300439E+00
        -11   -1    0    0    0    0  0.00000000000E+00  0.00000000000E+00  0.45593999997E+02  0.45594000000E+02  0.51100000000E-03 0.  1.
         11   -1    0    0    0    0 -0.00000000000E+00 -0.00000000000E+00 -0.45593999997E+02  0.45594000000E+02  0.51100000000E-03 0. -1.
    9900012    2    1    2    0    0 -0.26436946895E+02 -0.24618345573E+02  0.18659869439E+02  0.50528858010E+02  0.29999994408E+02 0.  0.
         12    1    1    2    0    0  0.26436946895E+02  0.24618345573E+02 -0.18659869439E+02  0.40659141990E+02  0.00000000000E+00 0. -1.
         11    1    3    3    0    0 -0.10621384126E+02 -0.44939277394E+01  0.10205217167E+01  0.11578024534E+02  0.51100000000E-03 0. -1.
        -11    1    3    3    0    0 -0.18327694430E+02 -0.89029832263E+01  0.18362427494E+02  0.27428930660E+02  0.51100000000E-03 0.  1.
        -12    1    3    3    0    0  0.25121316612E+01 -0.11221434608E+02 -0.72307977190E+00  0.11521902816E+02  0.00000000000E+00 0.  1.
</event>
<event>
 7    1  0.6245487E-013  0.5052877E+02  0.7816164E-02  0.1300439E+00
        -11   -1    0    0    0    0  0.00000000000E+00  0.00000000000E+00  0.45593999997E+02  0.45594000000E+02  0.51100000000E-03 0.  1.
         11   -1    0    0    0    0 -0.00000000000E+00 -0.00000000000E+00 -0.45593999997E+02  0.45594000000E+02  0.51100000000E-03 0. -1.
    9900012    2    1    2    0    0 -0.38890254159E+02  0.74107703144E+01  0.92629053809E+01  0.50528772249E+02  0.29999733726E+02 0.  0.
         12    1    1    2    0    0  0.38890254159E+02 -0.74107703144E+01 -0.92629053809E+01  0.40659227751E+02  0.00000000000E+00 0. -1.
         11    1    3    3    0    0 -0.30996813975E+01  0.41196655086E+01 -0.59346088172E+01  0.78612499479E+01  0.51100000000E-03 0. -1.
        -11    1    3    3    0    0 -0.45409926934E+01  0.23552362851E+01  0.96409026959E+01  0.10913970756E+02  0.51100000000E-03 0.  1.
        -12    1    3    3    0    0 -0.31249580069E+02  0.93586852070E+00  0.55566115022E+01  0.31753551545E+02  0.00000000000E+00 0.  1.
</event>
<event>
 7    1  0.6245487E-013  0.5052886E+02  0.7816164E-02  0.1300439E+00
        -11   -1    0    0    0    0  0.00000000000E+00  0.00000000000E+00  0.45593999997E+02  0.45594000000E+02  0.51100000000E-03 0.  1.
         11   -1    0    0    0    0 -0.00000000000E+00 -0.00000000000E+00 -0.45593999997E+02  0.45594000000E+02  0.51100000000E-03 0. -1.
    9900012    2    1    2    0    0  0.21901096616E+02  0.17043826026E+02  0.29715579291E+02  0.50528859685E+02  0.29999999497E+02 0.  0.
         12    1    1    2    0    0 -0.21901096616E+02 -0.17043826026E+02 -0.29715579291E+02  0.40659140315E+02  0.00000000000E+00 0. -1.
         11    1    3    3    0    0  0.49404503729E+01 -0.43241528139E+01  0.15458738957E+02  0.16795206395E+02  0.51100000000E-03 0. -1.
        -11    1    3    3    0    0  0.10954263373E+02  0.32082191356E+01  0.60690221344E+01  0.12927551431E+02  0.51100000000E-03 0.  1.
         12    1    3    3    0    0  0.60063828698E+01  0.18159759704E+02  0.81878182000E+01  0.20806101859E+02  0.00000000000E+00 0. -1.
</event>
<event>
 7    1  0.6245487E-013  0.5052887E+02  0.7816164E-02  0.1300439E+00
        -11   -1    0    0    0    0  0.00000000000E+00  0.00000000000E+00  0.45593999997E+02  0.45594000000E+02  0.51100000000E-03 0. -1.
         11   -1    0    0    0    0 -0.00000000000E+00 -0.00000000000E+00 -0.45593999997E+02  0.45594000000E+02  0.51100000000E-03 0.  1.
    9900012    2    1    2    0    0  0.18822202470E+02 -0.27503177357E+02 -0.23290868083E+02  0.50528873022E+02  0.30000040038E+02 0.  0.
         12    1    1    2    0    0 -0.18822202470E+02  0.27503177357E+02  0.23290868083E+02  0.40659126978E+02  0.00000000000E+00 0. -1.
         11    1    3    3    0    0  0.12266054302E+02 -0.21918672122E+02 -0.53510278312E+01  0.25681078148E+02  0.51100000000E-03 0. -1.
        -11    1    3    3    0    0  0.82827854025E+01 -0.94926653657E+01 -0.11140252813E+02  0.16817266804E+02  0.51100000000E-03 0.  1.
        -12    1    3    3    0    0 -0.17266372346E+01  0.39081601307E+01 -0.67995874394E+01  0.80305280706E+01  0.00000000000E+00 0.  1.
</event>
<event>
 7    1  0.6245487E-013  0.5052886E+02  0.7816164E-02  0.1300439E+00
        -11   -1    0    0    0    0  0.00000000000E+00  0.00000000000E+00  0.45593999997E+02  0.45594000000E+02  0.51100000000E-03 0.  1.
         11   -1    0    0    0    0 -0.00000000000E+00 -0.00000000000E+00 -0.45593999997E+02  0.45594000000E+02  0.51100000000E-03 0. -1.
    9900012    2    1    2    0    0  0.15784181468E+01  0.28031801733E+02  0.29409054471E+02  0.50528858382E+02  0.29999995539E+02 0.  0.
         12    1    1    2    0    0 -0.15784181468E+01 -0.28031801733E+02 -0.29409054471E+02  0.40659141618E+02  0.00000000000E+00 0. -1.
         11    1    3    3    0    0 -0.58855889927E+01 -0.56246797580E+00  0.14994067902E+01  0.60995695749E+01  0.51100000000E-03 0. -1.
        -11    1    3    3    0    0 -0.56796932998E+01  0.12566162362E+02  0.99802408110E+01  0.17022707170E+02  0.51100000000E-03 0.  1.
         12    1    3    3    0    0  0.13143700439E+02  0.16028107347E+02  0.17929406869E+02  0.27406581637E+02  0.00000000000E+00 0. -1.
</event>
<event>
 7    1  0.6245487E-013  0.5052885E+02  0.7816164E-02  0.1300439E+00
        -11   -1    0    0    0    0  0.00000000000E+00  0.00000000000E+00  0.45593999997E+02  0.45594000000E+02  0.51100000000E-03 0.  1.
         11   -1    0    0    0    0 -0.00000000000E+00 -0.00000000000E+00 -0.45593999997E+02  0.45594000000E+02  0.51100000000E-03 0. -1.
    9900012    2    1    2    0    0  0.22911954454E+02  0.22317927518E+02  0.25102168913E+02  0.50528850602E+02  0.29999971891E+02 0.  0.
         12    1    1    2    0    0 -0.22911954454E+02 -0.22317927518E+02 -0.25102168913E+02  0.40659149398E+02  0.00000000000E+00 0. -1.
         11    1    3    3    0    0 -0.32841391599E+01  0.86979998360E+01 -0.36379867526E+00  0.93044677927E+01  0.51100000000E-03 0. -1.
        -11    1    3    3    0    0  0.18791941593E+01  0.61847939775E+01  0.24060903994E+01  0.68972689163E+01  0.51100000000E-03 0.  1.
         12    1    3    3    0    0  0.24316899454E+02  0.74351337049E+01  0.23059877189E+02  0.34327113893E+02  0.00000000000E+00 0. -1.
</event>
<event>
 7    1  0.6245487E-013  0.5052884E+02  0.7816164E-02  0.1300439E+00
        -11   -1    0    0    0    0  0.00000000000E+00  0.00000000000E+00  0.45593999997E+02  0.45594000000E+02  0.51100000000E-03 0.  1.
         11   -1    0    0    0    0 -0.00000000000E+00 -0.00000000000E+00 -0.45593999997E+02  0.45594000000E+02  0.51100000000E-03 0. -1.
    9900012    2    1    2    0    0  0.29666545335E+00 -0.19615970611E+02  0.35613100985E+02  0.50528840206E+02  0.29999940290E+02 0.  0.
         12    1    1    2    0    0 -0.29666545335E+00  0.19615970611E+02 -0.35613100985E+02  0.40659159794E+02  0.00000000000E+00 0. -1.
         11    1    3    3    0    0 -0.40325512644E+00 -0.32646979155E+01  0.17768124221E+02  0.18070061034E+02  0.51100000000E-03 0. -1.
        -11    1    3    3    0    0 -0.88528701863E+01 -0.16382494798E+01  0.93073953605E+01  0.12949315833E+02  0.51100000000E-03 0.  1.
        -12    1    3    3    0    0  0.95527907661E+01 -0.14713023215E+02  0.85375814038E+01  0.19509463339E+02  0.00000000000E+00 0.  1.
</event>
<event>
 7    1  0.6245487E-013  0.5052885E+02  0.7816164E-02  0.1300439E+00
        -11   -1    0    0    0    0  0.00000000000E+00  0.00000000000E+00  0.45593999997E+02  0.45594000000E+02  0.51100000000E-03 0. -1.
         11   -1    0    0    0    0 -0.00000000000E+00 -0.00000000000E+00 -0.45593999997E+02  0.45594000000E+02  0.51100000000E-03 0.  1.
    9900012    2    1    2    0    0  0.13811848404E+02  0.42622172714E+01 -0.38003066143E+02  0.50528847419E+02  0.29999962214E+02 0.  0.
         12    1    1    2    0    0 -0.13811848404E+02 -0.42622172714E+01  0.38003066143E+02  0.40659152581E+02  0.00000000000E+00 0. -1.
         11    1    3    3    0    0 -0.43109883589E+01  0.17402613423E+01 -0.47206757859E+01  0.66255498117E+01  0.51100000000E-03 0. -1.
        -11    1    3    3    0    0  0.41243882839E+01  0.80036203600E+01 -0.25358214308E+02  0.26909246566E+02  0.51100000000E-03 0.  1.
        -12    1    3    3    0    0  0.13998448479E+02 -0.54816644309E+01 -0.79241760483E+01  0.16994051041E+02  0.00000000000E+00 0.  1.
</event>
<event>
 7    1  0.6245487E-013  0.5052886E+02  0.7816164E-02  0.1300439E+00
        -11   -1    0    0    0    0  0.00000000000E+00  0.00000000000E+00  0.45593999997E+02  0.45594000000E+02  0.51100000000E-03 0.  1.
         11   -1    0    0    0    0 -0.00000000000E+00 -0.00000000000E+00 -0.45593999997E+02  0.45594000000E+02  0.51100000000E-03 0. -1.
    9900012    2    1    2    0    0 -0.12336035313E+02 -0.45394722346E+00  0.38739924751E+02  0.50528860744E+02  0.30000002718E+02 0.  0.
         12    1    1    2    0    0  0.12336035313E+02  0.45394722346E+00 -0.38739924751E+02  0.40659139256E+02  0.00000000000E+00 0. -1.
         11    1    3    3    0    0  0.27582565167E+01  0.38094389548E+01  0.71324665924E+01  0.85435287859E+01  0.51100000000E-03 0.  1.
        -11    1    3    3    0    0 -0.15902696378E+02 -0.11595684033E+02  0.18869808049E+02  0.27265826530E+02  0.51100000000E-03 0. -1.
         12    1    3    3    0    0  0.80840454860E+00  0.73322978549E+01  0.12737650109E+02  0.14719505428E+02  0.00000000000E+00 0. -1.
</event>
<event>
 7    1  0.6245487E-013  0.5052886E+02  0.7816164E-02  0.1300439E+00
        -11   -1    0    0    0    0  0.00000000000E+00  0.00000000000E+00  0.45593999997E+02  0.45594000000E+02  0.51100000000E-03 0.  1.
         11   -1    0    0    0    0 -0.00000000000E+00 -0.00000000000E+00 -0.45593999997E+02  0.45594000000E+02  0.51100000000E-03 0. -1.
    9900012    2    1    2    0    0  0.32443141764E+01  0.32719829390E+02  0.23917624213E+02  0.50528861325E+02  0.30000004483E+02 0.  0.
         12    1    1    2    0    0 -0.32443141764E+01 -0.32719829390E+02 -0.23917624213E+02  0.40659138675E+02  0.00000000000E+00 0. -1.
         11    1    3    3    0    0 -0.37058925092E+01  0.23427023546E+01 -0.91684185974E+00  0.44791174207E+01  0.51100000000E-03 0. -1.
        -11    1    3    3    0    0  0.12496000161E+02  0.17254599392E+02  0.23533410840E+02  0.31744174997E+02  0.51100000000E-03 0.  1.
         12    1    3    3    0    0 -0.55457934758E+01  0.13122527643E+02  0.13010552327E+01  0.14305568907E+02  0.00000000000E+00 0. -1.
</event>
<event>
 7    1  0.6245487E-013  0.5052886E+02  0.7816164E-02  0.1300439E+00
        -11   -1    0    0    0    0  0.00000000000E+00  0.00000000000E+00  0.45593999997E+02  0.45594000000E+02  0.51100000000E-03 0.  1.
         11   -1    0    0    0    0 -0.00000000000E+00 -0.00000000000E+00 -0.45593999997E+02  0.45594000000E+02  0.51100000000E-03 0. -1.
    9900012    2    1    2    0    0  0.23411335421E+02  0.99216117671E+01  0.31727535406E+02  0.50528861923E+02  0.30000006302E+02 0.  0.
         12    1    1    2    0    0 -0.23411335421E+02 -0.99216117671E+01 -0.31727535406E+02  0.40659138077E+02  0.00000000000E+00 0. -1.
         11    1    3    3    0    0  0.10460433192E+02  0.31625572618E+00  0.21070912949E+01  0.10675229002E+02  0.51100000000E-03 0. -1.
        -11    1    3    3    0    0  0.84097579381E+01 -0.36431437286E+01  0.27771931919E+01  0.95764986864E+01  0.51100000000E-03 0.  1.
        -12    1    3    3    0    0  0.45411442904E+01  0.13248499770E+02  0.26843250919E+02  0.30277134235E+02  0.00000000000E+00 0.  1.
</event>
<event>
 7    1  0.6245487E-013  0.5052885E+02  0.7816164E-02  0.1300439E+00
        -11   -1    0    0    0    0  0.00000000000E+00  0.00000000000E+00  0.45593999997E+02  0.45594000000E+02  0.51100000000E-03 0. -1.
         11   -1    0    0    0    0 -0.00000000000E+00 -0.00000000000E+00 -0.45593999997E+02  0.45594000000E+02  0.51100000000E-03 0.  1.
    9900012    2    1    2    0    0  0.20922809404E+01 -0.69831233431E+00 -0.40599277271E+02  0.50528848576E+02  0.29999965731E+02 0.  0.
         12    1    1    2    0    0 -0.20922809404E+01  0.69831233431E+00  0.40599277271E+02  0.40659151424E+02  0.00000000000E+00 0. -1.
         11    1    3    3    0    0  0.49094627505E+01  0.46641292109E+01 -0.10490800364E+02  0.12486545493E+02  0.51100000000E-03 0. -1.
        -11    1    3    3    0    0  0.37403963763E+01  0.60959971981E+01 -0.20505613160E+02  0.21717088161E+02  0.51100000000E-03 0.  1.
         12    1    3    3    0    0 -0.65575781864E+01 -0.11458438743E+02 -0.96028637466E+01  0.16325214922E+02  0.00000000000E+00 0. -1.
</event>
<event>
 7    1  0.6245487E-013  0.5052886E+02  0.7816164E-02  0.1300439E+00
        -11   -1    0    0    0    0  0.00000000000E+00  0.00000000000E+00  0.45593999997E+02  0.45594000000E+02  0.51100000000E-03 0.  1.
         11   -1    0    0    0    0 -0.00000000000E+00 -0.00000000000E+00 -0.45593999997E+02  0.45594000000E+02  0.51100000000E-03 0. -1.
    9900012    2    1    2    0    0  0.10283843386E+02  0.22487091762E+02  0.32275978974E+02  0.50528861428E+02  0.30000004797E+02 0.  0.
         12    1    1    2    0    0 -0.10283843386E+02 -0.22487091762E+02 -0.32275978974E+02  0.40659138572E+02  0.00000000000E+00 0. -1.
         11    1    3    3    0    0 -0.56173408795E-01 -0.28981004750E+01 -0.16882822231E+01  0.33544655224E+01  0.51100000000E-03 0. -1.
        -11    1    3    3    0    0  0.11844688143E+02  0.61936784671E+01  0.15946254238E+02  0.20807241880E+02  0.51100000000E-03 0.  1.
         12    1    3    3    0    0 -0.15046713485E+01  0.19191513770E+02  0.18018006959E+02  0.26367154026E+02  0.00000000000E+00 0. -1.
</event>
<event>
 7    1  0.6245487E-013  0.5052889E+02  0.7816164E-02  0.1300439E+00
        -11   -1    0    0    0    0  0.00000000000E+00  0.00000000000E+00  0.45593999997E+02  0.45594000000E+02  0.51100000000E-03 0. -1.
         11   -1    0    0    0    0 -0.00000000000E+00 -0.00000000000E+00 -0.45593999997E+02  0.45594000000E+02  0.51100000000E-03 0.  1.
    9900012    2    1    2    0    0 -0.23848811171E+02 -0.15496075910E+02 -0.29056314043E+02  0.50528886032E+02  0.30000079584E+02 0.  0.
         12    1    1    2    0    0  0.23848811171E+02  0.15496075910E+02  0.29056314043E+02  0.40659113968E+02  0.00000000000E+00 0. -1.
         11    1    3    3    0    0 -0.15487171265E+02 -0.93728096019E+01 -0.98016343190E+01  0.20585773467E+02  0.51100000000E-03 0. -1.
        -11    1    3    3    0    0 -0.54845892801E+01 -0.13621466028E+02 -0.14355917041E+02  0.20535759315E+02  0.51100000000E-03 0.  1.
         12    1    3    3    0    0 -0.28770506259E+01  0.74981997204E+01 -0.48987626831E+01  0.94073532503E+01  0.00000000000E+00 0. -1.
</event>
<event>
 7    1  0.6245487E-013  0.5052885E+02  0.7816164E-02  0.1300439E+00
        -11   -1    0    0    0    0  0.00000000000E+00  0.00000000000E+00  0.45593999997E+02  0.45594000000E+02  0.51100000000E-03 0.  1.
         11   -1    0    0    0    0 -0.00000000000E+00 -0.00000000000E+00 -0.45593999997E+02  0.45594000000E+02  0.51100000000E-03 0. -1.
    9900012    2    1    2    0    0 -0.82193045948E+01 -0.39736215223E+02 -0.25773891177E+01  0.50528847243E+02  0.29999961679E+02 0.  0.
         12    1    1    2    0    0  0.82193045948E+01  0.39736215223E+02  0.25773891177E+01  0.40659152757E+02  0.00000000000E+00 0. -1.
         11    1    3    3    0    0 -0.17287145798E-01 -0.21590204523E+02  0.44604627542E+01  0.22046155184E+02  0.51100000000E-03 0. -1.
        -11    1    3    3    0    0  0.39776710453E+01 -0.11428627789E+02  0.14508602664E+01  0.12187714956E+02  0.51100000000E-03 0.  1.
         12    1    3    3    0    0 -0.12179688494E+02 -0.67173829119E+01 -0.84887121382E+01  0.16294977102E+02  0.00000000000E+00 0. -1.
</event>
<event>
 7    1  0.6245487E-013  0.5052886E+02  0.7816164E-02  0.1300439E+00
        -11   -1    0    0    0    0  0.00000000000E+00  0.00000000000E+00  0.45593999997E+02  0.45594000000E+02  0.51100000000E-03 0. -1.
         11   -1    0    0    0    0 -0.00000000000E+00 -0.00000000000E+00 -0.45593999997E+02  0.45594000000E+02  0.51100000000E-03 0.  1.
    9900012    2    1    2    0    0 -0.20907601810E+02 -0.34600458164E+02 -0.43412057344E+01  0.50528860980E+02  0.30000003436E+02 0.  0.
         12    1    1    2    0    0  0.20907601810E+02  0.34600458164E+02  0.43412057344E+01  0.40659139020E+02  0.00000000000E+00 0. -1.
         11    1    3    3    0    0 -0.24379563278E+01 -0.72911237745E+01  0.55398526721E+01  0.94759740840E+01  0.51100000000E-03 0. -1.
        -11    1    3    3    0    0 -0.15873307112E+02 -0.29072881806E+02 -0.27214527890E+01  0.33235532803E+02  0.51100000000E-03 0.  1.
         12    1    3    3    0    0 -0.25963383695E+01  0.17635474165E+01 -0.71596056175E+01  0.78173540931E+01  0.00000000000E+00 0. -1.
</event>
<event>
 7    1  0.6245487E-013  0.5052883E+02  0.7816164E-02  0.1300439E+00
        -11   -1    0    0    0    0  0.00000000000E+00  0.00000000000E+00  0.45593999997E+02  0.45594000000E+02  0.51100000000E-03 0.  1.
         11   -1    0    0    0    0 -0.00000000000E+00 -0.00000000000E+00 -0.45593999997E+02  0.45594000000E+02  0.51100000000E-03 0. -1.
    9900012    2    1    2    0    0 -0.28394186402E+02 -0.28993315588E+02 -0.25152080934E+01  0.50528825857E+02  0.29999896676E+02 0.  0.
         12    1    1    2    0    0  0.28394186402E+02  0.28993315588E+02  0.25152080934E+01  0.40659174143E+02  0.00000000000E+00 0. -1.
         11    1    3    3    0    0  0.22724806479E+00  0.96360808512E+00  0.53408813056E+01  0.54318685189E+01  0.51100000000E-03 0. -1.
        -11    1    3    3    0    0 -0.39151110621E+01 -0.11453451912E+02 -0.74774122194E+01  0.14227485691E+02  0.51100000000E-03 0.  1.
        -12    1    3    3    0    0 -0.24706323404E+02 -0.18503471761E+02 -0.37867717957E+00  0.30869471647E+02  0.00000000000E+00 0.  1.
</event>
<event>
 7    1  0.6245487E-013  0.5052886E+02  0.7816164E-02  0.1300439E+00
        -11   -1    0    0    0    0  0.00000000000E+00  0.00000000000E+00  0.45593999997E+02  0.45594000000E+02  0.51100000000E-03 0.  1.
         11   -1    0    0    0    0 -0.00000000000E+00 -0.00000000000E+00 -0.45593999997E+02  0.45594000000E+02  0.51100000000E-03 0. -1.
    9900012    2    1    2    0    0 -0.67087513735E+01 -0.60426724591E+00  0.40097294419E+02  0.50528861991E+02  0.30000006509E+02 0.  0.
         12    1    1    2    0    0  0.67087513735E+01  0.60426724591E+00 -0.40097294419E+02  0.40659138009E+02  0.00000000000E+00 0. -1.
         11    1    3    3    0    0  0.21231249198E+01  0.48881637381E+01  0.16476975510E+02  0.17317405301E+02  0.51100000000E-03 0. -1.
        -11    1    3    3    0    0  0.47047715455E+01 -0.10036660782E+00 -0.80099819296E+00  0.47735256485E+01  0.51100000000E-03 0.  1.
        -12    1    3    3    0    0 -0.13536647839E+02 -0.53920643762E+01  0.24421317102E+02  0.28437931042E+02  0.00000000000E+00 0.  1.
</event>
<event>
 7    1  0.6245487E-013  0.5052882E+02  0.7816164E-02  0.1300439E+00
        -11   -1    0    0    0    0  0.00000000000E+00  0.00000000000E+00  0.45593999997E+02  0.45594000000E+02  0.51100000000E-03 0.  1.
         11   -1    0    0    0    0 -0.00000000000E+00 -0.00000000000E+00 -0.45593999997E+02  0.45594000000E+02  0.51100000000E-03 0. -1.
    9900012    2    1    2    0    0  0.94225182935E+01  0.86268127015E+01  0.38600042870E+02  0.50528818282E+02  0.29999873651E+02 0.  0.
         12    1    1    2    0    0 -0.94225182935E+01 -0.86268127015E+01 -0.38600042870E+02  0.40659181718E+02  0.00000000000E+00 0. -1.
         11    1    3    3    0    0 -0.39721228851E+01  0.11198828454E+02  0.13906218945E+02  0.18291376235E+02  0.51100000000E-03 0.  1.
        -11    1    3    3    0    0  0.11944630411E+01 -0.73915092997E+01  0.10668821466E+02  0.13033990310E+02  0.51100000000E-03 0. -1.
        -12    1    3    3    0    0  0.12200178137E+02  0.48194935467E+01  0.14025002460E+02  0.19203451737E+02  0.00000000000E+00 0.  1.
</event>
<event>
 7    1  0.6245487E-013  0.5052885E+02  0.7816164E-02  0.1300439E+00
        -11   -1    0    0    0    0  0.00000000000E+00  0.00000000000E+00  0.45593999997E+02  0.45594000000E+02  0.51100000000E-03 0.  1.
         11   -1    0    0    0    0 -0.00000000000E+00 -0.00000000000E+00 -0.45593999997E+02  0.45594000000E+02  0.51100000000E-03 0. -1.
    9900012    2    1    2    0    0  0.12967557941E+02  0.62887293128E+01  0.38019214237E+02  0.50528851871E+02  0.29999975748E+02 0.  0.
         12    1    1    2    0    0 -0.12967557941E+02 -0.62887293128E+01 -0.38019214237E+02  0.40659148129E+02  0.00000000000E+00 0. -1.
         11    1    3    3    0    0  0.34498009981E+01  0.13948112465E+02  0.20530127571E+02  0.25058673281E+02  0.51100000000E-03 0. -1.
        -11    1    3    3    0    0 -0.30497228287E+01  0.18316294603E+00  0.80677584627E+00  0.31599439115E+01  0.51100000000E-03 0.  1.
        -12    1    3    3    0    0  0.12567479772E+02 -0.78425460987E+01  0.16682310820E+02  0.22310234678E+02  0.00000000000E+00 0.  1.
</event>
<event>
 7    1  0.6245487E-013  0.5052884E+02  0.7816164E-02  0.1300439E+00
        -11   -1    0    0    0    0  0.00000000000E+00  0.00000000000E+00  0.45593999997E+02  0.45594000000E+02  0.51100000000E-03 0.  1.
         11   -1    0    0    0    0 -0.00000000000E+00 -0.00000000000E+00 -0.45593999997E+02  0.45594000000E+02  0.51100000000E-03 0. -1.
    9900012    2    1    2    0    0 -0.26811590883E+01 -0.12157859358E+02  0.38706140301E+02  0.50528837991E+02  0.29999933559E+02 0.  0.
         12    1    1    2    0    0  0.26811590883E+01  0.12157859358E+02 -0.38706140301E+02  0.40659162009E+02  0.00000000000E+00 0. -1.
         11    1    3    3    0    0  0.74560129683E+01 -0.23073052549E+01  0.31453823781E+01  0.84148212987E+01  0.51100000000E-03 0. -1.
        -11    1    3    3    0    0  0.29648394276E+00 -0.35247595211E+01  0.26947483588E+02  0.27178644271E+02  0.51100000000E-03 0.  1.
         12    1    3    3    0    0 -0.10433655999E+02 -0.63257945824E+01  0.86132743345E+01  0.14935372422E+02  0.00000000000E+00 0. -1.
</event>
<event>
 7    1  0.6245487E-013  0.5052885E+02  0.7816164E-02  0.1300439E+00
        -11   -1    0    0    0    0  0.00000000000E+00  0.00000000000E+00  0.45593999997E+02  0.45594000000E+02  0.51100000000E-03 0. -1.
         11   -1    0    0    0    0 -0.00000000000E+00 -0.00000000000E+00 -0.45593999997E+02  0.45594000000E+02  0.51100000000E-03 0.  1.
    9900012    2    1    2    0    0 -0.17481536442E+02 -0.34214545089E+02  0.13301414304E+02  0.50528845625E+02  0.29999956761E+02 0.  0.
         12    1    1    2    0    0  0.17481536442E+02  0.34214545089E+02 -0.13301414304E+02  0.40659154375E+02  0.00000000000E+00 0. -1.
         11    1    3    3    0    0 -0.88029820735E+01 -0.62991913454E+01  0.65637270079E+01  0.12659179179E+02  0.51100000000E-03 0. -1.
        -11    1    3    3    0    0 -0.59578391834E+00 -0.91263061284E+01  0.13518108904E+02  0.16321264982E+02  0.51100000000E-03 0.  1.
        -12    1    3    3    0    0 -0.80827704500E+01 -0.18789047615E+02 -0.67804216083E+01  0.21548401463E+02  0.00000000000E+00 0.  1.
</event>
<event>
 7    1  0.6245487E-013  0.5052885E+02  0.7816164E-02  0.1300439E+00
        -11   -1    0    0    0    0  0.00000000000E+00  0.00000000000E+00  0.45593999997E+02  0.45594000000E+02  0.51100000000E-03 0. -1.
         11   -1    0    0    0    0 -0.00000000000E+00 -0.00000000000E+00 -0.45593999997E+02  0.45594000000E+02  0.51100000000E-03 0.  1.
    9900012    2    1    2    0    0  0.33106389684E+02  0.21881807008E+02  0.88498783509E+01  0.50528845278E+02  0.29999955708E+02 0.  0.
         12    1    1    2    0    0 -0.33106389684E+02 -0.21881807008E+02 -0.88498783509E+01  0.40659154722E+02  0.00000000000E+00 0. -1.
         11    1    3    3    0    0  0.96555204156E+00  0.32494241502E+01 -0.71201314778E+01  0.78858937715E+01  0.51100000000E-03 0. -1.
        -11    1    3    3    0    0  0.92180723800E+00  0.39220685959E+01  0.50188279064E+01  0.64359136469E+01  0.51100000000E-03 0.  1.
        -12    1    3    3    0    0  0.31219030405E+02  0.14710314262E+02  0.10951181922E+02  0.36207037860E+02  0.00000000000E+00 0.  1.
</event>
<event>
 7    1  0.6245487E-013  0.5052886E+02  0.7816164E-02  0.1300439E+00
        -11   -1    0    0    0    0  0.00000000000E+00  0.00000000000E+00  0.45593999997E+02  0.45594000000E+02  0.51100000000E-03 0.  1.
         11   -1    0    0    0    0 -0.00000000000E+00 -0.00000000000E+00 -0.45593999997E+02  0.45594000000E+02  0.51100000000E-03 0. -1.
    9900012    2    1    2    0    0  0.26269862677E+02 -0.78228529723E+01  0.30031036745E+02  0.50528857342E+02  0.29999992378E+02 0.  0.
         12    1    1    2    0    0 -0.26269862677E+02  0.78228529723E+01 -0.30031036745E+02  0.40659142658E+02  0.00000000000E+00 0. -1.
         11    1    3    3    0    0  0.24103949476E+02 -0.68434629809E+01  0.17042629667E+02  0.30303210921E+02  0.51100000000E-03 0. -1.
        -11    1    3    3    0    0  0.29177501753E+01  0.21339600930E+01  0.15649495732E+02  0.16061561839E+02  0.51100000000E-03 0.  1.
         12    1    3    3    0    0 -0.75183697427E+00 -0.31133500844E+01 -0.26610886547E+01  0.41640845827E+01  0.00000000000E+00 0. -1.
</event>
<event>
 7    1  0.8319818E-013  0.5052885E+02  0.7816164E-02  0.1300439E+00
        -11   -1    0    0    0    0  0.00000000000E+00  0.00000000000E+00  0.45593999997E+02  0.45594000000E+02  0.51100000000E-03 0. -1.
         11   -1    0    0    0    0 -0.00000000000E+00 -0.00000000000E+00 -0.45593999997E+02  0.45594000000E+02  0.51100000000E-03 0.  1.
    9900012    2    1    2    0    0 -0.32572457552E+02  0.14736037544E+02 -0.19366215426E+02  0.50528854738E+02  0.29999984461E+02 0.  0.
         12    1    1    2    0    0  0.32572457552E+02 -0.14736037544E+02  0.19366215426E+02  0.40659145262E+02  0.00000000000E+00 0. -1.
         11    1    3    3    0    0 -0.24208966828E+01  0.41591527432E+01  0.57184830626E+01  0.74739775948E+01  0.51100000000E-03 0. -1.
        -11    1    3    3    0    0 -0.47249260564E+01 -0.37532132959E+00 -0.11032711863E+02  0.12007769304E+02  0.51100000000E-03 0.  1.
        -12    1    3    3    0    0 -0.25426634813E+02  0.10952206131E+02 -0.14051986626E+02  0.31047107839E+02  0.00000000000E+00 0.  1.
</event>
<event>
 7    1  0.6245487E-013  0.5052885E+02  0.7816164E-02  0.1300439E+00
        -11   -1    0    0    0    0  0.00000000000E+00  0.00000000000E+00  0.45593999997E+02  0.45594000000E+02  0.51100000000E-03 0.  1.
         11   -1    0    0    0    0 -0.00000000000E+00 -0.00000000000E+00 -0.45593999997E+02  0.45594000000E+02  0.51100000000E-03 0. -1.
    9900012    2    1    2    0    0  0.32777848427E+02 -0.10684469699E+02  0.21555078306E+02  0.50528848004E+02  0.29999963993E+02 0.  0.
         12    1    1    2    0    0 -0.32777848427E+02  0.10684469699E+02 -0.21555078306E+02  0.40659151996E+02  0.00000000000E+00 0. -1.
         11    1    3    3    0    0  0.11311608009E+02 -0.86908592796E+01  0.66417520078E+01  0.15735195606E+02  0.51100000000E-03 0. -1.
        -11    1    3    3    0    0  0.13625300434E+02 -0.10793828165E+02  0.23062304106E+01  0.17534943323E+02  0.51100000000E-03 0.  1.
        -12    1    3    3    0    0  0.78409399845E+01  0.88002177460E+01  0.12607095888E+02  0.17258709075E+02  0.00000000000E+00 0.  1.
</event>
<event>
 7    1  0.6245487E-013  0.5052886E+02  0.7816164E-02  0.1300439E+00
        -11   -1    0    0    0    0  0.00000000000E+00  0.00000000000E+00  0.45593999997E+02  0.45594000000E+02  0.51100000000E-03 0. -1.
         11   -1    0    0    0    0 -0.00000000000E+00 -0.00000000000E+00 -0.45593999997E+02  0.45594000000E+02  0.51100000000E-03 0.  1.
    9900012    2    1    2    0    0  0.12182211590E+02 -0.21036527047E+02 -0.32591777093E+02  0.50528859779E+02  0.29999999785E+02 0.  0.
         12    1    1    2    0    0 -0.12182211590E+02  0.21036527047E+02  0.32591777093E+02  0.40659140221E+02  0.00000000000E+00 0. -1.
         11    1    3    3    0    0 -0.23381458956E+01  0.62767112501E+00 -0.12611966944E+02  0.12842219735E+02  0.51100000000E-03 0.  1.
        -11    1    3    3    0    0 -0.87588281005E+00 -0.14128133205E+02 -0.12861917557E+02  0.19125905000E+02  0.51100000000E-03 0. -1.
        -12    1    3    3    0    0  0.15396240296E+02 -0.75360649676E+01 -0.71178925913E+01  0.18560735044E+02  0.00000000000E+00 0.  1.
</event>
<event>
 7    1  0.6245487E-013  0.5052887E+02  0.7816164E-02  0.1300439E+00
        -11   -1    0    0    0    0  0.00000000000E+00  0.00000000000E+00  0.45593999997E+02  0.45594000000E+02  0.51100000000E-03 0.  1.
         11   -1    0    0    0    0 -0.00000000000E+00 -0.00000000000E+00 -0.45593999997E+02  0.45594000000E+02  0.51100000000E-03 0. -1.
    9900012    2    1    2    0    0  0.20904704735E+02  0.30921318096E+02  0.16125455446E+02  0.50528869338E+02  0.30000028839E+02 0.  0.
         12    1    1    2    0    0 -0.20904704735E+02 -0.30921318096E+02 -0.16125455446E+02  0.40659130662E+02  0.00000000000E+00 0. -1.
         11    1    3    3    0    0  0.79202449265E+01  0.43327484153E+01  0.51465211771E+01  0.10391807784E+02  0.51100000000E-03 0.  1.
        -11    1    3    3    0    0  0.14480324331E+02  0.23294678630E+02 -0.11775073290E+01  0.27453749634E+02  0.51100000000E-03 0. -1.
         12    1    3    3    0    0 -0.14958645231E+01  0.32938910512E+01  0.12156441598E+02  0.12683311920E+02  0.00000000000E+00 0. -1.
</event>
<event>
 7    1  0.6245487E-013  0.5052886E+02  0.7816164E-02  0.1300439E+00
        -11   -1    0    0    0    0  0.00000000000E+00  0.00000000000E+00  0.45593999997E+02  0.45594000000E+02  0.51100000000E-03 0.  1.
         11   -1    0    0    0    0 -0.00000000000E+00 -0.00000000000E+00 -0.45593999997E+02  0.45594000000E+02  0.51100000000E-03 0. -1.
    9900012    2    1    2    0    0  0.35611228352E+02 -0.13447874579E+02  0.14288482347E+02  0.50528860274E+02  0.30000001290E+02 0.  0.
         12    1    1    2    0    0 -0.35611228352E+02  0.13447874579E+02 -0.14288482347E+02  0.40659139726E+02  0.00000000000E+00 0. -1.
         11    1    3    3    0    0  0.43048964425E+01  0.34762035962E+01 -0.40956395155E+01  0.68840677019E+01  0.51100000000E-03 0. -1.
        -11    1    3    3    0    0  0.24088173815E+02 -0.50987514240E+01  0.16555890101E+02  0.29670437832E+02  0.51100000000E-03 0.  1.
         12    1    3    3    0    0  0.72181580945E+01 -0.11825326751E+02  0.18282317619E+01  0.13974354741E+02  0.00000000000E+00 0. -1.
</event>
<event>
 7    1  0.6245487E-013  0.5052886E+02  0.7816164E-02  0.1300439E+00
        -11   -1    0    0    0    0  0.00000000000E+00  0.00000000000E+00  0.45593999997E+02  0.45594000000E+02  0.51100000000E-03 0. -1.
         11   -1    0    0    0    0 -0.00000000000E+00 -0.00000000000E+00 -0.45593999997E+02  0.45594000000E+02  0.51100000000E-03 0.  1.
    9900012    2    1    2    0    0 -0.21236347476E+02 -0.29839538396E+01 -0.34543871034E+02  0.50528862519E+02  0.30000008114E+02 0.  0.
         12    1    1    2    0    0  0.21236347476E+02  0.29839538396E+01  0.34543871034E+02  0.40659137481E+02  0.00000000000E+00 0. -1.
         11    1    3    3    0    0 -0.52112941906E+01 -0.71976778997E+01 -0.15780986922E+01  0.90252174507E+01  0.51100000000E-03 0. -1.
        -11    1    3    3    0    0 -0.14441661374E+02 -0.39089881787E+01 -0.12741282175E+02  0.19651515045E+02  0.51100000000E-03 0.  1.
         12    1    3    3    0    0 -0.15833919112E+01  0.81227122389E+01 -0.20224490167E+02  0.21852130024E+02  0.00000000000E+00 0. -1.
</event>
<event>
 7    1  0.6245487E-013  0.5052886E+02  0.7816164E-02  0.1300439E+00
        -11   -1    0    0    0    0  0.00000000000E+00  0.00000000000E+00  0.45593999997E+02  0.45594000000E+02  0.51100000000E-03 0. -1.
         11   -1    0    0    0    0 -0.00000000000E+00 -0.00000000000E+00 -0.45593999997E+02  0.45594000000E+02  0.51100000000E-03 0.  1.
    9900012    2    1    2    0    0  0.11661912081E+02  0.27591229946E+02 -0.27493444426E+02  0.50528860195E+02  0.30000001047E+02 0.  0.
         12    1    1    2    0    0 -0.11661912081E+02 -0.27591229946E+02  0.27493444426E+02  0.40659139805E+02  0.00000000000E+00 0. -1.
         11    1    3    3    0    0 -0.42104998018E+01  0.10165890441E+02  0.11137305793E+01  0.11059567491E+02  0.51100000000E-03 0. -1.
        -11    1    3    3    0    0  0.64496532525E+01  0.16776043751E+01 -0.16620633063E+01  0.68683941509E+01  0.51100000000E-03 0.  1.
         12    1    3    3    0    0  0.94227586303E+01  0.15747735130E+02 -0.26945111699E+02  0.32600898552E+02  0.00000000000E+00 0. -1.
</event>
<event>
 7    1  0.6245487E-013  0.5052885E+02  0.7816164E-02  0.1300439E+00
        -11   -1    0    0    0    0  0.00000000000E+00  0.00000000000E+00  0.45593999997E+02  0.45594000000E+02  0.51100000000E-03 0.  1.
         11   -1    0    0    0    0 -0.00000000000E+00 -0.00000000000E+00 -0.45593999997E+02  0.45594000000E+02  0.51100000000E-03 0. -1.
    9900012    2    1    2    0    0 -0.12801876563E+02  0.29070105468E+02  0.25381248938E+02  0.50528845150E+02  0.29999955318E+02 0.  0.
         12    1    1    2    0    0  0.12801876563E+02 -0.29070105468E+02 -0.25381248938E+02  0.40659154850E+02  0.00000000000E+00 0. -1.
         11    1    3    3    0    0 -0.38302124027E+00  0.53958068973E+01 -0.41713790202E+01  0.68309472648E+01  0.51100000000E-03 0. -1.
        -11    1    3    3    0    0  0.32805484857E+01  0.11261620621E+02  0.14528355917E+02  0.18672418785E+02  0.51100000000E-03 0.  1.
         12    1    3    3    0    0 -0.15699403808E+02  0.12412677950E+02  0.15024272041E+02  0.25025479100E+02  0.00000000000E+00 0. -1.
</event>
<event>
 7    1  0.6245487E-013  0.5052886E+02  0.7816164E-02  0.1300439E+00
        -11   -1    0    0    0    0  0.00000000000E+00  0.00000000000E+00  0.45593999997E+02  0.45594000000E+02  0.51100000000E-03 0. -1.
         11   -1    0    0    0    0 -0.00000000000E+00 -0.00000000000E+00 -0.45593999997E+02  0.45594000000E+02  0.51100000000E-03 0.  1.
    9900012    2    1    2    0    0 -0.15345380552E+02  0.36635614620E+02 -0.86900480488E+01  0.50528857142E+02  0.29999991769E+02 0.  0.
         12    1    1    2    0    0  0.15345380552E+02 -0.36635614620E+02  0.86900480488E+01  0.40659142858E+02  0.00000000000E+00 0. -1.
         11    1    3    3    0    0  0.10860655925E+01 -0.30148322126E+00  0.24870184972E+01  0.27305112837E+01  0.51100000000E-03 0. -1.
        -11    1    3    3    0    0  0.10631871093E+01  0.87600007136E+01 -0.11667029227E+02  0.14628313319E+02  0.51100000000E-03 0.  1.
         12    1    3    3    0    0 -0.17494633254E+02  0.28177097127E+02  0.48996268078E+00  0.33170032539E+02  0.00000000000E+00 0. -1.
</event>
<event>
 7    1 -0.6245487E-013  0.5052885E+02  0.7816164E-02  0.1300439E+00
        -11   -1    0    0    0    0  0.00000000000E+00  0.00000000000E+00  0.45593999997E+02  0.45594000000E+02  0.51100000000E-03 0. -1.
         11   -1    0    0    0    0 -0.00000000000E+00 -0.00000000000E+00 -0.45593999997E+02  0.45594000000E+02  0.51100000000E-03 0.  1.
    9900012    2    1    2    0    0 -0.37554668578E+02  0.82762609730E+01 -0.13202897649E+02  0.50528854239E+02  0.29999982944E+02 0.  0.
         12    1    1    2    0    0  0.37554668578E+02 -0.82762609730E+01  0.13202897649E+02  0.40659145761E+02  0.00000000000E+00 0. -1.
         11    1    3    3    0    0 -0.13356298375E+01 -0.41033226303E+01  0.31803776068E+01  0.53605937781E+01  0.51100000000E-03 0. -1.
        -11    1    3    3    0    0 -0.11845215342E+02  0.11984143147E+01  0.27586454603E+01  0.12221106677E+02  0.51100000000E-03 0.  1.
         12    1    3    3    0    0 -0.24373823398E+02  0.11181169289E+02 -0.19141920716E+02  0.32947153783E+02  0.00000000000E+00 0. -1.
</event>
<event>
 7    1  0.6245487E-013  0.5052886E+02  0.7816164E-02  0.1300439E+00
        -11   -1    0    0    0    0  0.00000000000E+00  0.00000000000E+00  0.45593999997E+02  0.45594000000E+02  0.51100000000E-03 0.  1.
         11   -1    0    0    0    0 -0.00000000000E+00 -0.00000000000E+00 -0.45593999997E+02  0.45594000000E+02  0.51100000000E-03 0. -1.
    9900012    2    1    2    0    0  0.15418521630E+02 -0.24287528055E+02  0.28732397059E+02  0.50528862416E+02  0.30000007800E+02 0.  0.
         12    1    1    2    0    0 -0.15418521630E+02  0.24287528055E+02 -0.28732397059E+02  0.40659137584E+02  0.00000000000E+00 0. -1.
         11    1    3    3    0    0  0.11943889540E+02 -0.83474569439E+01  0.18250564814E+02  0.23354221269E+02  0.51100000000E-03 0.  1.
        -11    1    3    3    0    0  0.39930555403E+01 -0.54845418881E+00 -0.42538427523E+01  0.58600744848E+01  0.51100000000E-03 0. -1.
         12    1    3    3    0    0 -0.51842345050E+00 -0.15391616923E+02  0.14735674997E+02  0.21314566662E+02  0.00000000000E+00 0. -1.
</event>
<event>
 7    1  0.6245487E-013  0.5052886E+02  0.7816164E-02  0.1300439E+00
        -11   -1    0    0    0    0  0.00000000000E+00  0.00000000000E+00  0.45593999997E+02  0.45594000000E+02  0.51100000000E-03 0.  1.
         11   -1    0    0    0    0 -0.00000000000E+00 -0.00000000000E+00 -0.45593999997E+02  0.45594000000E+02  0.51100000000E-03 0. -1.
    9900012    2    1    2    0    0  0.77869791612E+01  0.31632114144E+02  0.24329781907E+02  0.50528856166E+02  0.29999988803E+02 0.  0.
         12    1    1    2    0    0 -0.77869791612E+01 -0.31632114144E+02 -0.24329781907E+02  0.40659143834E+02  0.00000000000E+00 0. -1.
         11    1    3    3    0    0  0.19249028710E+00  0.13527104659E+01  0.12675046885E+02  0.12748478024E+02  0.51100000000E-03 0. -1.
        -11    1    3    3    0    0  0.93497840933E+01  0.51000215897E+01  0.43472614518E+01  0.11503363212E+02  0.51100000000E-03 0.  1.
         12    1    3    3    0    0 -0.17552952192E+01  0.25179382088E+02  0.73074735697E+01  0.26277014930E+02  0.00000000000E+00 0. -1.
</event>
<event>
 7    1  0.6245487E-013  0.5052886E+02  0.7816164E-02  0.1300439E+00
        -11   -1    0    0    0    0  0.00000000000E+00  0.00000000000E+00  0.45593999997E+02  0.45594000000E+02  0.51100000000E-03 0.  1.
         11   -1    0    0    0    0 -0.00000000000E+00 -0.00000000000E+00 -0.45593999997E+02  0.45594000000E+02  0.51100000000E-03 0. -1.
    9900012    2    1    2    0    0 -0.62313880446E+00 -0.39805489513E+02 -0.82644152197E+01  0.50528857655E+02  0.29999993328E+02 0.  0.
         12    1    1    2    0    0  0.62313880446E+00  0.39805489513E+02  0.82644152197E+01  0.40659142345E+02  0.00000000000E+00 0. -1.
         11    1    3    3    0    0 -0.53764781619E+01 -0.79909818496E+01  0.33103428256E+01  0.10184334943E+02  0.51100000000E-03 0. -1.
        -11    1    3    3    0    0  0.10483878699E+02 -0.62316005700E+01 -0.16284948465E+01  0.12304330699E+02  0.51100000000E-03 0.  1.
         12    1    3    3    0    0 -0.57305393414E+01 -0.25582907093E+02 -0.99462631988E+01  0.28040192013E+02  0.00000000000E+00 0. -1.
</event>
<event>
 7    1  0.6245487E-013  0.5052886E+02  0.7816164E-02  0.1300439E+00
        -11   -1    0    0    0    0  0.00000000000E+00  0.00000000000E+00  0.45593999997E+02  0.45594000000E+02  0.51100000000E-03 0. -1.
         11   -1    0    0    0    0 -0.00000000000E+00 -0.00000000000E+00 -0.45593999997E+02  0.45594000000E+02  0.51100000000E-03 0.  1.
    9900012    2    1    2    0    0 -0.17010377258E+02 -0.36554033430E+02 -0.52550245402E+01  0.50528861084E+02  0.30000003750E+02 0.  0.
         12    1    1    2    0    0  0.17010377258E+02  0.36554033430E+02  0.52550245402E+01  0.40659138916E+02  0.00000000000E+00 0. -1.
         11    1    3    3    0    0  0.20602753192E+01 -0.39103193321E+01 -0.28296051831E+00  0.44289274758E+01  0.51100000000E-03 0. -1.
        -11    1    3    3    0    0  0.58533471448E+01 -0.42710327581E+01 -0.40981681450E+01  0.83245646147E+01  0.51100000000E-03 0.  1.
        -12    1    3    3    0    0 -0.24923999722E+02 -0.28372681340E+02 -0.87389587696E+00  0.37775368993E+02  0.00000000000E+00 0.  1.
</event>
<event>
 7    1  0.6245487E-013  0.5052885E+02  0.7816164E-02  0.1300439E+00
        -11   -1    0    0    0    0  0.00000000000E+00  0.00000000000E+00  0.45593999997E+02  0.45594000000E+02  0.51100000000E-03 0. -1.
         11   -1    0    0    0    0 -0.00000000000E+00 -0.00000000000E+00 -0.45593999997E+02  0.45594000000E+02  0.51100000000E-03 0.  1.
    9900012    2    1    2    0    0 -0.11247300224E+02  0.38919808078E+02 -0.34515977669E+01  0.50528846660E+02  0.29999959909E+02 0.  0.
         12    1    1    2    0    0  0.11247300224E+02 -0.38919808078E+02  0.34515977669E+01  0.40659153340E+02  0.00000000000E+00 0. -1.
         11    1    3    3    0    0 -0.12670211399E+02  0.21458502877E+02  0.85622975684E+01  0.26349849003E+02  0.51100000000E-03 0. -1.
        -11    1    3    3    0    0  0.11036281010E+01 -0.15741223809E+01 -0.78842613502E+00  0.20778528069E+01  0.51100000000E-03 0.  1.
        -12    1    3    3    0    0  0.31928307389E+00  0.19035427582E+02 -0.11225469200E+02  0.22101144850E+02  0.00000000000E+00 0.  1.
</event>
<event>
 7    1  0.6245487E-013  0.5052886E+02  0.7816164E-02  0.1300439E+00
        -11   -1    0    0    0    0  0.00000000000E+00  0.00000000000E+00  0.45593999997E+02  0.45594000000E+02  0.51100000000E-03 0. -1.
         11   -1    0    0    0    0 -0.00000000000E+00 -0.00000000000E+00 -0.45593999997E+02  0.45594000000E+02  0.51100000000E-03 0.  1.
    9900012    2    1    2    0    0  0.21906811724E+02  0.52755260217E+01 -0.33844144163E+02  0.50528859960E+02  0.30000000333E+02 0.  0.
         12    1    1    2    0    0 -0.21906811724E+02 -0.52755260217E+01  0.33844144163E+02  0.40659140040E+02  0.00000000000E+00 0. -1.
         11    1    3    3    0    0  0.50288689658E+01 -0.13479179456E+01 -0.21957450763E+02  0.22566259108E+02  0.51100000000E-03 0. -1.
        -11    1    3    3    0    0  0.10826865675E+02  0.70444678235E+01 -0.16052551586E+02  0.20604124828E+02  0.51100000000E-03 0.  1.
         12    1    3    3    0    0  0.60510770831E+01 -0.42102385613E+00  0.41658581864E+01  0.73584760231E+01  0.00000000000E+00 0. -1.
</event>
<event>
 7    1  0.6245487E-013  0.5052886E+02  0.7816164E-02  0.1300439E+00
        -11   -1    0    0    0    0  0.00000000000E+00  0.00000000000E+00  0.45593999997E+02  0.45594000000E+02  0.51100000000E-03 0.  1.
         11   -1    0    0    0    0 -0.00000000000E+00 -0.00000000000E+00 -0.45593999997E+02  0.45594000000E+02  0.51100000000E-03 0. -1.
    9900012    2    1    2    0    0 -0.30975061048E+02 -0.35063859283E+01  0.26103958966E+02  0.50528858065E+02  0.29999994573E+02 0.  0.
         12    1    1    2    0    0  0.30975061048E+02  0.35063859283E+01 -0.26103958966E+02  0.40659141935E+02  0.00000000000E+00 0. -1.
         11    1    3    3    0    0  0.24053053515E+01  0.50065261396E+01  0.29746100866E+01  0.63007224386E+01  0.51100000000E-03 0. -1.
        -11    1    3    3    0    0  0.13344176310E+01  0.10302959771E+01  0.12486895199E+01  0.20979528099E+01  0.51100000000E-03 0.  1.
        -12    1    3    3    0    0 -0.34714784031E+02 -0.95432080449E+01  0.21880659360E+02  0.42130182816E+02  0.00000000000E+00 0.  1.
</event>
<event>
 7    1  0.6245487E-013  0.5052886E+02  0.7816164E-02  0.1300439E+00
        -11   -1    0    0    0    0  0.00000000000E+00  0.00000000000E+00  0.45593999997E+02  0.45594000000E+02  0.51100000000E-03 0.  1.
         11   -1    0    0    0    0 -0.00000000000E+00 -0.00000000000E+00 -0.45593999997E+02  0.45594000000E+02  0.51100000000E-03 0. -1.
    9900012    2    1    2    0    0 -0.40089956506E+02  0.66676507419E+01  0.12261717766E+01  0.50528859868E+02  0.30000000055E+02 0.  0.
         12    1    1    2    0    0  0.40089956506E+02 -0.66676507419E+01 -0.12261717766E+01  0.40659140132E+02  0.00000000000E+00 0. -1.
         11    1    3    3    0    0 -0.66028118993E+01  0.10848668944E+02 -0.66460090435E+01  0.14333882214E+02  0.51100000000E-03 0. -1.
        -11    1    3    3    0    0 -0.56809399205E+01 -0.33737871247E+01  0.48853122018E+01  0.82171645665E+01  0.51100000000E-03 0.  1.
        -12    1    3    3    0    0 -0.27806204686E+02 -0.80723107784E+00  0.29868686183E+01  0.27977813088E+02  0.00000000000E+00 0.  1.
</event>
<event>
 7    1  0.6245487E-013  0.5052886E+02  0.7816164E-02  0.1300439E+00
        -11   -1    0    0    0    0  0.00000000000E+00  0.00000000000E+00  0.45593999997E+02  0.45594000000E+02  0.51100000000E-03 0.  1.
         11   -1    0    0    0    0 -0.00000000000E+00 -0.00000000000E+00 -0.45593999997E+02  0.45594000000E+02  0.51100000000E-03 0. -1.
    9900012    2    1    2    0    0 -0.20248384470E+01 -0.25488382605E+02  0.31613419347E+02  0.50528857100E+02  0.29999991640E+02 0.  0.
         12    1    1    2    0    0  0.20248384470E+01  0.25488382605E+02 -0.31613419347E+02  0.40659142900E+02  0.00000000000E+00 0. -1.
         11    1    3    3    0    0  0.48239899540E+01 -0.80335430273E+01  0.24928554047E+02  0.26631588382E+02  0.51100000000E-03 0. -1.
        -11    1    3    3    0    0  0.15302257135E+01 -0.12470506616E+02  0.65004459348E+01  0.14146056821E+02  0.51100000000E-03 0.  1.
        -12    1    3    3    0    0 -0.83790541146E+01 -0.49843329622E+01  0.18441936606E+00  0.97512118957E+01  0.00000000000E+00 0.  1.
</event>
<event>
 7    1  0.6245487E-013  0.5052886E+02  0.7816164E-02  0.1300439E+00
        -11   -1    0    0    0    0  0.00000000000E+00  0.00000000000E+00  0.45593999997E+02  0.45594000000E+02  0.51100000000E-03 0.  1.
         11   -1    0    0    0    0 -0.00000000000E+00 -0.00000000000E+00 -0.45593999997E+02  0.45594000000E+02  0.51100000000E-03 0. -1.
    9900012    2    1    2    0    0 -0.49579350791E+01 -0.22508146982E+02  0.33495787065E+02  0.50528861397E+02  0.30000004703E+02 0.  0.
         12    1    1    2    0    0  0.49579350791E+01  0.22508146982E+02 -0.33495787065E+02  0.40659138603E+02  0.00000000000E+00 0. -1.
         11    1    3    3    0    0 -0.54153803011E+00 -0.14397421013E+02  0.21271955399E+02  0.25691926398E+02  0.51100000000E-03 0. -1.
        -11    1    3    3    0    0 -0.17375530062E+01 -0.10146549716E+02  0.16468057547E+02  0.19420825966E+02  0.51100000000E-03 0.  1.
         12    1    3    3    0    0 -0.26788440427E+01  0.20358237461E+01 -0.42442258812E+01  0.54161090333E+01  0.00000000000E+00 0. -1.
</event>
<event>
 7    1  0.6245487E-013  0.5052886E+02  0.7816164E-02  0.1300439E+00
        -11   -1    0    0    0    0  0.00000000000E+00  0.00000000000E+00  0.45593999997E+02  0.45594000000E+02  0.51100000000E-03 0. -1.
         11   -1    0    0    0    0 -0.00000000000E+00 -0.00000000000E+00 -0.45593999997E+02  0.45594000000E+02  0.51100000000E-03 0.  1.
    9900012    2    1    2    0    0 -0.28700738805E+02  0.10811329369E+01 -0.28779585639E+02  0.50528858274E+02  0.29999995208E+02 0.  0.
         12    1    1    2    0    0  0.28700738805E+02 -0.10811329369E+01  0.28779585639E+02  0.40659141726E+02  0.00000000000E+00 0. -1.
         11    1    3    3    0    0 -0.11731865202E+02  0.43524162577E+01 -0.38908534408E+01  0.13104156942E+02  0.51100000000E-03 0. -1.
        -11    1    3    3    0    0 -0.13728197140E+02  0.68387786211E+01 -0.21239575993E+02  0.26198318236E+02  0.51100000000E-03 0.  1.
        -12    1    3    3    0    0 -0.32406764623E+01 -0.10110061942E+02 -0.36491562053E+01  0.11226383096E+02  0.00000000000E+00 0.  1.
</event>
<event>
 7    1  0.6245487E-013  0.5052886E+02  0.7816164E-02  0.1300439E+00
        -11   -1    0    0    0    0  0.00000000000E+00  0.00000000000E+00  0.45593999997E+02  0.45594000000E+02  0.51100000000E-03 0. -1.
         11   -1    0    0    0    0 -0.00000000000E+00 -0.00000000000E+00 -0.45593999997E+02  0.45594000000E+02  0.51100000000E-03 0.  1.
    9900012    2    1    2    0    0 -0.37213914244E+02  0.80441052979E+01  0.14268244308E+02  0.50528857866E+02  0.29999993971E+02 0.  0.
         12    1    1    2    0    0  0.37213914244E+02 -0.80441052979E+01 -0.14268244308E+02  0.40659142134E+02  0.00000000000E+00 0. -1.
         11    1    3    3    0    0  0.59631296188E+00 -0.28749422282E+00  0.69183434126E+01  0.69499437345E+01  0.51100000000E-03 0. -1.
        -11    1    3    3    0    0 -0.11811398132E+02  0.11812458972E+02  0.34960634163E+01  0.17066510260E+02  0.51100000000E-03 0.  1.
        -12    1    3    3    0    0 -0.25998829074E+02 -0.34808594509E+01  0.38538374793E+01  0.26512403872E+02  0.00000000000E+00 0.  1.
</event>
<event>
 7    1  0.6245487E-013  0.5052886E+02  0.7816164E-02  0.1300439E+00
        -11   -1    0    0    0    0  0.00000000000E+00  0.00000000000E+00  0.45593999997E+02  0.45594000000E+02  0.51100000000E-03 0.  1.
         11   -1    0    0    0    0 -0.00000000000E+00 -0.00000000000E+00 -0.45593999997E+02  0.45594000000E+02  0.51100000000E-03 0. -1.
    9900012    2    1    2    0    0 -0.28417539139E+02 -0.22727934632E+02  0.18139743769E+02  0.50528857764E+02  0.29999993659E+02 0.  0.
         12    1    1    2    0    0  0.28417539139E+02  0.22727934632E+02 -0.18139743769E+02  0.40659142236E+02  0.00000000000E+00 0. -1.
         11    1    3    3    0    0 -0.11568728851E+02 -0.46217197980E+01  0.11168037732E+02  0.16730835250E+02  0.51100000000E-03 0.  1.
        -11    1    3    3    0    0 -0.20544236309E+02 -0.80901191096E+01  0.24910760696E+01  0.22219836475E+02  0.51100000000E-03 0. -1.
        -12    1    3    3    0    0  0.36954260210E+01 -0.10016095725E+02  0.44806299672E+01  0.11578186039E+02  0.00000000000E+00 0.  1.
</event>
<event>
 7    1  0.6245487E-013  0.5052888E+02  0.7816164E-02  0.1300439E+00
        -11   -1    0    0    0    0  0.00000000000E+00  0.00000000000E+00  0.45593999997E+02  0.45594000000E+02  0.51100000000E-03 0. -1.
         11   -1    0    0    0    0 -0.00000000000E+00 -0.00000000000E+00 -0.45593999997E+02  0.45594000000E+02  0.51100000000E-03 0.  1.
    9900012    2    1    2    0    0 -0.23878861977E+02  0.25728584114E+02 -0.20518375000E+02  0.50528882911E+02  0.30000070096E+02 0.  0.
         12    1    1    2    0    0  0.23878861977E+02 -0.25728584114E+02  0.20518375000E+02  0.40659117089E+02  0.00000000000E+00 0. -1.
         11    1    3    3    0    0 -0.15578617201E+02  0.89992831421E+01 -0.34271951143E+01  0.18314641072E+02  0.51100000000E-03 0.  1.
        -11    1    3    3    0    0 -0.10714215929E+02  0.57319009156E+01 -0.17072290695E+02  0.20955004675E+02  0.51100000000E-03 0. -1.
         12    1    3    3    0    0  0.24139711530E+01  0.10997400056E+02 -0.18889190604E-01  0.11259237164E+02  0.00000000000E+00 0. -1.
</event>
<event>
 7    1  0.6245487E-013  0.5052886E+02  0.7816164E-02  0.1300439E+00
        -11   -1    0    0    0    0  0.00000000000E+00  0.00000000000E+00  0.45593999997E+02  0.45594000000E+02  0.51100000000E-03 0. -1.
         11   -1    0    0    0    0 -0.00000000000E+00 -0.00000000000E+00 -0.45593999997E+02  0.45594000000E+02  0.51100000000E-03 0.  1.
    9900012    2    1    2    0    0 -0.90428730463E+00 -0.40513719702E+02 -0.33145501343E+01  0.50528862500E+02  0.30000008056E+02 0.  0.
         12    1    1    2    0    0  0.90428730463E+00  0.40513719702E+02  0.33145501343E+01  0.40659137500E+02  0.00000000000E+00 0. -1.
         11    1    3    3    0    0  0.18090144167E+01 -0.10509102132E+02  0.10769955550E+02  0.15156045117E+02  0.51100000000E-03 0. -1.
        -11    1    3    3    0    0 -0.45302255071E+01 -0.79409938948E+01 -0.15650293080E-01  0.91423504841E+01  0.51100000000E-03 0.  1.
        -12    1    3    3    0    0  0.18169237858E+01 -0.22063623675E+02 -0.14068855391E+02  0.26230466899E+02  0.00000000000E+00 0.  1.
</event>
<event>
 7    1  0.6245487E-013  0.5052886E+02  0.7816164E-02  0.1300439E+00
        -11   -1    0    0    0    0  0.00000000000E+00  0.00000000000E+00  0.45593999997E+02  0.45594000000E+02  0.51100000000E-03 0.  1.
         11   -1    0    0    0    0 -0.00000000000E+00 -0.00000000000E+00 -0.45593999997E+02  0.45594000000E+02  0.51100000000E-03 0. -1.
    9900012    2    1    2    0    0 -0.29525657032E+01  0.78933019307E+00  0.40544112963E+02  0.50528858564E+02  0.29999996091E+02 0.  0.
         12    1    1    2    0    0  0.29525657032E+01 -0.78933019307E+00 -0.40544112963E+02  0.40659141436E+02  0.00000000000E+00 0. -1.
         11    1    3    3    0    0  0.79218567414E+01  0.94264782279E+01  0.21940818516E+02  0.25159765965E+02  0.51100000000E-03 0.  1.
        -11    1    3    3    0    0 -0.33144028914E+00 -0.19506277251E+01 -0.93051775139E+00  0.21864731267E+01  0.51100000000E-03 0. -1.
        -12    1    3    3    0    0 -0.10542982155E+02 -0.66865203097E+01  0.19533812198E+02  0.23182619472E+02  0.00000000000E+00 0.  1.
</event>
<event>
 7    1  0.6245487E-013  0.5052886E+02  0.7816164E-02  0.1300439E+00
        -11   -1    0    0    0    0  0.00000000000E+00  0.00000000000E+00  0.45593999997E+02  0.45594000000E+02  0.51100000000E-03 0.  1.
         11   -1    0    0    0    0 -0.00000000000E+00 -0.00000000000E+00 -0.45593999997E+02  0.45594000000E+02  0.51100000000E-03 0. -1.
    9900012    2    1    2    0    0 -0.26117972185E+02  0.82662049975E+01  0.30044753159E+02  0.50528858242E+02  0.29999995113E+02 0.  0.
         12    1    1    2    0    0  0.26117972185E+02 -0.82662049975E+01 -0.30044753159E+02  0.40659141758E+02  0.00000000000E+00 0. -1.
         11    1    3    3    0    0 -0.71597737272E+01  0.83831822127E+01  0.35950439856E+00  0.11030382927E+02  0.51100000000E-03 0. -1.
        -11    1    3    3    0    0  0.35374955631E+01  0.33598195739E+00  0.38689999100E+01  0.52531818262E+01  0.51100000000E-03 0.  1.
        -12    1    3    3    0    0 -0.22495694020E+02 -0.45295917261E+00  0.25816248850E+02  0.34245293489E+02  0.00000000000E+00 0.  1.
</event>
<event>
 7    1  0.6245487E-013  0.5052885E+02  0.7816164E-02  0.1300439E+00
        -11   -1    0    0    0    0  0.00000000000E+00  0.00000000000E+00  0.45593999997E+02  0.45594000000E+02  0.51100000000E-03 0.  1.
         11   -1    0    0    0    0 -0.00000000000E+00 -0.00000000000E+00 -0.45593999997E+02  0.45594000000E+02  0.51100000000E-03 0. -1.
    9900012    2    1    2    0    0 -0.12622852460E+02 -0.77365038756E+01 -0.37867885786E+02  0.50528847643E+02  0.29999962897E+02 0.  0.
         12    1    1    2    0    0  0.12622852460E+02  0.77365038756E+01  0.37867885786E+02  0.40659152357E+02  0.00000000000E+00 0. -1.
         11    1    3    3    0    0  0.26343483813E+01  0.16215713501E+01 -0.39086603011E+01  0.49846675564E+01  0.51100000000E-03 0. -1.
        -11    1    3    3    0    0 -0.97234937075E+01  0.18817167882E+01 -0.61374580062E+00  0.99228963574E+01  0.51100000000E-03 0.  1.
        -12    1    3    3    0    0 -0.55337071337E+01 -0.11239792014E+02 -0.33345479684E+02  0.35621283730E+02  0.00000000000E+00 0.  1.
</event>
<event>
 7    1  0.6245487E-013  0.5052896E+02  0.7816164E-02  0.1300438E+00
        -11   -1    0    0    0    0  0.00000000000E+00  0.00000000000E+00  0.45593999997E+02  0.45594000000E+02  0.51100000000E-03 0.  1.
         11   -1    0    0    0    0 -0.00000000000E+00 -0.00000000000E+00 -0.45593999997E+02  0.45594000000E+02  0.51100000000E-03 0. -1.
    9900012    2    1    2    0    0 -0.36293140798E+02  0.18101535995E+02 -0.28808955908E+01  0.50528963689E+02  0.30000315627E+02 0.  0.
         12    1    1    2    0    0  0.36293140798E+02 -0.18101535995E+02  0.28808955908E+01  0.40659036311E+02  0.00000000000E+00 0. -1.
         11    1    3    3    0    0 -0.18485524653E+01  0.10257607997E+02 -0.22358888802E+01  0.10659965637E+02  0.51100000000E-03 0. -1.
        -11    1    3    3    0    0 -0.76872208921E+01 -0.23625182524E+01  0.65146928389E+01  0.10349689879E+02  0.51100000000E-03 0.  1.
        -12    1    3    3    0    0 -0.26757367440E+02  0.10206446251E+02 -0.71596995495E+01  0.29519308174E+02  0.00000000000E+00 0.  1.
</event>
<event>
 7    1  0.6245487E-013  0.5052890E+02  0.7816164E-02  0.1300439E+00
        -11   -1    0    0    0    0  0.00000000000E+00  0.00000000000E+00  0.45593999997E+02  0.45594000000E+02  0.51100000000E-03 0. -1.
         11   -1    0    0    0    0 -0.00000000000E+00 -0.00000000000E+00 -0.45593999997E+02  0.45594000000E+02  0.51100000000E-03 0.  1.
    9900012    2    1    2    0    0  0.12684784823E+02  0.35643026092E+02 -0.14894064561E+02  0.50528902197E+02  0.30000128718E+02 0.  0.
         12    1    1    2    0    0 -0.12684784823E+02 -0.35643026092E+02  0.14894064561E+02  0.40659097803E+02  0.00000000000E+00 0. -1.
         11    1    3    3    0    0  0.83044442326E+01  0.33360313087E+01 -0.42076790042E+01  0.98892599201E+01  0.51100000000E-03 0. -1.
        -11    1    3    3    0    0 -0.63318820308E+01  0.16610632961E+01 -0.33638762432E+01  0.73598590317E+01  0.51100000000E-03 0.  1.
        -12    1    3    3    0    0  0.10712222622E+02  0.30645931487E+02 -0.73225093138E+01  0.33279783245E+02  0.00000000000E+00 0.  1.
</event>
<event>
 7    1  0.6245487E-013  0.5052886E+02  0.7816164E-02  0.1300439E+00
        -11   -1    0    0    0    0  0.00000000000E+00  0.00000000000E+00  0.45593999997E+02  0.45594000000E+02  0.51100000000E-03 0.  1.
         11   -1    0    0    0    0 -0.00000000000E+00 -0.00000000000E+00 -0.45593999997E+02  0.45594000000E+02  0.51100000000E-03 0. -1.
    9900012    2    1    2    0    0  0.31370286195E+02 -0.22989797848E+02 -0.11854956532E+02  0.50528860124E+02  0.30000000833E+02 0.  0.
         12    1    1    2    0    0 -0.31370286195E+02  0.22989797848E+02  0.11854956532E+02  0.40659139876E+02  0.00000000000E+00 0. -1.
         11    1    3    3    0    0 -0.33300934678E+01 -0.15353564128E+01 -0.22890045956E+01  0.43227750483E+01  0.51100000000E-03 0. -1.
        -11    1    3    3    0    0  0.12863692999E+02 -0.16538424639E+02 -0.11210074770E+02  0.23762572750E+02  0.51100000000E-03 0.  1.
         12    1    3    3    0    0  0.21836686664E+02 -0.49160167962E+01  0.16441228332E+01  0.22443512325E+02  0.00000000000E+00 0. -1.
</event>
<event>
 7    1  0.6245487E-013  0.5052885E+02  0.7816164E-02  0.1300439E+00
        -11   -1    0    0    0    0  0.00000000000E+00  0.00000000000E+00  0.45593999997E+02  0.45594000000E+02  0.51100000000E-03 0. -1.
         11   -1    0    0    0    0 -0.00000000000E+00 -0.00000000000E+00 -0.45593999997E+02  0.45594000000E+02  0.51100000000E-03 0.  1.
    9900012    2    1    2    0    0 -0.29454834791E+02 -0.27299744256E+02 -0.63484589870E+01  0.50528852684E+02  0.29999978217E+02 0.  0.
         12    1    1    2    0    0  0.29454834791E+02  0.27299744256E+02  0.63484589870E+01  0.40659147316E+02  0.00000000000E+00 0. -1.
         11    1    3    3    0    0 -0.89975302566E+01 -0.62927241619E+01 -0.83012762222E+01  0.13764632769E+02  0.51100000000E-03 0. -1.
        -11    1    3    3    0    0 -0.64573443177E+01 -0.10160146393E+02 -0.97881521458E+01  0.15515598379E+02  0.51100000000E-03 0.  1.
         12    1    3    3    0    0 -0.13999960217E+02 -0.10846873701E+02  0.11740969381E+02  0.21248621536E+02  0.00000000000E+00 0. -1.
</event>
<event>
 7    1  0.6245487E-013  0.5052887E+02  0.7816164E-02  0.1300439E+00
        -11   -1    0    0    0    0  0.00000000000E+00  0.00000000000E+00  0.45593999997E+02  0.45594000000E+02  0.51100000000E-03 0.  1.
         11   -1    0    0    0    0 -0.00000000000E+00 -0.00000000000E+00 -0.45593999997E+02  0.45594000000E+02  0.51100000000E-03 0. -1.
    9900012    2    1    2    0    0  0.14248225708E+01  0.29850913902E+02  0.27569137448E+02  0.50528874090E+02  0.30000043284E+02 0.  0.
         12    1    1    2    0    0 -0.14248225708E+01 -0.29850913902E+02 -0.27569137448E+02  0.40659125910E+02  0.00000000000E+00 0. -1.
         11    1    3    3    0    0  0.58669565263E+01  0.12805159473E+02 -0.61613822672E+00  0.14098684853E+02  0.51100000000E-03 0. -1.
        -11    1    3    3    0    0  0.40332591307E+01  0.27945959478E-01  0.41831560298E+01  0.58109168659E+01  0.51100000000E-03 0.  1.
        -12    1    3    3    0    0 -0.84753930863E+01  0.17017808469E+02  0.24002119645E+02  0.30619272371E+02  0.00000000000E+00 0.  1.
</event>
<event>
 7    1  0.6245487E-013  0.5052886E+02  0.7816164E-02  0.1300439E+00
        -11   -1    0    0    0    0  0.00000000000E+00  0.00000000000E+00  0.45593999997E+02  0.45594000000E+02  0.51100000000E-03 0.  1.
         11   -1    0    0    0    0 -0.00000000000E+00 -0.00000000000E+00 -0.45593999997E+02  0.45594000000E+02  0.51100000000E-03 0. -1.
    9900012    2    1    2    0    0 -0.41163863628E+01  0.19712568749E+02  0.35321891353E+02  0.50528855738E+02  0.29999987502E+02 0.  0.
         12    1    1    2    0    0  0.41163863628E+01 -0.19712568749E+02 -0.35321891353E+02  0.40659144262E+02  0.00000000000E+00 0. -1.
         11    1    3    3    0    0 -0.10891833095E+02  0.83651683415E+00  0.98500952879E+01  0.14709050480E+02  0.51100000000E-03 0. -1.
        -11    1    3    3    0    0 -0.15625510321E+01  0.13968585740E+02  0.20728504608E+02  0.25044637287E+02  0.51100000000E-03 0.  1.
         12    1    3    3    0    0  0.83379977639E+01  0.49074661748E+01  0.47432914573E+01  0.10775167972E+02  0.00000000000E+00 0. -1.
</event>
<event>
 7    1  0.6245487E-013  0.5052886E+02  0.7816164E-02  0.1300439E+00
        -11   -1    0    0    0    0  0.00000000000E+00  0.00000000000E+00  0.45593999997E+02  0.45594000000E+02  0.51100000000E-03 0.  1.
         11   -1    0    0    0    0 -0.00000000000E+00 -0.00000000000E+00 -0.45593999997E+02  0.45594000000E+02  0.51100000000E-03 0. -1.
    9900012    2    1    2    0    0  0.80258464628E+00 -0.83019942642E+01  0.39794453445E+02  0.50528858644E+02  0.29999996333E+02 0.  0.
         12    1    1    2    0    0 -0.80258464628E+00  0.83019942642E+01 -0.39794453445E+02  0.40659141356E+02  0.00000000000E+00 0. -1.
         11    1    3    3    0    0  0.43380452501E+01 -0.61292102124E+00 -0.53032619288E+00  0.44131117029E+01  0.51100000000E-03 0. -1.
        -11    1    3    3    0    0 -0.59010228519E+01  0.54129346150E+01  0.88173075916E+01  0.11910786929E+02  0.51100000000E-03 0.  1.
        -12    1    3    3    0    0  0.23655622480E+01 -0.13102007858E+02  0.31507472046E+02  0.34204960012E+02  0.00000000000E+00 0.  1.
</event>
<event>
 7    1  0.6245487E-013  0.5052886E+02  0.7816164E-02  0.1300439E+00
        -11   -1    0    0    0    0  0.00000000000E+00  0.00000000000E+00  0.45593999997E+02  0.45594000000E+02  0.51100000000E-03 0.  1.
         11   -1    0    0    0    0 -0.00000000000E+00 -0.00000000000E+00 -0.45593999997E+02  0.45594000000E+02  0.51100000000E-03 0. -1.
    9900012    2    1    2    0    0  0.53689173085E+01 -0.36249545507E+02  0.17615634984E+02  0.50528863039E+02  0.30000009694E+02 0.  0.
         12    1    1    2    0    0 -0.53689173085E+01  0.36249545507E+02 -0.17615634984E+02  0.40659136961E+02  0.00000000000E+00 0. -1.
         11    1    3    3    0    0  0.37267183298E+01  0.24283303028E+01  0.73811973580E+01  0.86178473105E+01  0.51100000000E-03 0. -1.
        -11    1    3    3    0    0  0.16672454716E+01 -0.11732702467E+02  0.91009541328E+01  0.14942000570E+02  0.51100000000E-03 0.  1.
        -12    1    3    3    0    0 -0.25046492904E-01 -0.26945173343E+02  0.11334834929E+01  0.26969015159E+02  0.00000000000E+00 0.  1.
</event>
<event>
 7    1  0.6245487E-013  0.5052887E+02  0.7816164E-02  0.1300439E+00
        -11   -1    0    0    0    0  0.00000000000E+00  0.00000000000E+00  0.45593999997E+02  0.45594000000E+02  0.51100000000E-03 0.  1.
         11   -1    0    0    0    0 -0.00000000000E+00 -0.00000000000E+00 -0.45593999997E+02  0.45594000000E+02  0.51100000000E-03 0. -1.
    9900012    2    1    2    0    0 -0.14630837571E+02 -0.34491541588E+02 -0.15793562077E+02  0.50528874920E+02  0.30000045808E+02 0.  0.
         12    1    1    2    0    0  0.14630837571E+02  0.34491541588E+02  0.15793562077E+02  0.40659125080E+02  0.00000000000E+00 0. -1.
         11    1    3    3    0    0 -0.52376495319E+01 -0.12283201480E+02  0.32601742508E+01  0.13745499177E+02  0.51100000000E-03 0. -1.
        -11    1    3    3    0    0 -0.23195602574E+01  0.38222587466E+01 -0.22797181850E+01  0.50186788080E+01  0.51100000000E-03 0.  1.
        -12    1    3    3    0    0 -0.70736277817E+01 -0.26030598855E+02 -0.16774018143E+02  0.31764696935E+02  0.00000000000E+00 0.  1.
</event>
<event>
 7    1  0.6245487E-013  0.5052886E+02  0.7816164E-02  0.1300439E+00
        -11   -1    0    0    0    0  0.00000000000E+00  0.00000000000E+00  0.45593999997E+02  0.45594000000E+02  0.51100000000E-03 0.  1.
         11   -1    0    0    0    0 -0.00000000000E+00 -0.00000000000E+00 -0.45593999997E+02  0.45594000000E+02  0.51100000000E-03 0. -1.
    9900012    2    1    2    0    0  0.25889498816E+02 -0.11844566644E+02  0.29027673989E+02  0.50528858775E+02  0.29999996731E+02 0.  0.
         12    1    1    2    0    0 -0.25889498816E+02  0.11844566644E+02 -0.29027673989E+02  0.40659141225E+02  0.00000000000E+00 0. -1.
         11    1    3    3    0    0  0.26075573704E+00 -0.10037239417E+01  0.71626823853E+01  0.72373665458E+01  0.51100000000E-03 0. -1.
        -11    1    3    3    0    0  0.17140152105E+02  0.62204515083E+01  0.12051414292E+02  0.21856701897E+02  0.51100000000E-03 0.  1.
         12    1    3    3    0    0  0.84885909743E+01 -0.17061294211E+02  0.98135773124E+01  0.21434790331E+02  0.00000000000E+00 0. -1.
</event>
<event>
 7    1  0.6245487E-013  0.5052888E+02  0.7816164E-02  0.1300439E+00
        -11   -1    0    0    0    0  0.00000000000E+00  0.00000000000E+00  0.45593999997E+02  0.45594000000E+02  0.51100000000E-03 0.  1.
         11   -1    0    0    0    0 -0.00000000000E+00 -0.00000000000E+00 -0.45593999997E+02  0.45594000000E+02  0.51100000000E-03 0. -1.
    9900012    2    1    2    0    0 -0.33307265216E+01  0.27424852429E+02  0.29831998803E+02  0.50528875286E+02  0.30000046921E+02 0.  0.
         12    1    1    2    0    0  0.33307265216E+01 -0.27424852429E+02 -0.29831998803E+02  0.40659124714E+02  0.00000000000E+00 0. -1.
         11    1    3    3    0    0 -0.39248094142E+01  0.72910938610E+01  0.14926565157E+01  0.84138102167E+01  0.51100000000E-03 0. -1.
        -11    1    3    3    0    0 -0.33260817482E+01  0.79312005288E+01 -0.23003397989E+01  0.89027144779E+01  0.51100000000E-03 0.  1.
        -12    1    3    3    0    0  0.39201646407E+01  0.12202558039E+02  0.30639682086E+02  0.33212350592E+02  0.00000000000E+00 0.  1.
</event>
<event>
 7    1  0.6245487E-013  0.5052886E+02  0.7816164E-02  0.1300439E+00
        -11   -1    0    0    0    0  0.00000000000E+00  0.00000000000E+00  0.45593999997E+02  0.45594000000E+02  0.51100000000E-03 0. -1.
         11   -1    0    0    0    0 -0.00000000000E+00 -0.00000000000E+00 -0.45593999997E+02  0.45594000000E+02  0.51100000000E-03 0.  1.
    9900012    2    1    2    0    0  0.19413189654E+02  0.28922038786E+02 -0.20971634405E+02  0.50528859457E+02  0.29999998806E+02 0.  0.
         12    1    1    2    0    0 -0.19413189654E+02 -0.28922038786E+02  0.20971634405E+02  0.40659140543E+02  0.00000000000E+00 0. -1.
         11    1    3    3    0    0  0.78158146389E+01  0.31655054841E+01  0.51532391310E+01  0.98824722232E+01  0.51100000000E-03 0. -1.
        -11    1    3    3    0    0 -0.43120295850E+00  0.14020914756E+02 -0.90775652059E+01  0.16708506124E+02  0.51100000000E-03 0.  1.
        -12    1    3    3    0    0  0.12028577973E+02  0.11735618546E+02 -0.17047308330E+02  0.23937881110E+02  0.00000000000E+00 0.  1.
</event>
<event>
 7    1  0.6245487E-013  0.5052884E+02  0.7816164E-02  0.1300439E+00
        -11   -1    0    0    0    0  0.00000000000E+00  0.00000000000E+00  0.45593999997E+02  0.45594000000E+02  0.51100000000E-03 0. -1.
         11   -1    0    0    0    0 -0.00000000000E+00 -0.00000000000E+00 -0.45593999997E+02  0.45594000000E+02  0.51100000000E-03 0.  1.
    9900012    2    1    2    0    0 -0.28605020923E+02 -0.35691998370E+01 -0.28673697860E+02  0.50528839182E+02  0.29999937177E+02 0.  0.
         12    1    1    2    0    0  0.28605020923E+02  0.35691998370E+01  0.28673697860E+02  0.40659160818E+02  0.00000000000E+00 0. -1.
         11    1    3    3    0    0 -0.56323272741E+01  0.38386271983E+01 -0.42390954814E+01  0.80267116587E+01  0.51100000000E-03 0. -1.
        -11    1    3    3    0    0 -0.17888528215E+02 -0.16469142705E+02 -0.18340436472E+02  0.30456587356E+02  0.51100000000E-03 0.  1.
         12    1    3    3    0    0 -0.50841654339E+01  0.90613156696E+01 -0.60941659062E+01  0.12045540167E+02  0.00000000000E+00 0. -1.
</event>
<event>
 7    1  0.6245487E-013  0.5052885E+02  0.7816164E-02  0.1300439E+00
        -11   -1    0    0    0    0  0.00000000000E+00  0.00000000000E+00  0.45593999997E+02  0.45594000000E+02  0.51100000000E-03 0. -1.
         11   -1    0    0    0    0 -0.00000000000E+00 -0.00000000000E+00 -0.45593999997E+02  0.45594000000E+02  0.51100000000E-03 0.  1.
    9900012    2    1    2    0    0 -0.61210664912E+01  0.41163753308E+00 -0.40193649077E+02  0.50528851871E+02  0.29999975747E+02 0.  0.
         12    1    1    2    0    0  0.61210664912E+01 -0.41163753308E+00  0.40193649077E+02  0.40659148129E+02  0.00000000000E+00 0. -1.
         11    1    3    3    0    0 -0.80534260853E+01 -0.35192004043E+01 -0.47971397530E+01  0.10012741546E+02  0.51100000000E-03 0. -1.
        -11    1    3    3    0    0 -0.71165634850E+01 -0.24016429892E+01 -0.21443758929E+02  0.22721095091E+02  0.51100000000E-03 0.  1.
        -12    1    3    3    0    0  0.90489230791E+01  0.63324809265E+01 -0.13952750395E+02  0.17795015234E+02  0.00000000000E+00 0.  1.
</event>
<event>
 7    1  0.6245487E-013  0.5052886E+02  0.7816164E-02  0.1300439E+00
        -11   -1    0    0    0    0  0.00000000000E+00  0.00000000000E+00  0.45593999997E+02  0.45594000000E+02  0.51100000000E-03 0.  1.
         11   -1    0    0    0    0 -0.00000000000E+00 -0.00000000000E+00 -0.45593999997E+02  0.45594000000E+02  0.51100000000E-03 0. -1.
    9900012    2    1    2    0    0  0.21443997688E+02 -0.28447329937E+02  0.19597702407E+02  0.50528861335E+02  0.30000004514E+02 0.  0.
         12    1    1    2    0    0 -0.21443997688E+02  0.28447329937E+02 -0.19597702407E+02  0.40659138665E+02  0.00000000000E+00 0. -1.
         11    1    3    3    0    0  0.18766366381E+02 -0.17265960918E+02 -0.57088484048E+00  0.25507171998E+02  0.51100000000E-03 0.  1.
        -11    1    3    3    0    0 -0.16615304406E+01 -0.41678996927E+00 -0.44362788730E-01  0.17135826801E+01  0.51100000000E-03 0. -1.
        -12    1    3    3    0    0  0.43391617468E+01 -0.10764579050E+02  0.20212950036E+02  0.23308106657E+02  0.00000000000E+00 0.  1.
</event>
<event>
 7    1  0.6245487E-013  0.5052886E+02  0.7816164E-02  0.1300439E+00
        -11   -1    0    0    0    0  0.00000000000E+00  0.00000000000E+00  0.45593999997E+02  0.45594000000E+02  0.51100000000E-03 0. -1.
         11   -1    0    0    0    0 -0.00000000000E+00 -0.00000000000E+00 -0.45593999997E+02  0.45594000000E+02  0.51100000000E-03 0.  1.
    9900012    2    1    2    0    0 -0.17288192643E+02 -0.11499012909E+02 -0.34957932268E+02  0.50528856733E+02  0.29999990525E+02 0.  0.
         12    1    1    2    0    0  0.17288192643E+02  0.11499012909E+02  0.34957932268E+02  0.40659143267E+02  0.00000000000E+00 0. -1.
         11    1    3    3    0    0 -0.50610408647E+00  0.38560675705E+01 -0.42357131998E+01  0.57503621648E+01  0.51100000000E-03 0. -1.
        -11    1    3    3    0    0 -0.20775135643E+02 -0.51937121632E+01 -0.22866392363E+02  0.31328147200E+02  0.51100000000E-03 0.  1.
         12    1    3    3    0    0  0.39930470865E+01 -0.10161368316E+02 -0.78558267053E+01  0.13450347368E+02  0.00000000000E+00 0. -1.
</event>
<event>
 7    1  0.6245487E-013  0.5052886E+02  0.7816164E-02  0.1300439E+00
        -11   -1    0    0    0    0  0.00000000000E+00  0.00000000000E+00  0.45593999997E+02  0.45594000000E+02  0.51100000000E-03 0.  1.
         11   -1    0    0    0    0 -0.00000000000E+00 -0.00000000000E+00 -0.45593999997E+02  0.45594000000E+02  0.51100000000E-03 0. -1.
    9900012    2    1    2    0    0 -0.34658429203E+02 -0.16785098619E+02  0.13046815510E+02  0.50528860248E+02  0.30000001209E+02 0.  0.
         12    1    1    2    0    0  0.34658429203E+02  0.16785098619E+02 -0.13046815510E+02  0.40659139752E+02  0.00000000000E+00 0. -1.
         11    1    3    3    0    0 -0.12911820633E+02  0.26903828851E+01  0.13057984594E+01  0.13253617695E+02  0.51100000000E-03 0. -1.
        -11    1    3    3    0    0 -0.51678708771E+01  0.13740843362E+01  0.90372810603E+01  0.10500830748E+02  0.51100000000E-03 0.  1.
         12    1    3    3    0    0 -0.16578737692E+02 -0.20849565840E+02  0.27037359905E+01  0.26774411805E+02  0.00000000000E+00 0. -1.
</event>
<event>
 7    1  0.6245487E-013  0.5052886E+02  0.7816164E-02  0.1300439E+00
        -11   -1    0    0    0    0  0.00000000000E+00  0.00000000000E+00  0.45593999997E+02  0.45594000000E+02  0.51100000000E-03 0. -1.
         11   -1    0    0    0    0 -0.00000000000E+00 -0.00000000000E+00 -0.45593999997E+02  0.45594000000E+02  0.51100000000E-03 0.  1.
    9900012    2    1    2    0    0 -0.33534502766E+02  0.19643362219E+02 -0.11947417042E+02  0.50528864139E+02  0.30000013036E+02 0.  0.
         12    1    1    2    0    0  0.33534502766E+02 -0.19643362219E+02  0.11947417042E+02  0.40659135861E+02  0.00000000000E+00 0. -1.
         11    1    3    3    0    0 -0.92110399194E+01  0.14202266574E+02 -0.15896258935E+02  0.23221513315E+02  0.51100000000E-03 0. -1.
        -11    1    3    3    0    0 -0.76140127293E+01  0.49971091722E+01 -0.24140786469E+01  0.94218929041E+01  0.51100000000E-03 0.  1.
         12    1    3    3    0    0 -0.16709450117E+02  0.44398647239E+00  0.63629205397E+01  0.17885457920E+02  0.00000000000E+00 0. -1.
</event>
<event>
 7    1  0.6245487E-013  0.5052886E+02  0.7816164E-02  0.1300439E+00
        -11   -1    0    0    0    0  0.00000000000E+00  0.00000000000E+00  0.45593999997E+02  0.45594000000E+02  0.51100000000E-03 0. -1.
         11   -1    0    0    0    0 -0.00000000000E+00 -0.00000000000E+00 -0.45593999997E+02  0.45594000000E+02  0.51100000000E-03 0.  1.
    9900012    2    1    2    0    0 -0.64408859223E+01 -0.81924002518E+01 -0.39300956132E+02  0.50528860975E+02  0.30000003420E+02 0.  0.
         12    1    1    2    0    0  0.64408859223E+01  0.81924002518E+01  0.39300956132E+02  0.40659139025E+02  0.00000000000E+00 0. -1.
         11    1    3    3    0    0 -0.10393677268E+02 -0.27062514723E+01 -0.26616536588E+02  0.28701782948E+02  0.51100000000E-03 0. -1.
        -11    1    3    3    0    0  0.85245902598E+01  0.21248697037E+01 -0.74602240584E+01  0.11525565219E+02  0.51100000000E-03 0.  1.
         12    1    3    3    0    0 -0.45717989144E+01 -0.76110184832E+01 -0.52241954852E+01  0.10301512808E+02  0.00000000000E+00 0. -1.
</event>
<event>
 7    1  0.6245487E-013  0.5052886E+02  0.7816164E-02  0.1300439E+00
        -11   -1    0    0    0    0  0.00000000000E+00  0.00000000000E+00  0.45593999997E+02  0.45594000000E+02  0.51100000000E-03 0. -1.
         11   -1    0    0    0    0 -0.00000000000E+00 -0.00000000000E+00 -0.45593999997E+02  0.45594000000E+02  0.51100000000E-03 0.  1.
    9900012    2    1    2    0    0 -0.40236666225E+02 -0.21664889387E+01  0.54297683522E+01  0.50528863664E+02  0.30000011592E+02 0.  0.
         12    1    1    2    0    0  0.40236666225E+02  0.21664889387E+01 -0.54297683522E+01  0.40659136336E+02  0.00000000000E+00 0. -1.
         11    1    3    3    0    0 -0.85649415935E+01 -0.75794342336E+01  0.19335061993E+01  0.11599331631E+02  0.51100000000E-03 0. -1.
        -11    1    3    3    0    0 -0.58831360951E+01 -0.10682534099E+01 -0.79771117903E+01  0.99692912705E+01  0.51100000000E-03 0.  1.
         12    1    3    3    0    0 -0.25788588537E+02  0.64811987048E+01  0.11473373943E+02  0.28960240762E+02  0.00000000000E+00 0. -1.
</event>
<event>
 7    1  0.6245487E-013  0.5052884E+02  0.7816164E-02  0.1300439E+00
        -11   -1    0    0    0    0  0.00000000000E+00  0.00000000000E+00  0.45593999997E+02  0.45594000000E+02  0.51100000000E-03 0.  1.
         11   -1    0    0    0    0 -0.00000000000E+00 -0.00000000000E+00 -0.45593999997E+02  0.45594000000E+02  0.51100000000E-03 0. -1.
    9900012    2    1    2    0    0  0.25615959575E+02  0.29605617554E+02  0.10977139651E+02  0.50528836573E+02  0.29999929246E+02 0.  0.
         12    1    1    2    0    0 -0.25615959575E+02 -0.29605617554E+02 -0.10977139651E+02  0.40659163427E+02  0.00000000000E+00 0. -1.
         11    1    3    3    0    0 -0.53131380975E+01  0.26425775057E+01  0.61046765755E+01  0.85135027262E+01  0.51100000000E-03 0. -1.
        -11    1    3    3    0    0  0.56669158259E+01  0.17714463454E+01  0.18138489479E+01  0.62082207918E+01  0.51100000000E-03 0.  1.
         12    1    3    3    0    0  0.25262181846E+02  0.25191593703E+02  0.30586141271E+01  0.35807113055E+02  0.00000000000E+00 0. -1.
</event>
<event>
 7    1  0.6245487E-013  0.5052886E+02  0.7816164E-02  0.1300439E+00
        -11   -1    0    0    0    0  0.00000000000E+00  0.00000000000E+00  0.45593999997E+02  0.45594000000E+02  0.51100000000E-03 0. -1.
         11   -1    0    0    0    0 -0.00000000000E+00 -0.00000000000E+00 -0.45593999997E+02  0.45594000000E+02  0.51100000000E-03 0.  1.
    9900012    2    1    2    0    0  0.45376110811E+01 -0.35723261848E+02 -0.18879194002E+02  0.50528864279E+02  0.30000013463E+02 0.  0.
         12    1    1    2    0    0 -0.45376110811E+01  0.35723261848E+02  0.18879194002E+02  0.40659135721E+02  0.00000000000E+00 0. -1.
         11    1    3    3    0    0  0.51347494628E+01 -0.10899285439E+02  0.94249002519E-01  0.12048608146E+02  0.51100000000E-03 0. -1.
        -11    1    3    3    0    0 -0.80237838807E+01 -0.91592392476E+01 -0.17171595445E+02  0.21050806677E+02  0.51100000000E-03 0.  1.
         12    1    3    3    0    0  0.74266454990E+01 -0.15664737162E+02 -0.18018475596E+01  0.17429449456E+02  0.00000000000E+00 0. -1.
</event>
<event>
 7    1  0.6245487E-013  0.5052885E+02  0.7816164E-02  0.1300439E+00
        -11   -1    0    0    0    0  0.00000000000E+00  0.00000000000E+00  0.45593999997E+02  0.45594000000E+02  0.51100000000E-03 0. -1.
         11   -1    0    0    0    0 -0.00000000000E+00 -0.00000000000E+00 -0.45593999997E+02  0.45594000000E+02  0.51100000000E-03 0.  1.
    9900012    2    1    2    0    0  0.28465256567E+02  0.56302201471E+01 -0.28481502017E+02  0.50528853828E+02  0.29999981695E+02 0.  0.
         12    1    1    2    0    0 -0.28465256567E+02 -0.56302201471E+01  0.28481502017E+02  0.40659146172E+02  0.00000000000E+00 0. -1.
         11    1    3    3    0    0  0.10283253280E+02 -0.10545304493E+02 -0.15381338885E+02  0.21296345485E+02  0.51100000000E-03 0.  1.
        -11    1    3    3    0    0  0.57242548274E+01  0.74935423650E+01 -0.40224241084E+00  0.94383298164E+01  0.51100000000E-03 0. -1.
        -12    1    3    3    0    0  0.12457748459E+02  0.86819822747E+01 -0.12697920721E+02  0.19794178526E+02  0.00000000000E+00 0.  1.
</event>
<event>
 7    1  0.6245487E-013  0.5052886E+02  0.7816164E-02  0.1300439E+00
        -11   -1    0    0    0    0  0.00000000000E+00  0.00000000000E+00  0.45593999997E+02  0.45594000000E+02  0.51100000000E-03 0.  1.
         11   -1    0    0    0    0 -0.00000000000E+00 -0.00000000000E+00 -0.45593999997E+02  0.45594000000E+02  0.51100000000E-03 0. -1.
    9900012    2    1    2    0    0 -0.30549483286E+02  0.84166744176E+01  0.25476546726E+02  0.50528858711E+02  0.29999996538E+02 0.  0.
         12    1    1    2    0    0  0.30549483286E+02 -0.84166744176E+01 -0.25476546726E+02  0.40659141289E+02  0.00000000000E+00 0. -1.
         11    1    3    3    0    0  0.48385808922E+00  0.27521475945E+01  0.46603913574E-01  0.27947463603E+01  0.51100000000E-03 0. -1.
        -11    1    3    3    0    0 -0.27351785676E+02  0.73408374939E+01  0.74202841797E+01  0.29275735556E+02  0.51100000000E-03 0.  1.
         12    1    3    3    0    0 -0.36815556991E+01 -0.16763106709E+01  0.18009658633E+02  0.18458376795E+02  0.00000000000E+00 0. -1.
</event>
<event>
 7    1  0.6245487E-013  0.5052886E+02  0.7816164E-02  0.1300439E+00
        -11   -1    0    0    0    0  0.00000000000E+00  0.00000000000E+00  0.45593999997E+02  0.45594000000E+02  0.51100000000E-03 0.  1.
         11   -1    0    0    0    0 -0.00000000000E+00 -0.00000000000E+00 -0.45593999997E+02  0.45594000000E+02  0.51100000000E-03 0. -1.
    9900012    2    1    2    0    0  0.30156913426E+02  0.68786541082E+00  0.27262662155E+02  0.50528864077E+02  0.30000012850E+02 0.  0.
         12    1    1    2    0    0 -0.30156913426E+02 -0.68786541082E+00 -0.27262662155E+02  0.40659135923E+02  0.00000000000E+00 0. -1.
         11    1    3    3    0    0 -0.51752883630E+00  0.67513610172E+01 -0.63012054487E+00  0.68004237988E+01  0.51100000000E-03 0. -1.
        -11    1    3    3    0    0  0.67524894107E+01 -0.21553652621E+00  0.32601045153E+00  0.67637897892E+01  0.51100000000E-03 0.  1.
        -12    1    3    3    0    0  0.23921952852E+02 -0.58479590802E+01  0.27566772248E+02  0.36964650489E+02  0.00000000000E+00 0.  1.
</event>
<event>
 7    1  0.6245487E-013  0.5052885E+02  0.7816164E-02  0.1300439E+00
        -11   -1    0    0    0    0  0.00000000000E+00  0.00000000000E+00  0.45593999997E+02  0.45594000000E+02  0.51100000000E-03 0.  1.
         11   -1    0    0    0    0 -0.00000000000E+00 -0.00000000000E+00 -0.45593999997E+02  0.45594000000E+02  0.51100000000E-03 0. -1.
    9900012    2    1    2    0    0  0.26377083652E+01  0.40229895269E+02 -0.52691660013E+01  0.50528854791E+02  0.29999984624E+02 0.  0.
         12    1    1    2    0    0 -0.26377083652E+01 -0.40229895269E+02  0.52691660013E+01  0.40659145209E+02  0.00000000000E+00 0. -1.
         11    1    3    3    0    0  0.27927339389E+01 -0.23616032441E+00  0.82059617414E+00  0.29203617746E+01  0.51100000000E-03 0. -1.
        -11    1    3    3    0    0  0.83988724516E+01  0.26177401103E+02  0.45224229378E+01  0.27861257984E+02  0.51100000000E-03 0.  1.
         12    1    3    3    0    0 -0.85538980253E+01  0.14288654490E+02 -0.10612185113E+02  0.19747235033E+02  0.00000000000E+00 0. -1.
</event>
<event>
 7    1  0.6245487E-013  0.5052885E+02  0.7816164E-02  0.1300439E+00
        -11   -1    0    0    0    0  0.00000000000E+00  0.00000000000E+00  0.45593999997E+02  0.45594000000E+02  0.51100000000E-03 0.  1.
         11   -1    0    0    0    0 -0.00000000000E+00 -0.00000000000E+00 -0.45593999997E+02  0.45594000000E+02  0.51100000000E-03 0. -1.
    9900012    2    1    2    0    0 -0.32734108794E+02  0.19471336203E+02  0.14230663474E+02  0.50528848570E+02  0.29999965714E+02 0.  0.
         12    1    1    2    0    0  0.32734108794E+02 -0.19471336203E+02 -0.14230663474E+02  0.40659151430E+02  0.00000000000E+00 0. -1.
         11    1    3    3    0    0 -0.42805279427E+01 -0.29131386910E+01 -0.16713294299E+01  0.54408307110E+01  0.51100000000E-03 0. -1.
        -11    1    3    3    0    0 -0.14741842491E+02  0.68483994018E+01  0.18008610601E+02  0.24259689825E+02  0.51100000000E-03 0.  1.
         12    1    3    3    0    0 -0.13711738361E+02  0.15536075493E+02 -0.21066176968E+01  0.20828328034E+02  0.00000000000E+00 0. -1.
</event>
<event>
 7    1  0.6245487E-013  0.5052885E+02  0.7816164E-02  0.1300439E+00
        -11   -1    0    0    0    0  0.00000000000E+00  0.00000000000E+00  0.45593999997E+02  0.45594000000E+02  0.51100000000E-03 0.  1.
         11   -1    0    0    0    0 -0.00000000000E+00 -0.00000000000E+00 -0.45593999997E+02  0.45594000000E+02  0.51100000000E-03 0. -1.
    9900012    2    1    2    0    0 -0.20560808160E+02  0.15417737045E+02  0.31507347695E+02  0.50528850888E+02  0.29999972759E+02 0.  0.
         12    1    1    2    0    0  0.20560808160E+02 -0.15417737045E+02 -0.31507347695E+02  0.40659149112E+02  0.00000000000E+00 0. -1.
         11    1    3    3    0    0  0.53147250278E+01  0.28221389271E+01  0.11501905447E+01  0.61264760503E+01  0.51100000000E-03 0. -1.
        -11    1    3    3    0    0 -0.16273084065E+01  0.27174459990E+01  0.12036141910E+02  0.12445937399E+02  0.51100000000E-03 0.  1.
         12    1    3    3    0    0 -0.24248224781E+02  0.98781521186E+01  0.18321015240E+02  0.31956437438E+02  0.00000000000E+00 0. -1.
</event>
<event>
 7    1  0.6245487E-013  0.5052890E+02  0.7816164E-02  0.1300439E+00
        -11   -1    0    0    0    0  0.00000000000E+00  0.00000000000E+00  0.45593999997E+02  0.45594000000E+02  0.51100000000E-03 0.  1.
         11   -1    0    0    0    0 -0.00000000000E+00 -0.00000000000E+00 -0.45593999997E+02  0.45594000000E+02  0.51100000000E-03 0. -1.
    9900012    2    1    2    0    0  0.12341550708E+02  0.12812470140E+02  0.36560764683E+02  0.50528895494E+02  0.30000108344E+02 0.  0.
         12    1    1    2    0    0 -0.12341550708E+02 -0.12812470140E+02 -0.36560764683E+02  0.40659104506E+02  0.00000000000E+00 0. -1.
         11    1    3    3    0    0  0.68533269705E+01  0.89572576382E+01  0.70334266795E+01  0.13291713436E+02  0.51100000000E-03 0. -1.
        -11    1    3    3    0    0 -0.36449660316E+01  0.10662521822E+02  0.15619445877E+02  0.19259860818E+02  0.51100000000E-03 0.  1.
        -12    1    3    3    0    0  0.91331897692E+01 -0.68073093198E+01  0.13907892127E+02  0.17977321240E+02  0.00000000000E+00 0.  1.
</event>
<event>
 7    1  0.6245487E-013  0.5052891E+02  0.7816164E-02  0.1300439E+00
        -11   -1    0    0    0    0  0.00000000000E+00  0.00000000000E+00  0.45593999997E+02  0.45594000000E+02  0.51100000000E-03 0.  1.
         11   -1    0    0    0    0 -0.00000000000E+00 -0.00000000000E+00 -0.45593999997E+02  0.45594000000E+02  0.51100000000E-03 0. -1.
    9900012    2    1    2    0    0 -0.18583674051E+02  0.16547943580E+01  0.36125760036E+02  0.50528907243E+02  0.30000144056E+02 0.  0.
         12    1    1    2    0    0  0.18583674051E+02 -0.16547943580E+01 -0.36125760036E+02  0.40659092757E+02  0.00000000000E+00 0. -1.
         11    1    3    3    0    0 -0.55980732844E+01  0.62635636259E+01  0.22323349973E+02  0.23851679355E+02  0.51100000000E-03 0. -1.
        -11    1    3    3    0    0 -0.72399409768E+01  0.67874258714E+01  0.45723575307E+01  0.10926680601E+02  0.51100000000E-03 0.  1.
         12    1    3    3    0    0 -0.57456597900E+01 -0.11396195139E+02  0.92300525332E+01  0.15750547287E+02  0.00000000000E+00 0. -1.
</event>
<event>
 7    1  0.6245487E-013  0.5052887E+02  0.7816164E-02  0.1300439E+00
        -11   -1    0    0    0    0  0.00000000000E+00  0.00000000000E+00  0.45593999997E+02  0.45594000000E+02  0.51100000000E-03 0. -1.
         11   -1    0    0    0    0 -0.00000000000E+00 -0.00000000000E+00 -0.45593999997E+02  0.45594000000E+02  0.51100000000E-03 0.  1.
    9900012    2    1    2    0    0  0.16855309622E+02 -0.34338133260E+02 -0.13782449436E+02  0.50528871004E+02  0.30000033905E+02 0.  0.
         12    1    1    2    0    0 -0.16855309622E+02  0.34338133260E+02  0.13782449436E+02  0.40659128996E+02  0.00000000000E+00 0. -1.
         11    1    3    3    0    0 -0.40403967014E+01 -0.75726518838E+01 -0.57267829624E+01  0.10318231700E+02  0.51100000000E-03 0. -1.
        -11    1    3    3    0    0  0.43496130189E+01 -0.35792222678E+01  0.61840816337E+01  0.83649764715E+01  0.51100000000E-03 0.  1.
        -12    1    3    3    0    0  0.16546093305E+02 -0.23186259108E+02 -0.14239748107E+02  0.31845662833E+02  0.00000000000E+00 0.  1.
</event>
<event>
 7    1  0.6245487E-013  0.5052886E+02  0.7816164E-02  0.1300439E+00
        -11   -1    0    0    0    0  0.00000000000E+00  0.00000000000E+00  0.45593999997E+02  0.45594000000E+02  0.51100000000E-03 0.  1.
         11   -1    0    0    0    0 -0.00000000000E+00 -0.00000000000E+00 -0.45593999997E+02  0.45594000000E+02  0.51100000000E-03 0. -1.
    9900012    2    1    2    0    0  0.12447109423E+02  0.17910381620E+02  0.34314039099E+02  0.50528861027E+02  0.30000003577E+02 0.  0.
         12    1    1    2    0    0 -0.12447109423E+02 -0.17910381620E+02 -0.34314039099E+02  0.40659138973E+02  0.00000000000E+00 0. -1.
         11    1    3    3    0    0  0.10957071755E+02  0.12366678915E+02  0.21692451097E+01  0.16664266964E+02  0.51100000000E-03 0. -1.
        -11    1    3    3    0    0 -0.23848287019E+00  0.47921620734E+00 -0.53071911877E+00  0.75378066896E+00  0.51100000000E-03 0.  1.
        -12    1    3    3    0    0  0.17285205387E+01  0.50644864973E+01  0.32675513108E+02  0.33110813394E+02  0.00000000000E+00 0.  1.
</event>
<event>
 7    1  0.6245487E-013  0.5052885E+02  0.7816164E-02  0.1300439E+00
        -11   -1    0    0    0    0  0.00000000000E+00  0.00000000000E+00  0.45593999997E+02  0.45594000000E+02  0.51100000000E-03 0.  1.
         11   -1    0    0    0    0 -0.00000000000E+00 -0.00000000000E+00 -0.45593999997E+02  0.45594000000E+02  0.51100000000E-03 0. -1.
    9900012    2    1    2    0    0 -0.14345717579E+02 -0.17848459770E+02  0.33597603462E+02  0.50528854813E+02  0.29999984688E+02 0.  0.
         12    1    1    2    0    0  0.14345717579E+02  0.17848459770E+02 -0.33597603462E+02  0.40659145187E+02  0.00000000000E+00 0. -1.
         11    1    3    3    0    0 -0.76197266741E+01 -0.53375322122E+01 -0.64752106518E+00  0.93257047185E+01  0.51100000000E-03 0. -1.
        -11    1    3    3    0    0 -0.19706444926E+00 -0.88883387052E+00 -0.22084144579E+01  0.23887140318E+01  0.51100000000E-03 0.  1.
        -12    1    3    3    0    0 -0.65289264551E+01 -0.11622093687E+02  0.36453538985E+02  0.38814436062E+02  0.00000000000E+00 0.  1.
</event>
<event>
 7    1  0.6245487E-013  0.5052886E+02  0.7816164E-02  0.1300439E+00
        -11   -1    0    0    0    0  0.00000000000E+00  0.00000000000E+00  0.45593999997E+02  0.45594000000E+02  0.51100000000E-03 0.  1.
         11   -1    0    0    0    0 -0.00000000000E+00 -0.00000000000E+00 -0.45593999997E+02  0.45594000000E+02  0.51100000000E-03 0. -1.
    9900012    2    1    2    0    0  0.20765684572E+02  0.19229660507E+02  0.29191986744E+02  0.50528860941E+02  0.30000003315E+02 0.  0.
         12    1    1    2    0    0 -0.20765684572E+02 -0.19229660507E+02 -0.29191986744E+02  0.40659139059E+02  0.00000000000E+00 0. -1.
         11    1    3    3    0    0  0.11604334383E+02  0.11921884905E+02  0.17454741700E+01  0.16728376984E+02  0.51100000000E-03 0. -1.
        -11    1    3    3    0    0  0.12132487307E+02  0.73843714441E+01  0.13690435999E+02  0.19726992370E+02  0.51100000000E-03 0.  1.
         12    1    3    3    0    0 -0.29711371174E+01 -0.76595842358E-01  0.13756076575E+02  0.14073491587E+02  0.00000000000E+00 0. -1.
</event>
<event>
 7    1  0.6245487E-013  0.5052885E+02  0.7816164E-02  0.1300439E+00
        -11   -1    0    0    0    0  0.00000000000E+00  0.00000000000E+00  0.45593999997E+02  0.45594000000E+02  0.51100000000E-03 0.  1.
         11   -1    0    0    0    0 -0.00000000000E+00 -0.00000000000E+00 -0.45593999997E+02  0.45594000000E+02  0.51100000000E-03 0. -1.
    9900012    2    1    2    0    0  0.34130723505E+02  0.11553322052E+02  0.18835630761E+02  0.50528849449E+02  0.29999968384E+02 0.  0.
         12    1    1    2    0    0 -0.34130723505E+02 -0.11553322052E+02 -0.18835630761E+02  0.40659150551E+02  0.00000000000E+00 0. -1.
         11    1    3    3    0    0  0.13463467516E+01  0.23134875989E+01 -0.12089553677E+01  0.29370815086E+01  0.51100000000E-03 0. -1.
        -11    1    3    3    0    0  0.36528942908E+02  0.11274353502E+02  0.20370397217E+02  0.43317753865E+02  0.51100000000E-03 0.  1.
         12    1    3    3    0    0 -0.37445661547E+01 -0.20345190488E+01 -0.32581108916E+00  0.42740140749E+01  0.00000000000E+00 0. -1.
</event>
<event>
 7    1  0.6245487E-013  0.5052885E+02  0.7816164E-02  0.1300439E+00
        -11   -1    0    0    0    0  0.00000000000E+00  0.00000000000E+00  0.45593999997E+02  0.45594000000E+02  0.51100000000E-03 0.  1.
         11   -1    0    0    0    0 -0.00000000000E+00 -0.00000000000E+00 -0.45593999997E+02  0.45594000000E+02  0.51100000000E-03 0. -1.
    9900012    2    1    2    0    0 -0.15200963393E+02  0.10342477290E+02  0.36264722722E+02  0.50528852952E+02  0.29999979032E+02 0.  0.
         12    1    1    2    0    0  0.15200963393E+02 -0.10342477290E+02 -0.36264722722E+02  0.40659147048E+02  0.00000000000E+00 0. -1.
         11    1    3    3    0    0 -0.64935579295E+01 -0.32854474102E+01  0.26061149193E+01  0.77299608345E+01  0.51100000000E-03 0. -1.
        -11    1    3    3    0    0 -0.32892336060E+01  0.13064989354E+02  0.62456699321E+01  0.14849962886E+02  0.51100000000E-03 0.  1.
        -12    1    3    3    0    0 -0.54181718574E+01  0.56293534607E+00  0.27412937871E+02  0.27948929232E+02  0.00000000000E+00 0.  1.
</event>
<event>
 7    1  0.6245487E-013  0.5052886E+02  0.7816164E-02  0.1300439E+00
        -11   -1    0    0    0    0  0.00000000000E+00  0.00000000000E+00  0.45593999997E+02  0.45594000000E+02  0.51100000000E-03 0.  1.
         11   -1    0    0    0    0 -0.00000000000E+00 -0.00000000000E+00 -0.45593999997E+02  0.45594000000E+02  0.51100000000E-03 0. -1.
    9900012    2    1    2    0    0  0.21971353979E+02  0.55170131737E+01  0.33763707831E+02  0.50528858389E+02  0.29999995559E+02 0.  0.
         12    1    1    2    0    0 -0.21971353979E+02 -0.55170131737E+01 -0.33763707831E+02  0.40659141611E+02  0.00000000000E+00 0. -1.
         11    1    3    3    0    0 -0.14554253278E+01  0.22007533624E+01 -0.53386770164E+00  0.26919497081E+01  0.51100000000E-03 0. -1.
        -11    1    3    3    0    0  0.15585860315E+02 -0.45993204132E+00  0.35760367371E+02  0.39011978340E+02  0.51100000000E-03 0.  1.
         12    1    3    3    0    0  0.78409189925E+01  0.37761918526E+01 -0.14627918381E+01  0.88249303406E+01  0.00000000000E+00 0. -1.
</event>
<event>
 7    1  0.6245487E-013  0.5052886E+02  0.7816164E-02  0.1300439E+00
        -11   -1    0    0    0    0  0.00000000000E+00  0.00000000000E+00  0.45593999997E+02  0.45594000000E+02  0.51100000000E-03 0.  1.
         11   -1    0    0    0    0 -0.00000000000E+00 -0.00000000000E+00 -0.45593999997E+02  0.45594000000E+02  0.51100000000E-03 0. -1.
    9900012    2    1    2    0    0  0.21717018478E+02  0.55943333534E+01  0.33915189724E+02  0.50528861405E+02  0.30000004727E+02 0.  0.
         12    1    1    2    0    0 -0.21717018478E+02 -0.55943333534E+01 -0.33915189724E+02  0.40659138595E+02  0.00000000000E+00 0. -1.
         11    1    3    3    0    0 -0.34452087091E+01 -0.13184410961E+00  0.67954791991E+01  0.76200645487E+01  0.51100000000E-03 0. -1.
        -11    1    3    3    0    0  0.92209659609E+01 -0.25963563490E+01  0.22331196569E+02  0.24299169121E+02  0.51100000000E-03 0.  1.
         12    1    3    3    0    0  0.15941261226E+02  0.83225338120E+01  0.47885139567E+01  0.18609627735E+02  0.00000000000E+00 0. -1.
</event>
<event>
 7    1  0.6245487E-013  0.5052886E+02  0.7816164E-02  0.1300439E+00
        -11   -1    0    0    0    0  0.00000000000E+00  0.00000000000E+00  0.45593999997E+02  0.45594000000E+02  0.51100000000E-03 0.  1.
         11   -1    0    0    0    0 -0.00000000000E+00 -0.00000000000E+00 -0.45593999997E+02  0.45594000000E+02  0.51100000000E-03 0. -1.
    9900012    2    1    2    0    0 -0.25872418532E+02 -0.23847538515E+02  0.20373477875E+02  0.50528859150E+02  0.29999997872E+02 0.  0.
         12    1    1    2    0    0  0.25872418532E+02  0.23847538515E+02 -0.20373477875E+02  0.40659140850E+02  0.00000000000E+00 0. -1.
         11    1    3    3    0    0 -0.10844234494E+02 -0.30297454882E+01 -0.18577861538E+01  0.11411754867E+02  0.51100000000E-03 0. -1.
        -11    1    3    3    0    0 -0.10750933747E+02 -0.22057834632E+02  0.10726291417E+02  0.26780290755E+02  0.51100000000E-03 0.  1.
        -12    1    3    3    0    0 -0.42772502916E+01  0.12400416053E+01  0.11504972612E+02  0.12336813529E+02  0.00000000000E+00 0.  1.
</event>
<event>
 7    1  0.6245487E-013  0.5052885E+02  0.7816164E-02  0.1300439E+00
        -11   -1    0    0    0    0  0.00000000000E+00  0.00000000000E+00  0.45593999997E+02  0.45594000000E+02  0.51100000000E-03 0.  1.
         11   -1    0    0    0    0 -0.00000000000E+00 -0.00000000000E+00 -0.45593999997E+02  0.45594000000E+02  0.51100000000E-03 0. -1.
    9900012    2    1    2    0    0 -0.36679088077E+02  0.15414939153E+02  0.83779655934E+01  0.50528853934E+02  0.29999982019E+02 0.  0.
         12    1    1    2    0    0  0.36679088077E+02 -0.15414939153E+02 -0.83779655934E+01  0.40659146066E+02  0.00000000000E+00 0. -1.
         11    1    3    3    0    0 -0.86519786871E+01  0.85255264034E-01  0.13678694432E+02  0.16185508496E+02  0.51100000000E-03 0. -1.
        -11    1    3    3    0    0 -0.67262764090E+01 -0.62401809972E+00 -0.36526835616E+01  0.76794720119E+01  0.51100000000E-03 0.  1.
        -12    1    3    3    0    0 -0.21300832981E+02  0.15953701989E+02 -0.16480452770E+01  0.26663873426E+02  0.00000000000E+00 0.  1.
</event>
<event>
 7    1  0.6245487E-013  0.5052886E+02  0.7816164E-02  0.1300439E+00
        -11   -1    0    0    0    0  0.00000000000E+00  0.00000000000E+00  0.45593999997E+02  0.45594000000E+02  0.51100000000E-03 0.  1.
         11   -1    0    0    0    0 -0.00000000000E+00 -0.00000000000E+00 -0.45593999997E+02  0.45594000000E+02  0.51100000000E-03 0. -1.
    9900012    2    1    2    0    0  0.28071154633E+02 -0.28618581562E+02  0.67935682137E+01  0.50528862009E+02  0.30000006563E+02 0.  0.
         12    1    1    2    0    0 -0.28071154633E+02  0.28618581562E+02 -0.67935682137E+01  0.40659137991E+02  0.00000000000E+00 0. -1.
         11    1    3    3    0    0  0.35739949589E+01 -0.51956420946E+00  0.54746705144E+01  0.65586129964E+01  0.51100000000E-03 0. -1.
        -11    1    3    3    0    0  0.23922954398E+02 -0.21562614035E+02  0.94099713485E+01  0.33552967562E+02  0.51100000000E-03 0.  1.
         12    1    3    3    0    0  0.57420527558E+00 -0.65364033180E+01 -0.80910736491E+01  0.10417281451E+02  0.00000000000E+00 0. -1.
</event>
<event>
 7    1  0.6245487E-013  0.5052886E+02  0.7816164E-02  0.1300439E+00
        -11   -1    0    0    0    0  0.00000000000E+00  0.00000000000E+00  0.45593999997E+02  0.45594000000E+02  0.51100000000E-03 0. -1.
         11   -1    0    0    0    0 -0.00000000000E+00 -0.00000000000E+00 -0.45593999997E+02  0.45594000000E+02  0.51100000000E-03 0.  1.
    9900012    2    1    2    0    0  0.24809618943E+02 -0.30767517648E+02  0.95398308990E+01  0.50528859479E+02  0.29999998871E+02 0.  0.
         12    1    1    2    0    0 -0.24809618943E+02  0.30767517648E+02 -0.95398308990E+01  0.40659140521E+02  0.00000000000E+00 0. -1.
         11    1    3    3    0    0  0.67671364428E+00  0.85322844667E+00  0.90456465708E+01  0.91109638504E+01  0.51100000000E-03 0. -1.
        -11    1    3    3    0    0  0.30274493198E+01 -0.12733727565E+02 -0.10646742748E+00  0.13089102439E+02  0.51100000000E-03 0.  1.
        -12    1    3    3    0    0  0.21105455979E+02 -0.18887018530E+02  0.60065175570E+00  0.28328793190E+02  0.00000000000E+00 0.  1.
</event>
<event>
 7    1  0.6245487E-013  0.5052893E+02  0.7816164E-02  0.1300439E+00
        -11   -1    0    0    0    0  0.00000000000E+00  0.00000000000E+00  0.45593999997E+02  0.45594000000E+02  0.51100000000E-03 0.  1.
         11   -1    0    0    0    0 -0.00000000000E+00 -0.00000000000E+00 -0.45593999997E+02  0.45594000000E+02  0.51100000000E-03 0. -1.
    9900012    2    1    2    0    0  0.31355877203E+02  0.15043449599E+02  0.21063320423E+02  0.50528931168E+02  0.30000216778E+02 0.  0.
         12    1    1    2    0    0 -0.31355877203E+02 -0.15043449599E+02 -0.21063320423E+02  0.40659068832E+02  0.00000000000E+00 0. -1.
         11    1    3    3    0    0  0.19966728342E+01  0.39492264902E+01 -0.14813602131E+01  0.46666391140E+01  0.51100000000E-03 0. -1.
        -11    1    3    3    0    0  0.24995616564E+02  0.18504516322E+02  0.15514717790E+02  0.34754919653E+02  0.51100000000E-03 0.  1.
        -12    1    3    3    0    0  0.43635878045E+01 -0.74102932131E+01  0.70299628470E+01  0.11107372401E+02  0.00000000000E+00 0.  1.
</event>
<event>
 7    1  0.6245487E-013  0.5052886E+02  0.7816164E-02  0.1300439E+00
        -11   -1    0    0    0    0  0.00000000000E+00  0.00000000000E+00  0.45593999997E+02  0.45594000000E+02  0.51100000000E-03 0. -1.
         11   -1    0    0    0    0 -0.00000000000E+00 -0.00000000000E+00 -0.45593999997E+02  0.45594000000E+02  0.51100000000E-03 0.  1.
    9900012    2    1    2    0    0  0.31100206446E+02  0.25561495710E+02 -0.57054829461E+01  0.50528862779E+02  0.30000008902E+02 0.  0.
         12    1    1    2    0    0 -0.31100206446E+02 -0.25561495710E+02  0.57054829461E+01  0.40659137221E+02  0.00000000000E+00 0. -1.
         11    1    3    3    0    0  0.10068696644E+02 -0.29604514942E+01 -0.37321034666E+01  0.11138739682E+02  0.51100000000E-03 0.  1.
        -11    1    3    3    0    0 -0.13767854911E+01  0.66587169584E+01 -0.42198260430E+01  0.80025609598E+01  0.51100000000E-03 0. -1.
         12    1    3    3    0    0  0.22408295294E+02  0.21863230246E+02  0.22464465636E+01  0.31387562137E+02  0.00000000000E+00 0. -1.
</event>
<event>
 7    1  0.7941252E-013  0.5052886E+02  0.7816164E-02  0.1300439E+00
        -11   -1    0    0    0    0  0.00000000000E+00  0.00000000000E+00  0.45593999997E+02  0.45594000000E+02  0.51100000000E-03 0.  1.
         11   -1    0    0    0    0 -0.00000000000E+00 -0.00000000000E+00 -0.45593999997E+02  0.45594000000E+02  0.51100000000E-03 0. -1.
    9900012    2    1    2    0    0  0.55443619776E+01  0.30367409531E+02  0.26462164289E+02  0.50528860188E+02  0.30000001028E+02 0.  0.
         12    1    1    2    0    0 -0.55443619776E+01 -0.30367409531E+02 -0.26462164289E+02  0.40659139812E+02  0.00000000000E+00 0. -1.
         11    1    3    3    0    0 -0.40126875966E+01 -0.20370737412E+01  0.40856036791E+01  0.60781155680E+01  0.51100000000E-03 0. -1.
        -11    1    3    3    0    0  0.85872188181E+01  0.54016067827E+01  0.13939939191E+01  0.10240161238E+02  0.51100000000E-03 0.  1.
        -12    1    3    3    0    0  0.96983075605E+00  0.27002876490E+02  0.20982566691E+02  0.34210583382E+02  0.00000000000E+00 0.  1.
</event>
<event>
 7    1  0.6245487E-013  0.5052886E+02  0.7816164E-02  0.1300439E+00
        -11   -1    0    0    0    0  0.00000000000E+00  0.00000000000E+00  0.45593999997E+02  0.45594000000E+02  0.51100000000E-03 0.  1.
         11   -1    0    0    0    0 -0.00000000000E+00 -0.00000000000E+00 -0.45593999997E+02  0.45594000000E+02  0.51100000000E-03 0. -1.
    9900012    2    1    2    0    0 -0.24736431658E+01 -0.34258920919E+02  0.21757135226E+02  0.50528861959E+02  0.30000006409E+02 0.  0.
         12    1    1    2    0    0  0.24736431658E+01  0.34258920919E+02 -0.21757135226E+02  0.40659138041E+02  0.00000000000E+00 0. -1.
         11    1    3    3    0    0 -0.61496931869E+01 -0.12884443272E+01  0.28198071573E+01  0.68869534442E+01  0.51100000000E-03 0. -1.
        -11    1    3    3    0    0 -0.41324983746E+01 -0.28827497923E+02  0.93150201247E+01  0.30575673002E+02  0.51100000000E-03 0.  1.
         12    1    3    3    0    0  0.78085483957E+01 -0.41429786681E+01  0.96223079442E+01  0.13066235512E+02  0.00000000000E+00 0. -1.
</event>
<event>
 7    1  0.6245487E-013  0.5052885E+02  0.7816164E-02  0.1300439E+00
        -11   -1    0    0    0    0  0.00000000000E+00  0.00000000000E+00  0.45593999997E+02  0.45594000000E+02  0.51100000000E-03 0.  1.
         11   -1    0    0    0    0 -0.00000000000E+00 -0.00000000000E+00 -0.45593999997E+02  0.45594000000E+02  0.51100000000E-03 0. -1.
    9900012    2    1    2    0    0  0.38495981170E+02 -0.11023566388E+02  0.70502963703E+01  0.50528852677E+02  0.29999978196E+02 0.  0.
         12    1    1    2    0    0 -0.38495981170E+02  0.11023566388E+02 -0.70502963703E+01  0.40659147323E+02  0.00000000000E+00 0. -1.
         11    1    3    3    0    0  0.20587525037E+02 -0.41343671747E+00  0.44602182829E+01  0.21069187561E+02  0.51100000000E-03 0. -1.
        -11    1    3    3    0    0  0.14696479489E+02 -0.11174909144E+02  0.10262372908E+02  0.21123006455E+02  0.51100000000E-03 0.  1.
         12    1    3    3    0    0  0.32119766434E+01  0.56477947312E+00 -0.76722948204E+01  0.83366586605E+01  0.00000000000E+00 0. -1.
</event>
<event>
 7    1  0.6245487E-013  0.5052885E+02  0.7816164E-02  0.1300439E+00
        -11   -1    0    0    0    0  0.00000000000E+00  0.00000000000E+00  0.45593999997E+02  0.45594000000E+02  0.51100000000E-03 0.  1.
         11   -1    0    0    0    0 -0.00000000000E+00 -0.00000000000E+00 -0.45593999997E+02  0.45594000000E+02  0.51100000000E-03 0. -1.
    9900012    2    1    2    0    0  0.13136962068E+02 -0.35262890103E+02  0.15398538026E+02  0.50528853869E+02  0.29999981820E+02 0.  0.
         12    1    1    2    0    0 -0.13136962068E+02  0.35262890103E+02 -0.15398538026E+02  0.40659146131E+02  0.00000000000E+00 0. -1.
         11    1    3    3    0    0 -0.34489209497E+01 -0.47818024369E+01 -0.16814597704E+01  0.61309051112E+01  0.51100000000E-03 0. -1.
        -11    1    3    3    0    0  0.99182929824E+01 -0.31510336764E+01  0.11873365054E+02  0.15788551133E+02  0.51100000000E-03 0.  1.
         12    1    3    3    0    0  0.66675900349E+01 -0.27330053989E+02  0.52066327423E+01  0.28609397625E+02  0.00000000000E+00 0. -1.
</event>
<event>
 7    1  0.6245487E-013  0.5052894E+02  0.7816164E-02  0.1300439E+00
        -11   -1    0    0    0    0  0.00000000000E+00  0.00000000000E+00  0.45593999997E+02  0.45594000000E+02  0.51100000000E-03 0.  1.
         11   -1    0    0    0    0 -0.00000000000E+00 -0.00000000000E+00 -0.45593999997E+02  0.45594000000E+02  0.51100000000E-03 0. -1.
    9900012    2    1    2    0    0  0.30656222124E+01  0.11266617889E+02  0.38946431202E+02  0.50528939244E+02  0.30000241325E+02 0.  0.
         12    1    1    2    0    0 -0.30656222124E+01 -0.11266617889E+02 -0.38946431202E+02  0.40659060756E+02  0.00000000000E+00 0. -1.
         11    1    3    3    0    0 -0.35664677785E+01  0.11764977882E+02  0.21025082415E+02  0.24355461150E+02  0.51100000000E-03 0. -1.
        -11    1    3    3    0    0 -0.38091403574E+01 -0.60993970840E+01  0.60002723865E+01  0.93656534222E+01  0.51100000000E-03 0.  1.
        -12    1    3    3    0    0  0.10441230348E+02  0.56010370907E+01  0.11921076400E+02  0.16807824672E+02  0.00000000000E+00 0.  1.
</event>
<event>
 7    1  0.6245487E-013  0.5052886E+02  0.7816164E-02  0.1300439E+00
        -11   -1    0    0    0    0  0.00000000000E+00  0.00000000000E+00  0.45593999997E+02  0.45594000000E+02  0.51100000000E-03 0.  1.
         11   -1    0    0    0    0 -0.00000000000E+00 -0.00000000000E+00 -0.45593999997E+02  0.45594000000E+02  0.51100000000E-03 0. -1.
    9900012    2    1    2    0    0 -0.26839682201E+02 -0.29710764278E+02  0.70758425186E+01  0.50528860782E+02  0.30000002832E+02 0.  0.
         12    1    1    2    0    0  0.26839682201E+02  0.29710764278E+02 -0.70758425186E+01  0.40659139218E+02  0.00000000000E+00 0. -1.
         11    1    3    3    0    0 -0.10864449082E+02 -0.17505032282E+02  0.67533584160E+01  0.21681103736E+02  0.51100000000E-03 0. -1.
        -11    1    3    3    0    0  0.58712272720E+00 -0.20263639016E+01  0.77535565585E+01  0.80354529010E+01  0.51100000000E-03 0.  1.
         12    1    3    3    0    0 -0.16562355846E+02 -0.10179368095E+02 -0.74310724559E+01  0.20812304145E+02  0.00000000000E+00 0. -1.
</event>
<event>
 7    1  0.8183875E-013  0.5052886E+02  0.7816164E-02  0.1300439E+00
        -11   -1    0    0    0    0  0.00000000000E+00  0.00000000000E+00  0.45593999997E+02  0.45594000000E+02  0.51100000000E-03 0.  1.
         11   -1    0    0    0    0 -0.00000000000E+00 -0.00000000000E+00 -0.45593999997E+02  0.45594000000E+02  0.51100000000E-03 0. -1.
    9900012    2    1    2    0    0  0.36047610299E+01 -0.17366138880E+02  0.36586729291E+02  0.50528857831E+02  0.29999993864E+02 0.  0.
         12    1    1    2    0    0 -0.36047610299E+01  0.17366138880E+02 -0.36586729291E+02  0.40659142169E+02  0.00000000000E+00 0. -1.
         11    1    3    3    0    0  0.16050703519E+01  0.63475042100E+00 -0.20698379541E+01  0.26950674108E+01  0.51100000000E-03 0. -1.
        -11    1    3    3    0    0  0.92150995516E+01 -0.13156086762E+02  0.12748083096E+02  0.20506445365E+02  0.51100000000E-03 0.  1.
        -12    1    3    3    0    0 -0.72154088736E+01 -0.48448025395E+01  0.25908484149E+02  0.27327345055E+02  0.00000000000E+00 0.  1.
</event>
<event>
 7    1  0.6245487E-013  0.5052886E+02  0.7816164E-02  0.1300439E+00
        -11   -1    0    0    0    0  0.00000000000E+00  0.00000000000E+00  0.45593999997E+02  0.45594000000E+02  0.51100000000E-03 0.  1.
         11   -1    0    0    0    0 -0.00000000000E+00 -0.00000000000E+00 -0.45593999997E+02  0.45594000000E+02  0.51100000000E-03 0. -1.
    9900012    2    1    2    0    0 -0.25751178902E+02  0.31018796119E+02 -0.52798350092E+01  0.50528860988E+02  0.30000003458E+02 0.  0.
         12    1    1    2    0    0  0.25751178902E+02 -0.31018796119E+02  0.52798350092E+01  0.40659139012E+02  0.00000000000E+00 0. -1.
         11    1    3    3    0    0 -0.53644147540E+01  0.40013724690E+01  0.43652987263E+01  0.79902290655E+01  0.51100000000E-03 0. -1.
        -11    1    3    3    0    0 -0.18086648053E+02  0.18994453699E+02  0.40119077134E+01  0.26533215276E+02  0.51100000000E-03 0.  1.
         12    1    3    3    0    0 -0.23001160954E+01  0.80229699509E+01 -0.13657041449E+02  0.16005416646E+02  0.00000000000E+00 0. -1.
</event>
<event>
 7    1  0.6245487E-013  0.5052885E+02  0.7816164E-02  0.1300439E+00
        -11   -1    0    0    0    0  0.00000000000E+00  0.00000000000E+00  0.45593999997E+02  0.45594000000E+02  0.51100000000E-03 0. -1.
         11   -1    0    0    0    0 -0.00000000000E+00 -0.00000000000E+00 -0.45593999997E+02  0.45594000000E+02  0.51100000000E-03 0.  1.
    9900012    2    1    2    0    0 -0.34009559104E+02 -0.35387450265E+01 -0.21999854375E+02  0.50528850731E+02  0.29999972281E+02 0.  0.
         12    1    1    2    0    0  0.34009559104E+02  0.35387450265E+01  0.21999854375E+02  0.40659149269E+02  0.00000000000E+00 0. -1.
         11    1    3    3    0    0  0.24644421024E+00 -0.53880313420E+01 -0.13383928744E+00  0.53953248009E+01  0.51100000000E-03 0. -1.
        -11    1    3    3    0    0 -0.34505948413E+01 -0.49527808306E+01 -0.94864339591E+01  0.11244068313E+02  0.51100000000E-03 0.  1.
        -12    1    3    3    0    0 -0.30805408473E+02  0.68020671461E+01 -0.12379581128E+02  0.33889457616E+02  0.00000000000E+00 0.  1.
</event>
<event>
 7    1  0.6245487E-013  0.5052886E+02  0.7816164E-02  0.1300439E+00
        -11   -1    0    0    0    0  0.00000000000E+00  0.00000000000E+00  0.45593999997E+02  0.45594000000E+02  0.51100000000E-03 0.  1.
         11   -1    0    0    0    0 -0.00000000000E+00 -0.00000000000E+00 -0.45593999997E+02  0.45594000000E+02  0.51100000000E-03 0. -1.
    9900012    2    1    2    0    0 -0.35970701537E+02 -0.31362912343E+01  0.18693251730E+02  0.50528863856E+02  0.30000012176E+02 0.  0.
         12    1    1    2    0    0  0.35970701537E+02  0.31362912343E+01 -0.18693251730E+02  0.40659136144E+02  0.00000000000E+00 0. -1.
         11    1    3    3    0    0 -0.13426116106E+02  0.33440855859E+00 -0.26529330024E+01  0.13689794613E+02  0.51100000000E-03 0. -1.
        -11    1    3    3    0    0 -0.73956989837E+01  0.80892650227E+01  0.82063879363E+01  0.13692237775E+02  0.51100000000E-03 0.  1.
         12    1    3    3    0    0 -0.15148886447E+02 -0.11559964816E+02  0.13139796797E+02  0.23146831467E+02  0.00000000000E+00 0. -1.
</event>
<event>
 7    1  0.6245487E-013  0.5052886E+02  0.7816164E-02  0.1300439E+00
        -11   -1    0    0    0    0  0.00000000000E+00  0.00000000000E+00  0.45593999997E+02  0.45594000000E+02  0.51100000000E-03 0.  1.
         11   -1    0    0    0    0 -0.00000000000E+00 -0.00000000000E+00 -0.45593999997E+02  0.45594000000E+02  0.51100000000E-03 0. -1.
    9900012    2    1    2    0    0  0.18190384755E+02 -0.13219073866E+02  0.33875232952E+02  0.50528863033E+02  0.30000009675E+02 0.  0.
         12    1    1    2    0    0 -0.18190384755E+02  0.13219073866E+02 -0.33875232952E+02  0.40659136967E+02  0.00000000000E+00 0. -1.
         11    1    3    3    0    0  0.57668739879E+01 -0.27987139864E+00  0.61920710626E+01  0.84662215833E+01  0.51100000000E-03 0.  1.
        -11    1    3    3    0    0  0.13926522814E+01 -0.12967166441E+02  0.28147407119E+02  0.31021982749E+02  0.51100000000E-03 0. -1.
         12    1    3    3    0    0  0.11030858485E+02  0.27963973833E-01 -0.46424523021E+00  0.11040658700E+02  0.00000000000E+00 0. -1.
</event>
<event>
 7    1  0.6245487E-013  0.5052884E+02  0.7816164E-02  0.1300439E+00
        -11   -1    0    0    0    0  0.00000000000E+00  0.00000000000E+00  0.45593999997E+02  0.45594000000E+02  0.51100000000E-03 0.  1.
         11   -1    0    0    0    0 -0.00000000000E+00 -0.00000000000E+00 -0.45593999997E+02  0.45594000000E+02  0.51100000000E-03 0. -1.
    9900012    2    1    2    0    0  0.81459584637E+01 -0.39234760600E+02  0.68879986452E+01  0.50528836162E+02  0.29999927998E+02 0.  0.
         12    1    1    2    0    0 -0.81459584637E+01  0.39234760600E+02 -0.68879986452E+01  0.40659163838E+02  0.00000000000E+00 0. -1.
         11    1    3    3    0    0  0.67686379242E+01 -0.31199803447E+01  0.42539409931E+01  0.85816519933E+01  0.51100000000E-03 0. -1.
        -11    1    3    3    0    0  0.64746503850E+01 -0.35785544361E+02  0.39157329971E+00  0.36368662510E+02  0.51100000000E-03 0.  1.
         12    1    3    3    0    0 -0.50973298456E+01 -0.32923589432E+00  0.22424843524E+01  0.55785216590E+01  0.00000000000E+00 0. -1.
</event>
<event>
 7    1  0.9369738E-013  0.5052882E+02  0.7816164E-02  0.1300439E+00
        -11   -1    0    0    0    0  0.00000000000E+00  0.00000000000E+00  0.45593999997E+02  0.45594000000E+02  0.51100000000E-03 0.  1.
         11   -1    0    0    0    0 -0.00000000000E+00 -0.00000000000E+00 -0.45593999997E+02  0.45594000000E+02  0.51100000000E-03 0. -1.
    9900012    2    1    2    0    0 -0.38594561865E+02  0.12770036058E+02 -0.74490811539E+00  0.50528820046E+02  0.29999879010E+02 0.  0.
         12    1    1    2    0    0  0.38594561865E+02 -0.12770036058E+02  0.74490811539E+00  0.40659179954E+02  0.00000000000E+00 0. -1.
         11    1    3    3    0    0  0.11505065746E+01 -0.21155256346E+01  0.40636552616E+01  0.47236012147E+01  0.51100000000E-03 0. -1.
        -11    1    3    3    0    0 -0.10963039431E+02 -0.33657771676E+01 -0.14397466840E+01  0.11558095011E+02  0.51100000000E-03 0.  1.
        -12    1    3    3    0    0 -0.28782029009E+02  0.18251338860E+02 -0.33688166930E+01  0.34247123820E+02  0.00000000000E+00 0.  1.
</event>
<event>
 7    1  0.6245487E-013  0.5052886E+02  0.7816164E-02  0.1300439E+00
        -11   -1    0    0    0    0  0.00000000000E+00  0.00000000000E+00  0.45593999997E+02  0.45594000000E+02  0.51100000000E-03 0. -1.
         11   -1    0    0    0    0 -0.00000000000E+00 -0.00000000000E+00 -0.45593999997E+02  0.45594000000E+02  0.51100000000E-03 0.  1.
    9900012    2    1    2    0    0  0.21802583736E+02 -0.17163879532E+02 -0.29718918080E+02  0.50528861913E+02  0.30000006271E+02 0.  0.
         12    1    1    2    0    0 -0.21802583736E+02  0.17163879532E+02  0.29718918080E+02  0.40659138087E+02  0.00000000000E+00 0. -1.
         11    1    3    3    0    0  0.13050681515E+02 -0.94950666285E+01 -0.69995250898E+01  0.17591757446E+02  0.51100000000E-03 0. -1.
        -11    1    3    3    0    0  0.15190295319E+02 -0.65882608296E+01 -0.19729383032E+02  0.25756529420E+02  0.51100000000E-03 0.  1.
        -12    1    3    3    0    0 -0.64383930981E+01 -0.10805520740E+01 -0.29900099574E+01  0.71805750477E+01  0.00000000000E+00 0.  1.
</event>
<event>
 7    1  0.6245487E-013  0.5052885E+02  0.7816164E-02  0.1300439E+00
        -11   -1    0    0    0    0  0.00000000000E+00  0.00000000000E+00  0.45593999997E+02  0.45594000000E+02  0.51100000000E-03 0.  1.
         11   -1    0    0    0    0 -0.00000000000E+00 -0.00000000000E+00 -0.45593999997E+02  0.45594000000E+02  0.51100000000E-03 0. -1.
    9900012    2    1    2    0    0  0.30041205839E+02  0.17542711156E+02  0.21046273578E+02  0.50528851036E+02  0.29999973208E+02 0.  0.
         12    1    1    2    0    0 -0.30041205839E+02 -0.17542711156E+02 -0.21046273578E+02  0.40659148964E+02  0.00000000000E+00 0. -1.
         11    1    3    3    0    0  0.18866861803E+02  0.12627515648E+02  0.21364476329E+02  0.31174564549E+02  0.51100000000E-03 0. -1.
        -11    1    3    3    0    0  0.14374908240E+02  0.61666110209E+01  0.99979322148E+00  0.15673693411E+02  0.51100000000E-03 0.  1.
         12    1    3    3    0    0 -0.32005642036E+01 -0.12514155129E+01 -0.13179959727E+01  0.36805930761E+01  0.00000000000E+00 0. -1.
</event>
<event>
 7    1  0.6245487E-013  0.5052886E+02  0.7816164E-02  0.1300439E+00
        -11   -1    0    0    0    0  0.00000000000E+00  0.00000000000E+00  0.45593999997E+02  0.45594000000E+02  0.51100000000E-03 0.  1.
         11   -1    0    0    0    0 -0.00000000000E+00 -0.00000000000E+00 -0.45593999997E+02  0.45594000000E+02  0.51100000000E-03 0. -1.
    9900012    2    1    2    0    0 -0.51227613039E+01  0.28233824613E+02  0.28805801335E+02  0.50528859253E+02  0.29999998187E+02 0.  0.
         12    1    1    2    0    0  0.51227613039E+01 -0.28233824613E+02 -0.28805801335E+02  0.40659140747E+02  0.00000000000E+00 0. -1.
         11    1    3    3    0    0 -0.92042296010E+01  0.40583801353E+01  0.27764353252E+01  0.10435367039E+02  0.51100000000E-03 0. -1.
        -11    1    3    3    0    0 -0.98385236886E+00  0.17027632495E+02  0.57440672567E+01  0.17997292651E+02  0.51100000000E-03 0.  1.
        -12    1    3    3    0    0  0.50653206660E+01  0.71478119832E+01  0.20285298753E+02  0.22096199563E+02  0.00000000000E+00 0.  1.
</event>
<event>
 7    1  0.6245487E-013  0.5052886E+02  0.7816164E-02  0.1300439E+00
        -11   -1    0    0    0    0  0.00000000000E+00  0.00000000000E+00  0.45593999997E+02  0.45594000000E+02  0.51100000000E-03 0.  1.
         11   -1    0    0    0    0 -0.00000000000E+00 -0.00000000000E+00 -0.45593999997E+02  0.45594000000E+02  0.51100000000E-03 0. -1.
    9900012    2    1    2    0    0  0.34087422583E+02 -0.19469147925E+02  0.10590839073E+02  0.50528856237E+02  0.29999989017E+02 0.  0.
         12    1    1    2    0    0 -0.34087422583E+02  0.19469147925E+02 -0.10590839073E+02  0.40659143763E+02  0.00000000000E+00 0. -1.
         11    1    3    3    0    0  0.19751526742E+02 -0.11333804076E+02 -0.77821141059E+00  0.22785599328E+02  0.51100000000E-03 0. -1.
        -11    1    3    3    0    0  0.18696623709E+02 -0.45976325030E+01  0.10859285916E+02  0.22104887551E+02  0.51100000000E-03 0.  1.
         12    1    3    3    0    0 -0.43607278679E+01 -0.35377113453E+01  0.50976456771E+00  0.56383693578E+01  0.00000000000E+00 0. -1.
</event>
<event>
 7    1  0.6245487E-013  0.5052887E+02  0.7816164E-02  0.1300439E+00
        -11   -1    0    0    0    0  0.00000000000E+00  0.00000000000E+00  0.45593999997E+02  0.45594000000E+02  0.51100000000E-03 0.  1.
         11   -1    0    0    0    0 -0.00000000000E+00 -0.00000000000E+00 -0.45593999997E+02  0.45594000000E+02  0.51100000000E-03 0. -1.
    9900012    2    1    2    0    0 -0.14099746572E+02  0.30514330007E+02  0.22874396210E+02  0.50528865834E+02  0.30000018189E+02 0.  0.
         12    1    1    2    0    0  0.14099746572E+02 -0.30514330007E+02 -0.22874396210E+02  0.40659134166E+02  0.00000000000E+00 0. -1.
         11    1    3    3    0    0  0.47668767649E+01  0.98458296713E+01  0.10774651203E+02  0.15354366963E+02  0.51100000000E-03 0. -1.
        -11    1    3    3    0    0 -0.73120365172E+01 -0.45311520015E+00 -0.15650004240E+01  0.74913562191E+01  0.51100000000E-03 0.  1.
        -12    1    3    3    0    0 -0.11554586820E+02  0.21121615536E+02  0.13664745430E+02  0.27683142652E+02  0.00000000000E+00 0.  1.
</event>
<event>
 7    1  0.6245487E-013  0.5052886E+02  0.7816164E-02  0.1300439E+00
        -11   -1    0    0    0    0  0.00000000000E+00  0.00000000000E+00  0.45593999997E+02  0.45594000000E+02  0.51100000000E-03 0. -1.
         11   -1    0    0    0    0 -0.00000000000E+00 -0.00000000000E+00 -0.45593999997E+02  0.45594000000E+02  0.51100000000E-03 0.  1.
    9900012    2    1    2    0    0  0.40015020188E+02 -0.22546554554E+01 -0.68469135305E+01  0.50528861584E+02  0.30000005270E+02 0.  0.
         12    1    1    2    0    0 -0.40015020188E+02  0.22546554554E+01  0.68469135305E+01  0.40659138416E+02  0.00000000000E+00 0. -1.
         11    1    3    3    0    0  0.22757444113E+01 -0.40595724091E+01 -0.45985592288E+01  0.65426208825E+01  0.51100000000E-03 0. -1.
        -11    1    3    3    0    0  0.27082909932E+02 -0.90939239895E+01 -0.29929277285E+01  0.28725269025E+02  0.51100000000E-03 0.  1.
        -12    1    3    3    0    0  0.10656365844E+02  0.10898840943E+02  0.74457342687E+00  0.15260971676E+02  0.00000000000E+00 0.  1.
</event>
<event>
 7    1  0.7221224E-013  0.5052886E+02  0.7816164E-02  0.1300439E+00
        -11   -1    0    0    0    0  0.00000000000E+00  0.00000000000E+00  0.45593999997E+02  0.45594000000E+02  0.51100000000E-03 0. -1.
         11   -1    0    0    0    0 -0.00000000000E+00 -0.00000000000E+00 -0.45593999997E+02  0.45594000000E+02  0.51100000000E-03 0.  1.
    9900012    2    1    2    0    0  0.29953980138E+02  0.26325010236E+02  0.79321138069E+01  0.50528861796E+02  0.30000005916E+02 0.  0.
         12    1    1    2    0    0 -0.29953980138E+02 -0.26325010236E+02 -0.79321138069E+01  0.40659138204E+02  0.00000000000E+00 0. -1.
         11    1    3    3    0    0  0.33254004640E+00 -0.29985543614E+01  0.10507728714E+01  0.31946885653E+01  0.51100000000E-03 0. -1.
        -11    1    3    3    0    0  0.20956807410E+02  0.13999138852E+02  0.13422393399E+02  0.28553884329E+02  0.51100000000E-03 0.  1.
        -12    1    3    3    0    0  0.86646326813E+01  0.15324425745E+02 -0.65410524637E+01  0.18780288902E+02  0.00000000000E+00 0.  1.
</event>
<event>
 7    1  0.6245487E-013  0.5052885E+02  0.7816164E-02  0.1300439E+00
        -11   -1    0    0    0    0  0.00000000000E+00  0.00000000000E+00  0.45593999997E+02  0.45594000000E+02  0.51100000000E-03 0. -1.
         11   -1    0    0    0    0 -0.00000000000E+00 -0.00000000000E+00 -0.45593999997E+02  0.45594000000E+02  0.51100000000E-03 0.  1.
    9900012    2    1    2    0    0  0.21156224771E+02 -0.69483266305E+01 -0.34019127625E+02  0.50528854240E+02  0.29999982948E+02 0.  0.
         12    1    1    2    0    0 -0.21156224771E+02  0.69483266305E+01  0.34019127625E+02  0.40659145760E+02  0.00000000000E+00 0. -1.
         11    1    3    3    0    0  0.13518195405E+02  0.59384703824E+01 -0.29936955160E+02  0.33380058748E+02  0.51100000000E-03 0. -1.
        -11    1    3    3    0    0  0.47280275247E+01 -0.26432465813E+01 -0.35705000547E+01  0.64876396067E+01  0.51100000000E-03 0.  1.
         12    1    3    3    0    0  0.29100018409E+01 -0.10243550432E+02 -0.51167241087E+00  0.10661155886E+02  0.00000000000E+00 0. -1.
</event>
<event>
 7    1  0.6245487E-013  0.5052885E+02  0.7816164E-02  0.1300439E+00
        -11   -1    0    0    0    0  0.00000000000E+00  0.00000000000E+00  0.45593999997E+02  0.45594000000E+02  0.51100000000E-03 0. -1.
         11   -1    0    0    0    0 -0.00000000000E+00 -0.00000000000E+00 -0.45593999997E+02  0.45594000000E+02  0.51100000000E-03 0.  1.
    9900012    2    1    2    0    0  0.39989233712E+02 -0.68823040041E+01  0.25809467851E+01  0.50528853334E+02  0.29999980194E+02 0.  0.
         12    1    1    2    0    0 -0.39989233712E+02  0.68823040041E+01 -0.25809467851E+01  0.40659146666E+02  0.00000000000E+00 0. -1.
         11    1    3    3    0    0  0.24054080833E+02  0.26594578044E+01 -0.42999667988E+01  0.24579691521E+02  0.51100000000E-03 0. -1.
        -11    1    3    3    0    0  0.13406145861E+02 -0.11645501557E+02 -0.60936714460E+00  0.17768336499E+02  0.51100000000E-03 0.  1.
         12    1    3    3    0    0  0.25290070187E+01  0.21037397486E+01  0.74902807284E+01  0.81808253142E+01  0.00000000000E+00 0. -1.
</event>
<event>
 7    1  0.8702192E-013  0.5052885E+02  0.7816164E-02  0.1300439E+00
        -11   -1    0    0    0    0  0.00000000000E+00  0.00000000000E+00  0.45593999997E+02  0.45594000000E+02  0.51100000000E-03 0.  1.
         11   -1    0    0    0    0 -0.00000000000E+00 -0.00000000000E+00 -0.45593999997E+02  0.45594000000E+02  0.51100000000E-03 0. -1.
    9900012    2    1    2    0    0 -0.21607990612E+02  0.29800904630E+02  0.17267517580E+02  0.50528851725E+02  0.29999975303E+02 0.  0.
         12    1    1    2    0    0  0.21607990612E+02 -0.29800904630E+02 -0.17267517580E+02  0.40659148275E+02  0.00000000000E+00 0. -1.
         11    1    3    3    0    0 -0.69655560867E+00  0.21212946052E+01 -0.49042808795E+01  0.53886038753E+01  0.51100000000E-03 0. -1.
        -11    1    3    3    0    0  0.17891741262E+00  0.33168332245E+01  0.10262232866E+02  0.10786418207E+02  0.51100000000E-03 0.  1.
        -12    1    3    3    0    0 -0.21090352416E+02  0.24362776801E+02  0.11909565594E+02  0.34353829643E+02  0.00000000000E+00 0.  1.
</event>
<event>
 7    1  0.6245489E-013  0.5052884E+02  0.7816164E-02  0.1300439E+00
        -11   -1    0    0    0    0  0.00000000000E+00  0.00000000000E+00  0.45593999997E+02  0.45594000000E+02  0.51100000000E-03 0. -1.
         11   -1    0    0    0    0 -0.00000000000E+00 -0.00000000000E+00 -0.45593999997E+02  0.45594000000E+02  0.51100000000E-03 0.  1.
    9900012    2    1    2    0    0  0.32494626742E+02 -0.20979086563E+02 -0.12535734852E+02  0.50528837584E+02  0.29999932319E+02 0.  0.
         12    1    1    2    0    0 -0.32494626742E+02  0.20979086563E+02  0.12535734852E+02  0.40659162416E+02  0.00000000000E+00 0. -1.
         11    1    3    3    0    0  0.82870437652E+01 -0.77142482087E+01  0.35831380062E+00  0.11327537633E+02  0.51100000000E-03 0. -1.
        -11    1    3    3    0    0  0.22324472368E+02 -0.16843133417E+02 -0.17564221131E+02  0.33023856135E+02  0.51100000000E-03 0.  1.
         12    1    3    3    0    0  0.18831106085E+01  0.35782950622E+01  0.46701724784E+01  0.61774438155E+01  0.00000000000E+00 0. -1.
</event>
<event>
 7    1  0.6245487E-013  0.5052886E+02  0.7816164E-02  0.1300439E+00
        -11   -1    0    0    0    0  0.00000000000E+00  0.00000000000E+00  0.45593999997E+02  0.45594000000E+02  0.51100000000E-03 0. -1.
         11   -1    0    0    0    0 -0.00000000000E+00 -0.00000000000E+00 -0.45593999997E+02  0.45594000000E+02  0.51100000000E-03 0.  1.
    9900012    2    1    2    0    0 -0.36746971474E+02 -0.53138749983E+01 -0.16570720864E+02  0.50528856257E+02  0.29999989078E+02 0.  0.
         12    1    1    2    0    0  0.36746971474E+02  0.53138749983E+01  0.16570720864E+02  0.40659143743E+02  0.00000000000E+00 0. -1.
         11    1    3    3    0    0 -0.85272948698E+01  0.21598771216E+01  0.31803591878E+01  0.93538501057E+01  0.51100000000E-03 0. -1.
        -11    1    3    3    0    0 -0.23686985990E+02  0.22090140722E+01 -0.75644995066E+01  0.24963467337E+02  0.51100000000E-03 0.  1.
         12    1    3    3    0    0 -0.45326906142E+01 -0.96827661921E+01 -0.12186580545E+02  0.16211538814E+02  0.00000000000E+00 0. -1.
</event>
<event>
 7    1  0.6245487E-013  0.5052884E+02  0.7816164E-02  0.1300439E+00
        -11   -1    0    0    0    0  0.00000000000E+00  0.00000000000E+00  0.45593999997E+02  0.45594000000E+02  0.51100000000E-03 0. -1.
         11   -1    0    0    0    0 -0.00000000000E+00 -0.00000000000E+00 -0.45593999997E+02  0.45594000000E+02  0.51100000000E-03 0.  1.
    9900012    2    1    2    0    0 -0.37184008306E+02  0.16447395473E+02  0.19750020568E-01  0.50528835207E+02  0.29999925095E+02 0.  0.
         12    1    1    2    0    0  0.37184008306E+02 -0.16447395473E+02 -0.19750020568E-01  0.40659164793E+02  0.00000000000E+00 0. -1.
         11    1    3    3    0    0 -0.18786801944E+01  0.10071338082E+01  0.62025357909E+00  0.22200163387E+01  0.51100000000E-03 0. -1.
        -11    1    3    3    0    0 -0.13390482569E+01 -0.57263210788E+01 -0.54206455517E+01  0.79979498492E+01  0.51100000000E-03 0.  1.
        -12    1    3    3    0    0 -0.33966279855E+02  0.21166582744E+02  0.48201419932E+01  0.40310869019E+02  0.00000000000E+00 0.  1.
</event>
<event>
 7    1  0.6245487E-013  0.5052890E+02  0.7816164E-02  0.1300439E+00
        -11   -1    0    0    0    0  0.00000000000E+00  0.00000000000E+00  0.45593999997E+02  0.45594000000E+02  0.51100000000E-03 0. -1.
         11   -1    0    0    0    0 -0.00000000000E+00 -0.00000000000E+00 -0.45593999997E+02  0.45594000000E+02  0.51100000000E-03 0.  1.
    9900012    2    1    2    0    0 -0.37097366692E+02 -0.88059756076E+01 -0.14121008196E+02  0.50528896538E+02  0.30000111516E+02 0.  0.
         12    1    1    2    0    0  0.37097366692E+02  0.88059756076E+01  0.14121008196E+02  0.40659103462E+02  0.00000000000E+00 0. -1.
         11    1    3    3    0    0 -0.13727464975E+02  0.62605404659E+01 -0.83113117565E+01  0.17225433664E+02  0.51100000000E-03 0.  1.
        -11    1    3    3    0    0 -0.59448323209E+01  0.48005348430E-01  0.50571719767E+01  0.78050191864E+01  0.51100000000E-03 0. -1.
         12    1    3    3    0    0 -0.17425069396E+02 -0.15114521422E+02 -0.10866868416E+02  0.25498443687E+02  0.00000000000E+00 0. -1.
</event>
<event>
 7    1  0.6245487E-013  0.5052885E+02  0.7816164E-02  0.1300439E+00
        -11   -1    0    0    0    0  0.00000000000E+00  0.00000000000E+00  0.45593999997E+02  0.45594000000E+02  0.51100000000E-03 0.  1.
         11   -1    0    0    0    0 -0.00000000000E+00 -0.00000000000E+00 -0.45593999997E+02  0.45594000000E+02  0.51100000000E-03 0. -1.
    9900012    2    1    2    0    0 -0.12552211135E+02  0.17395278095E+02  0.34540018801E+02  0.50528848470E+02  0.29999965408E+02 0.  0.
         12    1    1    2    0    0  0.12552211135E+02 -0.17395278095E+02 -0.34540018801E+02  0.40659151530E+02  0.00000000000E+00 0. -1.
         11    1    3    3    0    0 -0.24626705577E+01  0.19530057655E+02  0.15197545969E+02  0.24868721358E+02  0.51100000000E-03 0.  1.
        -11    1    3    3    0    0 -0.44341228509E+01  0.93865738156E+00 -0.72108302424E+00  0.45893882082E+01  0.51100000000E-03 0. -1.
        -12    1    3    3    0    0 -0.56554177268E+01 -0.30734369413E+01  0.20063555857E+02  0.21070738903E+02  0.00000000000E+00 0.  1.
</event>
<event>
 7    1  0.6245487E-013  0.5052885E+02  0.7816164E-02  0.1300439E+00
        -11   -1    0    0    0    0  0.00000000000E+00  0.00000000000E+00  0.45593999997E+02  0.45594000000E+02  0.51100000000E-03 0.  1.
         11   -1    0    0    0    0 -0.00000000000E+00 -0.00000000000E+00 -0.45593999997E+02  0.45594000000E+02  0.51100000000E-03 0. -1.
    9900012    2    1    2    0    0  0.24968243004E+02 -0.31891029612E+02 -0.35658566649E+01  0.50528852663E+02  0.29999978153E+02 0.  0.
         12    1    1    2    0    0 -0.24968243004E+02  0.31891029612E+02  0.35658566649E+01  0.40659147337E+02  0.00000000000E+00 0. -1.
         11    1    3    3    0    0  0.19621826871E+01 -0.88253890721E+01 -0.90085542355E+01  0.12762903386E+02  0.51100000000E-03 0. -1.
        -11    1    3    3    0    0  0.15607200477E+02 -0.14230036556E+02 -0.55520479804E+01  0.21838129136E+02  0.51100000000E-03 0.  1.
        -12    1    3    3    0    0  0.73988598395E+01 -0.88356039843E+01  0.10994745551E+02  0.15927820140E+02  0.00000000000E+00 0.  1.
</event>
<event>
 7    1  0.6245487E-013  0.5052886E+02  0.7816164E-02  0.1300439E+00
        -11   -1    0    0    0    0  0.00000000000E+00  0.00000000000E+00  0.45593999997E+02  0.45594000000E+02  0.51100000000E-03 0.  1.
         11   -1    0    0    0    0 -0.00000000000E+00 -0.00000000000E+00 -0.45593999997E+02  0.45594000000E+02  0.51100000000E-03 0. -1.
    9900012    2    1    2    0    0 -0.32183710868E+02  0.24540409246E+02  0.38913477202E+01  0.50528861811E+02  0.30000005961E+02 0.  0.
         12    1    1    2    0    0  0.32183710868E+02 -0.24540409246E+02 -0.38913477202E+01  0.40659138189E+02  0.00000000000E+00 0. -1.
         11    1    3    3    0    0 -0.15084881733E+02  0.15560702461E+02 -0.13272478368E+01  0.21712915628E+02  0.51100000000E-03 0. -1.
        -11    1    3    3    0    0 -0.21663192389E+02  0.93740371356E+01  0.54621371948E+01  0.24228112177E+02  0.51100000000E-03 0.  1.
         12    1    3    3    0    0  0.45643632536E+01 -0.39433035071E+00 -0.24354163773E+00  0.45878340059E+01  0.00000000000E+00 0. -1.
</event>
<event>
 7    1  0.6245487E-013  0.5052887E+02  0.7816164E-02  0.1300439E+00
        -11   -1    0    0    0    0  0.00000000000E+00  0.00000000000E+00  0.45593999997E+02  0.45594000000E+02  0.51100000000E-03 0.  1.
         11   -1    0    0    0    0 -0.00000000000E+00 -0.00000000000E+00 -0.45593999997E+02  0.45594000000E+02  0.51100000000E-03 0. -1.
    9900012    2    1    2    0    0 -0.28825011460E+00  0.25072242822E+02  0.32007257121E+02  0.50528868717E+02  0.30000026952E+02 0.  0.
         12    1    1    2    0    0  0.28825011460E+00 -0.25072242822E+02 -0.32007257121E+02  0.40659131283E+02  0.00000000000E+00 0. -1.
         11    1    3    3    0    0 -0.15508071195E+01  0.23673777168E+01 -0.35927572088E+01  0.45735527326E+01  0.51100000000E-03 0. -1.
        -11    1    3    3    0    0  0.40462815628E+01  0.13872970745E+02  0.73228424018E+01  0.16200485575E+02  0.51100000000E-03 0.  1.
         12    1    3    3    0    0 -0.27837245579E+01  0.88318943608E+01  0.28277171928E+02  0.29754830409E+02  0.00000000000E+00 0. -1.
</event>
<event>
 7    1  0.6245487E-013  0.5052885E+02  0.7816164E-02  0.1300439E+00
        -11   -1    0    0    0    0  0.00000000000E+00  0.00000000000E+00  0.45593999997E+02  0.45594000000E+02  0.51100000000E-03 0.  1.
         11   -1    0    0    0    0 -0.00000000000E+00 -0.00000000000E+00 -0.45593999997E+02  0.45594000000E+02  0.51100000000E-03 0. -1.
    9900012    2    1    2    0    0 -0.32203860216E+02  0.24806772962E+02  0.83768689325E+00  0.50528851990E+02  0.29999976108E+02 0.  0.
         12    1    1    2    0    0  0.32203860216E+02 -0.24806772962E+02 -0.83768689325E+00  0.40659148010E+02  0.00000000000E+00 0. -1.
         11    1    3    3    0    0 -0.10586932231E+02  0.16493879178E+01  0.68986047567E+01  0.12743404663E+02  0.51100000000E-03 0. -1.
        -11    1    3    3    0    0 -0.14721931740E+02  0.15865782829E+02  0.56438087245E+01  0.22367630990E+02  0.51100000000E-03 0.  1.
         12    1    3    3    0    0 -0.68949962455E+01  0.72916022152E+01 -0.11704726588E+02  0.15417816337E+02  0.00000000000E+00 0. -1.
</event>
<event>
 7    1  0.6245487E-013  0.5052886E+02  0.7816164E-02  0.1300439E+00
        -11   -1    0    0    0    0  0.00000000000E+00  0.00000000000E+00  0.45593999997E+02  0.45594000000E+02  0.51100000000E-03 0. -1.
         11   -1    0    0    0    0 -0.00000000000E+00 -0.00000000000E+00 -0.45593999997E+02  0.45594000000E+02  0.51100000000E-03 0.  1.
    9900012    2    1    2    0    0 -0.16657747845E+02 -0.35323690719E+02  0.11310257973E+02  0.50528860502E+02  0.30000001982E+02 0.  0.
         12    1    1    2    0    0  0.16657747845E+02  0.35323690719E+02 -0.11310257973E+02  0.40659139498E+02  0.00000000000E+00 0. -1.
         11    1    3    3    0    0  0.44919299453E+01 -0.56414706626E+01  0.83708807579E+00  0.72597756562E+01  0.51100000000E-03 0. -1.
        -11    1    3    3    0    0 -0.18871109966E+02 -0.30961597637E+02  0.42351490745E+01  0.36505832514E+02  0.51100000000E-03 0.  1.
        -12    1    3    3    0    0 -0.22785678241E+01  0.12793775803E+01  0.62380208225E+01  0.67632523319E+01  0.00000000000E+00 0.  1.
</event>
<event>
 7    1  0.6245487E-013  0.5052886E+02  0.7816164E-02  0.1300439E+00
        -11   -1    0    0    0    0  0.00000000000E+00  0.00000000000E+00  0.45593999997E+02  0.45594000000E+02  0.51100000000E-03 0. -1.
         11   -1    0    0    0    0 -0.00000000000E+00 -0.00000000000E+00 -0.45593999997E+02  0.45594000000E+02  0.51100000000E-03 0.  1.
    9900012    2    1    2    0    0  0.34279684909E+02 -0.33670115003E+01 -0.21603976979E+02  0.50528863448E+02  0.30000010936E+02 0.  0.
         12    1    1    2    0    0 -0.34279684909E+02  0.33670115003E+01  0.21603976979E+02  0.40659136552E+02  0.00000000000E+00 0. -1.
         11    1    3    3    0    0  0.12011148742E+02 -0.89060357029E+01  0.17272415195E+01  0.15052193514E+02  0.51100000000E-03 0. -1.
        -11    1    3    3    0    0 -0.23365511245E+00  0.36005419294E+01 -0.10676807733E+01  0.37627701752E+01  0.51100000000E-03 0.  1.
        -12    1    3    3    0    0  0.22502191279E+02  0.19384822732E+01 -0.22263537725E+02  0.31713899759E+02  0.00000000000E+00 0.  1.
</event>
<event>
 7    1  0.6245487E-013  0.5052888E+02  0.7816164E-02  0.1300439E+00
        -11   -1    0    0    0    0  0.00000000000E+00  0.00000000000E+00  0.45593999997E+02  0.45594000000E+02  0.51100000000E-03 0.  1.
         11   -1    0    0    0    0 -0.00000000000E+00 -0.00000000000E+00 -0.45593999997E+02  0.45594000000E+02  0.51100000000E-03 0. -1.
    9900012    2    1    2    0    0 -0.18429287886E+02  0.18107879048E+02  0.31394741477E+02  0.50528883827E+02  0.30000072881E+02 0.  0.
         12    1    1    2    0    0  0.18429287886E+02 -0.18107879048E+02 -0.31394741477E+02  0.40659116173E+02  0.00000000000E+00 0. -1.
         11    1    3    3    0    0 -0.97970919435E+01  0.14882950275E+02  0.44383047957E+01  0.18362564341E+02  0.51100000000E-03 0.  1.
        -11    1    3    3    0    0 -0.95128406410E+01 -0.10733112828E+01  0.73346639860E+01  0.12059992961E+02  0.51100000000E-03 0. -1.
        -12    1    3    3    0    0  0.88064469879E+00  0.42982400556E+01  0.19621772695E+02  0.20106326526E+02  0.00000000000E+00 0.  1.
</event>
<event>
 7    1  0.6245487E-013  0.5052886E+02  0.7816164E-02  0.1300439E+00
        -11   -1    0    0    0    0  0.00000000000E+00  0.00000000000E+00  0.45593999997E+02  0.45594000000E+02  0.51100000000E-03 0.  1.
         11   -1    0    0    0    0 -0.00000000000E+00 -0.00000000000E+00 -0.45593999997E+02  0.45594000000E+02  0.51100000000E-03 0. -1.
    9900012    2    1    2    0    0  0.28617003494E+02 -0.15698450770E+02  0.24244412073E+02  0.50528858809E+02  0.29999996836E+02 0.  0.
         12    1    1    2    0    0 -0.28617003494E+02  0.15698450770E+02 -0.24244412073E+02  0.40659141191E+02  0.00000000000E+00 0. -1.
         11    1    3    3    0    0 -0.11467638903E+01  0.43928154417E+00  0.82659614325E+01  0.83566832153E+01  0.51100000000E-03 0. -1.
        -11    1    3    3    0    0  0.47565084527E+01 -0.12712466983E+02  0.77183371828E+01  0.15614221677E+02  0.51100000000E-03 0.  1.
        -12    1    3    3    0    0  0.25007258932E+02 -0.34252653311E+01  0.82601134581E+01  0.26557953916E+02  0.00000000000E+00 0.  1.
</event>
<event>
 7    1  0.6245487E-013  0.5052887E+02  0.7816164E-02  0.1300439E+00
        -11   -1    0    0    0    0  0.00000000000E+00  0.00000000000E+00  0.45593999997E+02  0.45594000000E+02  0.51100000000E-03 0. -1.
         11   -1    0    0    0    0 -0.00000000000E+00 -0.00000000000E+00 -0.45593999997E+02  0.45594000000E+02  0.51100000000E-03 0.  1.
    9900012    2    1    2    0    0  0.33054985981E+02  0.38272304976E+01 -0.23364191862E+02  0.50528865074E+02  0.30000015880E+02 0.  0.
         12    1    1    2    0    0 -0.33054985981E+02 -0.38272304976E+01  0.23364191862E+02  0.40659134926E+02  0.00000000000E+00 0. -1.
         11    1    3    3    0    0  0.35477673628E+00  0.62768713526E+01  0.73264970354E+00  0.63294357062E+01  0.51100000000E-03 0. -1.
        -11    1    3    3    0    0  0.17998996288E+02 -0.52059101061E+01 -0.40195361427E+01  0.19163038341E+02  0.51100000000E-03 0.  1.
         12    1    3    3    0    0  0.14701212957E+02  0.27562692511E+01 -0.20077305423E+02  0.25036391027E+02  0.00000000000E+00 0. -1.
</event>
<event>
 7    1  0.6245487E-013  0.5052893E+02  0.7816164E-02  0.1300439E+00
        -11   -1    0    0    0    0  0.00000000000E+00  0.00000000000E+00  0.45593999997E+02  0.45594000000E+02  0.51100000000E-03 0.  1.
         11   -1    0    0    0    0 -0.00000000000E+00 -0.00000000000E+00 -0.45593999997E+02  0.45594000000E+02  0.51100000000E-03 0. -1.
    9900012    2    1    2    0    0 -0.80897571344E+01 -0.41056253482E-01  0.39846130731E+02  0.50528929790E+02  0.30000212588E+02 0.  0.
         12    1    1    2    0    0  0.80897571344E+01  0.41056253482E-01 -0.39846130731E+02  0.40659070210E+02  0.00000000000E+00 0. -1.
         11    1    3    3    0    0 -0.66200816111E+01  0.80740896299E+01  0.44402045249E+01  0.11346004600E+02  0.51100000000E-03 0. -1.
        -11    1    3    3    0    0  0.20367756062E+01  0.25520210561E+01  0.19147324471E+02  0.19423730357E+02  0.51100000000E-03 0.  1.
        -12    1    3    3    0    0 -0.35064511295E+01 -0.10667166939E+02  0.16258601735E+02  0.19759194833E+02  0.00000000000E+00 0.  1.
</event>
<event>
 7    1  0.6245487E-013  0.5052886E+02  0.7816164E-02  0.1300439E+00
        -11   -1    0    0    0    0  0.00000000000E+00  0.00000000000E+00  0.45593999997E+02  0.45594000000E+02  0.51100000000E-03 0. -1.
         11   -1    0    0    0    0 -0.00000000000E+00 -0.00000000000E+00 -0.45593999997E+02  0.45594000000E+02  0.51100000000E-03 0.  1.
    9900012    2    1    2    0    0  0.14250046492E+02 -0.21456206590E+02  0.31460017214E+02  0.50528864380E+02  0.30000013769E+02 0.  0.
         12    1    1    2    0    0 -0.14250046492E+02  0.21456206590E+02 -0.31460017214E+02  0.40659135620E+02  0.00000000000E+00 0. -1.
         11    1    3    3    0    0  0.42475819959E+00 -0.37585089514E+01 -0.23140152802E+01  0.44341262999E+01  0.51100000000E-03 0. -1.
        -11    1    3    3    0    0  0.86381468823E+01  0.28589962162E+01  0.50896594246E+01  0.10425740945E+02  0.51100000000E-03 0.  1.
         12    1    3    3    0    0  0.51871414100E+01 -0.20556693855E+02  0.28684373070E+02  0.35668997135E+02  0.00000000000E+00 0. -1.
</event>
<event>
 7    1  0.6245487E-013  0.5052889E+02  0.7816164E-02  0.1300439E+00
        -11   -1    0    0    0    0  0.00000000000E+00  0.00000000000E+00  0.45593999997E+02  0.45594000000E+02  0.51100000000E-03 0.  1.
         11   -1    0    0    0    0 -0.00000000000E+00 -0.00000000000E+00 -0.45593999997E+02  0.45594000000E+02  0.51100000000E-03 0. -1.
    9900012    2    1    2    0    0 -0.14249216299E+01 -0.34713502257E+01  0.40485586789E+02  0.50528887716E+02  0.30000084702E+02 0.  0.
         12    1    1    2    0    0  0.14249216299E+01  0.34713502257E+01 -0.40485586789E+02  0.40659112284E+02  0.00000000000E+00 0. -1.
         11    1    3    3    0    0  0.22320725469E+01 -0.18251735211E+01  0.96838284740E+01  0.10103956671E+02  0.51100000000E-03 0. -1.
        -11    1    3    3    0    0 -0.14066381611E+02  0.35934276443E+01  0.16563487346E+02  0.22025551689E+02  0.51100000000E-03 0.  1.
        -12    1    3    3    0    0  0.10409387435E+02 -0.52396043489E+01  0.14238270969E+02  0.18399379356E+02  0.00000000000E+00 0.  1.
</event>
<event>
 7    1  0.6245487E-013  0.5052886E+02  0.7816164E-02  0.1300439E+00
        -11   -1    0    0    0    0  0.00000000000E+00  0.00000000000E+00  0.45593999997E+02  0.45594000000E+02  0.51100000000E-03 0.  1.
         11   -1    0    0    0    0 -0.00000000000E+00 -0.00000000000E+00 -0.45593999997E+02  0.45594000000E+02  0.51100000000E-03 0. -1.
    9900012    2    1    2    0    0  0.24390858478E+02 -0.32521594989E+02 -0.77287267516E+00  0.50528862649E+02  0.30000008509E+02 0.  0.
         12    1    1    2    0    0 -0.24390858478E+02  0.32521594989E+02  0.77287267516E+00  0.40659137351E+02  0.00000000000E+00 0. -1.
         11    1    3    3    0    0  0.11220279374E+02 -0.23123822572E+01 -0.42151012961E+01  0.12206918535E+02  0.51100000000E-03 0. -1.
        -11    1    3    3    0    0  0.16778253709E+02 -0.16451363522E+02  0.49676294287E+01  0.24017379159E+02  0.51100000000E-03 0.  1.
         12    1    3    3    0    0 -0.36076746048E+01 -0.13757849210E+02 -0.15254008077E+01  0.14304564955E+02  0.00000000000E+00 0. -1.
</event>
<event>
 7    1  0.6245487E-013  0.5052883E+02  0.7816164E-02  0.1300439E+00
        -11   -1    0    0    0    0  0.00000000000E+00  0.00000000000E+00  0.45593999997E+02  0.45594000000E+02  0.51100000000E-03 0. -1.
         11   -1    0    0    0    0 -0.00000000000E+00 -0.00000000000E+00 -0.45593999997E+02  0.45594000000E+02  0.51100000000E-03 0.  1.
    9900012    2    1    2    0    0 -0.19438113073E+02 -0.35282265125E+02  0.55217053521E+01  0.50528834955E+02  0.29999924328E+02 0.  0.
         12    1    1    2    0    0  0.19438113073E+02  0.35282265125E+02 -0.55217053521E+01  0.40659165045E+02  0.00000000000E+00 0. -1.
         11    1    3    3    0    0 -0.58287730937E+01 -0.23039890182E+02  0.95745928587E+01  0.25621943018E+02  0.51100000000E-03 0. -1.
        -11    1    3    3    0    0  0.33721650538E+01 -0.33504012742E+01 -0.31783369246E+01  0.57182612493E+01  0.51100000000E-03 0.  1.
         12    1    3    3    0    0 -0.16981505033E+02 -0.88919736689E+01 -0.87455058201E+00  0.19188630687E+02  0.00000000000E+00 0. -1.
</event>
<event>
 7    1  0.6245487E-013  0.5052886E+02  0.7816164E-02  0.1300439E+00
        -11   -1    0    0    0    0  0.00000000000E+00  0.00000000000E+00  0.45593999997E+02  0.45594000000E+02  0.51100000000E-03 0.  1.
         11   -1    0    0    0    0 -0.00000000000E+00 -0.00000000000E+00 -0.45593999997E+02  0.45594000000E+02  0.51100000000E-03 0. -1.
    9900012    2    1    2    0    0 -0.32955400095E+02 -0.13230537037E+02  0.19800506566E+02  0.50528861224E+02  0.30000004178E+02 0.  0.
         12    1    1    2    0    0  0.32955400095E+02  0.13230537037E+02 -0.19800506566E+02  0.40659138776E+02  0.00000000000E+00 0. -1.
         11    1    3    3    0    0 -0.18490894021E+02  0.11418882005E+01  0.10878967876E+02  0.21484157249E+02  0.51100000000E-03 0.  1.
        -11    1    3    3    0    0 -0.66338899487E+01 -0.17785176815E+02  0.73716327483E+01  0.20363250719E+02  0.51100000000E-03 0. -1.
         12    1    3    3    0    0 -0.78306161251E+01  0.34127515778E+01  0.15499059410E+01  0.86814532572E+01  0.00000000000E+00 0. -1.
</event>
<event>
 7    1  0.6245487E-013  0.5052887E+02  0.7816164E-02  0.1300439E+00
        -11   -1    0    0    0    0  0.00000000000E+00  0.00000000000E+00  0.45593999997E+02  0.45594000000E+02  0.51100000000E-03 0. -1.
         11   -1    0    0    0    0 -0.00000000000E+00 -0.00000000000E+00 -0.45593999997E+02  0.45594000000E+02  0.51100000000E-03 0.  1.
    9900012    2    1    2    0    0  0.37518873763E+02 -0.10308302316E+01  0.15634472557E+02  0.50528865337E+02  0.30000016680E+02 0.  0.
         12    1    1    2    0    0 -0.37518873763E+02  0.10308302316E+01 -0.15634472557E+02  0.40659134663E+02  0.00000000000E+00 0. -1.
         11    1    3    3    0    0  0.13554201761E+02  0.15494052927E+01  0.60436304644E+01  0.14921210125E+02  0.51100000000E-03 0. -1.
        -11    1    3    3    0    0  0.19333800531E+02  0.28368162345E+00 -0.50522280347E+01  0.19985027561E+02  0.51100000000E-03 0.  1.
         12    1    3    3    0    0  0.46308714710E+01 -0.28639171478E+01  0.14643070127E+02  0.15622627652E+02  0.00000000000E+00 0. -1.
</event>
<event>
 7    1  0.6245487E-013  0.5052886E+02  0.7816164E-02  0.1300439E+00
        -11   -1    0    0    0    0  0.00000000000E+00  0.00000000000E+00  0.45593999997E+02  0.45594000000E+02  0.51100000000E-03 0. -1.
         11   -1    0    0    0    0 -0.00000000000E+00 -0.00000000000E+00 -0.45593999997E+02  0.45594000000E+02  0.51100000000E-03 0.  1.
    9900012    2    1    2    0    0 -0.23223132616E+02  0.31356353937E+02 -0.11429377681E+02  0.50528862099E+02  0.30000006836E+02 0.  0.
         12    1    1    2    0    0  0.23223132616E+02 -0.31356353937E+02  0.11429377681E+02  0.40659137901E+02  0.00000000000E+00 0. -1.
         11    1    3    3    0    0 -0.11037727564E+02 -0.13201746306E+01 -0.71657160034E+01  0.13225799671E+02  0.51100000000E-03 0. -1.
        -11    1    3    3    0    0  0.53043928588E+00  0.97362789384E+00  0.22695700041E+01  0.25259187193E+01  0.51100000000E-03 0.  1.
        -12    1    3    3    0    0 -0.12715844338E+02  0.31702900674E+02 -0.65332316815E+01  0.34777143709E+02  0.00000000000E+00 0.  1.
</event>
<event>
 7    1  0.6245487E-013  0.5052887E+02  0.7816164E-02  0.1300439E+00
        -11   -1    0    0    0    0  0.00000000000E+00  0.00000000000E+00  0.45593999997E+02  0.45594000000E+02  0.51100000000E-03 0.  1.
         11   -1    0    0    0    0 -0.00000000000E+00 -0.00000000000E+00 -0.45593999997E+02  0.45594000000E+02  0.51100000000E-03 0. -1.
    9900012    2    1    2    0    0 -0.33387240799E+02 -0.15851687732E+02  0.16946419195E+02  0.50528868483E+02  0.30000026241E+02 0.  0.
         12    1    1    2    0    0  0.33387240799E+02  0.15851687732E+02 -0.16946419195E+02  0.40659131517E+02  0.00000000000E+00 0. -1.
         11    1    3    3    0    0 -0.22054690435E+02 -0.16084703911E+02  0.13996770138E+02  0.30676320585E+02  0.51100000000E-03 0. -1.
        -11    1    3    3    0    0 -0.13968914701E+01 -0.61301875074E+01 -0.26125958529E+01  0.68085359665E+01  0.51100000000E-03 0.  1.
        -12    1    3    3    0    0 -0.99356588943E+01  0.63632036865E+01  0.55622449102E+01  0.13044011931E+02  0.00000000000E+00 0.  1.
</event>
<event>
 7    1  0.6245487E-013  0.5052886E+02  0.7816164E-02  0.1300439E+00
        -11   -1    0    0    0    0  0.00000000000E+00  0.00000000000E+00  0.45593999997E+02  0.45594000000E+02  0.51100000000E-03 0.  1.
         11   -1    0    0    0    0 -0.00000000000E+00 -0.00000000000E+00 -0.45593999997E+02  0.45594000000E+02  0.51100000000E-03 0. -1.
    9900012    2    1    2    0    0 -0.48295606385E+01  0.61803155335E+01  0.39895424048E+02  0.50528858149E+02  0.29999994830E+02 0.  0.
         12    1    1    2    0    0  0.48295606385E+01 -0.61803155335E+01 -0.39895424048E+02  0.40659141851E+02  0.00000000000E+00 0. -1.
         11    1    3    3    0    0  0.34052437711E+01 -0.36431843444E+01  0.10960227231E+01  0.51058538344E+01  0.51100000000E-03 0. -1.
        -11    1    3    3    0    0 -0.11635766903E+01  0.13548553449E+02  0.32553472764E+02  0.35279537986E+02  0.51100000000E-03 0.  1.
         12    1    3    3    0    0 -0.70712277193E+01 -0.37250535713E+01  0.62459285613E+01  0.10143466329E+02  0.00000000000E+00 0. -1.
</event>
<event>
 7    1  0.6245487E-013  0.5052881E+02  0.7816164E-02  0.1300439E+00
        -11   -1    0    0    0    0  0.00000000000E+00  0.00000000000E+00  0.45593999997E+02  0.45594000000E+02  0.51100000000E-03 0.  1.
         11   -1    0    0    0    0 -0.00000000000E+00 -0.00000000000E+00 -0.45593999997E+02  0.45594000000E+02  0.51100000000E-03 0. -1.
    9900012    2    1    2    0    0 -0.26306700577E+01 -0.81808189413E+01  0.39740701126E+02  0.50528812238E+02  0.29999855278E+02 0.  0.
         12    1    1    2    0    0  0.26306700577E+01  0.81808189413E+01 -0.39740701126E+02  0.40659187762E+02  0.00000000000E+00 0. -1.
         11    1    3    3    0    0  0.39067283954E+01 -0.11403274549E+01 -0.33096566419E+00  0.40831864997E+01  0.51100000000E-03 0.  1.
        -11    1    3    3    0    0  0.30674926823E+00  0.73848737704E+01  0.14988263774E+02  0.16711627896E+02  0.51100000000E-03 0. -1.
         12    1    3    3    0    0 -0.68441477213E+01 -0.14425365257E+02  0.25083403016E+02  0.29733997842E+02  0.00000000000E+00 0. -1.
</event>
<event>
 7    1  0.6245487E-013  0.5052888E+02  0.7816164E-02  0.1300439E+00
        -11   -1    0    0    0    0  0.00000000000E+00  0.00000000000E+00  0.45593999997E+02  0.45594000000E+02  0.51100000000E-03 0.  1.
         11   -1    0    0    0    0 -0.00000000000E+00 -0.00000000000E+00 -0.45593999997E+02  0.45594000000E+02  0.51100000000E-03 0. -1.
    9900012    2    1    2    0    0 -0.99283666498E+01 -0.21380632977E+02  0.33127941496E+02  0.50528875088E+02  0.30000046318E+02 0.  0.
         12    1    1    2    0    0  0.99283666498E+01  0.21380632977E+02 -0.33127941496E+02  0.40659124912E+02  0.00000000000E+00 0. -1.
         11    1    3    3    0    0  0.39417078284E+01 -0.22896033312E+01  0.26957481034E+01  0.52958853949E+01  0.51100000000E-03 0. -1.
        -11    1    3    3    0    0 -0.54020973210E+01 -0.23030639411E+02  0.18221069873E+02  0.29859678410E+02  0.51100000000E-03 0.  1.
        -12    1    3    3    0    0 -0.84679771571E+01  0.39396097647E+01  0.12211123519E+02  0.15373311284E+02  0.00000000000E+00 0.  1.
</event>
<event>
 7    1  0.6245487E-013  0.5052885E+02  0.7816164E-02  0.1300439E+00
        -11   -1    0    0    0    0  0.00000000000E+00  0.00000000000E+00  0.45593999997E+02  0.45594000000E+02  0.51100000000E-03 0.  1.
         11   -1    0    0    0    0 -0.00000000000E+00 -0.00000000000E+00 -0.45593999997E+02  0.45594000000E+02  0.51100000000E-03 0. -1.
    9900012    2    1    2    0    0  0.11317507378E+02 -0.22413601757E+02  0.31979852750E+02  0.50528849751E+02  0.29999969304E+02 0.  0.
         12    1    1    2    0    0 -0.11317507378E+02  0.22413601757E+02 -0.31979852750E+02  0.40659150249E+02  0.00000000000E+00 0. -1.
         11    1    3    3    0    0 -0.24441571614E+01  0.30248803346E+00  0.42814971468E+00  0.24997431226E+01  0.51100000000E-03 0. -1.
        -11    1    3    3    0    0  0.24124129701E+01 -0.16815398000E+02  0.30850531521E+02  0.35218356600E+02  0.51100000000E-03 0.  1.
         12    1    3    3    0    0  0.11349251570E+02 -0.59006917912E+01  0.70117151489E+00  0.12810750029E+02  0.00000000000E+00 0. -1.
</event>
<event>
 7    1  0.6245487E-013  0.5052886E+02  0.7816164E-02  0.1300439E+00
        -11   -1    0    0    0    0  0.00000000000E+00  0.00000000000E+00  0.45593999997E+02  0.45594000000E+02  0.51100000000E-03 0. -1.
         11   -1    0    0    0    0 -0.00000000000E+00 -0.00000000000E+00 -0.45593999997E+02  0.45594000000E+02  0.51100000000E-03 0.  1.
    9900012    2    1    2    0    0 -0.16529878545E+02  0.36860508007E+02  0.46077748171E+01  0.50528861741E+02  0.30000005747E+02 0.  0.
         12    1    1    2    0    0  0.16529878545E+02 -0.36860508007E+02 -0.46077748171E+01  0.40659138259E+02  0.00000000000E+00 0. -1.
         11    1    3    3    0    0 -0.13296504197E+01 -0.29317493343E+01  0.11972542784E+01  0.34346095070E+01  0.51100000000E-03 0. -1.
        -11    1    3    3    0    0 -0.10544841847E+02  0.86623119873E+01  0.71337488030E+01  0.15398691853E+02  0.51100000000E-03 0.  1.
        -12    1    3    3    0    0 -0.46553862777E+01  0.31129945354E+02 -0.37232282644E+01  0.31695560380E+02  0.00000000000E+00 0.  1.
</event>
<event>
 7    1  0.6245487E-013  0.5052887E+02  0.7816164E-02  0.1300439E+00
        -11   -1    0    0    0    0  0.00000000000E+00  0.00000000000E+00  0.45593999997E+02  0.45594000000E+02  0.51100000000E-03 0.  1.
         11   -1    0    0    0    0 -0.00000000000E+00 -0.00000000000E+00 -0.45593999997E+02  0.45594000000E+02  0.51100000000E-03 0. -1.
    9900012    2    1    2    0    0  0.37751510822E+02 -0.13318608855E+02 -0.71135461482E+01  0.50528874948E+02  0.30000045893E+02 0.  0.
         12    1    1    2    0    0 -0.37751510822E+02  0.13318608855E+02  0.71135461482E+01  0.40659125052E+02  0.00000000000E+00 0. -1.
         11    1    3    3    0    0  0.46134874419E+01  0.23869477672E+01 -0.44488195905E+01  0.68391360587E+01  0.51100000000E-03 0. -1.
        -11    1    3    3    0    0  0.29325988920E+02 -0.27350226260E+01  0.16481977873E+01  0.29499331028E+02  0.51100000000E-03 0.  1.
         12    1    3    3    0    0  0.38120344597E+01 -0.12970533996E+02 -0.43129243449E+01  0.14190407861E+02  0.00000000000E+00 0. -1.
</event>
<event>
 7    1  0.6245487E-013  0.5052886E+02  0.7816164E-02  0.1300439E+00
        -11   -1    0    0    0    0  0.00000000000E+00  0.00000000000E+00  0.45593999997E+02  0.45594000000E+02  0.51100000000E-03 0.  1.
         11   -1    0    0    0    0 -0.00000000000E+00 -0.00000000000E+00 -0.45593999997E+02  0.45594000000E+02  0.51100000000E-03 0. -1.
    9900012    2    1    2    0    0 -0.92945707641E+01  0.21509768883E+02  0.33228095822E+02  0.50528861358E+02  0.30000004585E+02 0.  0.
         12    1    1    2    0    0  0.92945707641E+01 -0.21509768883E+02 -0.33228095822E+02  0.40659138642E+02  0.00000000000E+00 0. -1.
         11    1    3    3    0    0 -0.10567611361E+02  0.19903499930E+02  0.15882465862E+02  0.27569483881E+02  0.51100000000E-03 0. -1.
        -11    1    3    3    0    0 -0.58474510459E+01 -0.20828292060E+01  0.39837549234E+01  0.73757145272E+01  0.51100000000E-03 0.  1.
        -12    1    3    3    0    0  0.71204916423E+01  0.36890981593E+01  0.13361875037E+02  0.15583662950E+02  0.00000000000E+00 0.  1.
</event>
<event>
 7    1  0.6245487E-013  0.5052885E+02  0.7816164E-02  0.1300439E+00
        -11   -1    0    0    0    0  0.00000000000E+00  0.00000000000E+00  0.45593999997E+02  0.45594000000E+02  0.51100000000E-03 0. -1.
         11   -1    0    0    0    0 -0.00000000000E+00 -0.00000000000E+00 -0.45593999997E+02  0.45594000000E+02  0.51100000000E-03 0.  1.
    9900012    2    1    2    0    0 -0.37443947586E+01 -0.27441131875E+02 -0.29767937634E+02  0.50528851932E+02  0.29999975932E+02 0.  0.
         12    1    1    2    0    0  0.37443947586E+01  0.27441131875E+02  0.29767937634E+02  0.40659148068E+02  0.00000000000E+00 0. -1.
         11    1    3    3    0    0 -0.18295877881E+01  0.80055233062E+00 -0.44138892383E+01  0.48446562290E+01  0.51100000000E-03 0. -1.
        -11    1    3    3    0    0 -0.42041370565E+01 -0.56336285285E+01  0.43640440488E+01  0.82738998971E+01  0.51100000000E-03 0.  1.
        -12    1    3    3    0    0  0.22893300860E+01 -0.22608055677E+02 -0.29718092444E+02  0.37410295806E+02  0.00000000000E+00 0.  1.
</event>
<event>
 7    1  0.6245487E-013  0.5052887E+02  0.7816164E-02  0.1300439E+00
        -11   -1    0    0    0    0  0.00000000000E+00  0.00000000000E+00  0.45593999997E+02  0.45594000000E+02  0.51100000000E-03 0. -1.
         11   -1    0    0    0    0 -0.00000000000E+00 -0.00000000000E+00 -0.45593999997E+02  0.45594000000E+02  0.51100000000E-03 0.  1.
    9900012    2    1    2    0    0 -0.21447493841E+01 -0.39390223220E+02 -0.98476182094E+01  0.50528865484E+02  0.30000017124E+02 0.  0.
         12    1    1    2    0    0  0.21447493841E+01  0.39390223220E+02  0.98476182094E+01  0.40659134516E+02  0.00000000000E+00 0. -1.
         11    1    3    3    0    0  0.24428284415E+01 -0.17878029193E-01 -0.17783880627E+01  0.30216543120E+01  0.51100000000E-03 0. -1.
        -11    1    3    3    0    0  0.26308434828E+01 -0.31779926729E+02 -0.14694942310E+02  0.35111627847E+02  0.51100000000E-03 0.  1.
        -12    1    3    3    0    0 -0.72184213085E+01 -0.75924184619E+01  0.66257121633E+01  0.12395583325E+02  0.00000000000E+00 0.  1.
</event>
<event>
 7    1  0.6245487E-013  0.5052886E+02  0.7816164E-02  0.1300439E+00
        -11   -1    0    0    0    0  0.00000000000E+00  0.00000000000E+00  0.45593999997E+02  0.45594000000E+02  0.51100000000E-03 0. -1.
         11   -1    0    0    0    0 -0.00000000000E+00 -0.00000000000E+00 -0.45593999997E+02  0.45594000000E+02  0.51100000000E-03 0.  1.
    9900012    2    1    2    0    0 -0.25895555477E+02  0.50383073844E+01 -0.30938675275E+02  0.50528856348E+02  0.29999989355E+02 0.  0.
         12    1    1    2    0    0  0.25895555477E+02 -0.50383073844E+01  0.30938675275E+02  0.40659143652E+02  0.00000000000E+00 0. -1.
         11    1    3    3    0    0 -0.13922150874E+02  0.19885749916E+01 -0.30097719977E+02  0.33221280281E+02  0.51100000000E-03 0.  1.
        -11    1    3    3    0    0 -0.93558401182E+01  0.68882982136E+01 -0.32635936539E+01  0.12067785232E+02  0.51100000000E-03 0. -1.
        -12    1    3    3    0    0 -0.26175644855E+01 -0.38385658208E+01  0.24226383560E+01  0.52397908355E+01  0.00000000000E+00 0.  1.
</event>
<event>
 7    1  0.6245487E-013  0.5052886E+02  0.7816164E-02  0.1300439E+00
        -11   -1    0    0    0    0  0.00000000000E+00  0.00000000000E+00  0.45593999997E+02  0.45594000000E+02  0.51100000000E-03 0.  1.
         11   -1    0    0    0    0 -0.00000000000E+00 -0.00000000000E+00 -0.45593999997E+02  0.45594000000E+02  0.51100000000E-03 0. -1.
    9900012    2    1    2    0    0  0.24608324422E+02 -0.32274110758E+02 -0.24449635801E+01  0.50528859539E+02  0.29999999056E+02 0.  0.
         12    1    1    2    0    0 -0.24608324422E+02  0.32274110758E+02  0.24449635801E+01  0.40659140461E+02  0.00000000000E+00 0. -1.
         11    1    3    3    0    0 -0.23501993621E+00 -0.12198077078E+02  0.22809519452E+01  0.12411730774E+02  0.51100000000E-03 0. -1.
        -11    1    3    3    0    0 -0.18758280572E+01 -0.75548781163E+01 -0.36305610453E+01  0.85892891450E+01  0.51100000000E-03 0.  1.
        -12    1    3    3    0    0  0.26719172415E+02 -0.12521155564E+02 -0.10953544800E+01  0.29527839620E+02  0.00000000000E+00 0.  1.
</event>
<event>
 7    1  0.6245487E-013  0.5052884E+02  0.7816164E-02  0.1300439E+00
        -11   -1    0    0    0    0  0.00000000000E+00  0.00000000000E+00  0.45593999997E+02  0.45594000000E+02  0.51100000000E-03 0.  1.
         11   -1    0    0    0    0 -0.00000000000E+00 -0.00000000000E+00 -0.45593999997E+02  0.45594000000E+02  0.51100000000E-03 0. -1.
    9900012    2    1    2    0    0  0.62068513552E+00 -0.35835636955E+02  0.19198666460E+02  0.50528844576E+02  0.29999953573E+02 0.  0.
         12    1    1    2    0    0 -0.62068513552E+00  0.35835636955E+02 -0.19198666460E+02  0.40659155424E+02  0.00000000000E+00 0. -1.
         11    1    3    3    0    0  0.72100412163E+01 -0.12035530549E+02 -0.30904354310E+00  0.14033324557E+02  0.51100000000E-03 0. -1.
        -11    1    3    3    0    0  0.27345698121E+01 -0.54574852209E+01  0.13880653169E+02  0.15163592901E+02  0.51100000000E-03 0.  1.
        -12    1    3    3    0    0 -0.93239258929E+01 -0.18342621184E+02  0.56270568333E+01  0.21331927118E+02  0.00000000000E+00 0.  1.
</event>
<event>
 7    1  0.6245487E-013  0.5052885E+02  0.7816164E-02  0.1300439E+00
        -11   -1    0    0    0    0  0.00000000000E+00  0.00000000000E+00  0.45593999997E+02  0.45594000000E+02  0.51100000000E-03 0.  1.
         11   -1    0    0    0    0 -0.00000000000E+00 -0.00000000000E+00 -0.45593999997E+02  0.45594000000E+02  0.51100000000E-03 0. -1.
    9900012    2    1    2    0    0  0.12869829668E+02 -0.12257381800E+02  0.36568979677E+02  0.50528853442E+02  0.29999980521E+02 0.  0.
         12    1    1    2    0    0 -0.12869829668E+02  0.12257381800E+02 -0.36568979677E+02  0.40659146558E+02  0.00000000000E+00 0. -1.
         11    1    3    3    0    0  0.63806603245E-01 -0.41631613919E+01  0.55044084120E-01  0.41640141894E+01  0.51100000000E-03 0. -1.
        -11    1    3    3    0    0  0.16250330713E+02 -0.10666701393E+02  0.15349193021E+02  0.24767912580E+02  0.51100000000E-03 0.  1.
        -12    1    3    3    0    0 -0.34443076486E+01  0.25724809850E+01  0.21164742571E+02  0.21596926673E+02  0.00000000000E+00 0.  1.
</event>
<event>
 7    1  0.6245487E-013  0.5052886E+02  0.7816164E-02  0.1300439E+00
        -11   -1    0    0    0    0  0.00000000000E+00  0.00000000000E+00  0.45593999997E+02  0.45594000000E+02  0.51100000000E-03 0. -1.
         11   -1    0    0    0    0 -0.00000000000E+00 -0.00000000000E+00 -0.45593999997E+02  0.45594000000E+02  0.51100000000E-03 0.  1.
    9900012    2    1    2    0    0  0.21394377753E+02 -0.33269637909E+02 -0.94115671206E+01  0.50528858325E+02  0.29999995366E+02 0.  0.
         12    1    1    2    0    0 -0.21394377753E+02  0.33269637909E+02  0.94115671206E+01  0.40659141675E+02  0.00000000000E+00 0. -1.
         11    1    3    3    0    0  0.29556944385E+01 -0.29452604329E+01 -0.41186172921E+01  0.58629086033E+01  0.51100000000E-03 0.  1.
        -11    1    3    3    0    0  0.46093942552E+01 -0.30163397015E+02 -0.40210954908E+01  0.30777365776E+02  0.51100000000E-03 0. -1.
         12    1    3    3    0    0  0.13829289059E+02 -0.16098046174E+00 -0.12718543377E+01  0.13888583946E+02  0.00000000000E+00 0. -1.
</event>
<event>
 7    1  0.6245487E-013  0.5052886E+02  0.7816164E-02  0.1300439E+00
        -11   -1    0    0    0    0  0.00000000000E+00  0.00000000000E+00  0.45593999997E+02  0.45594000000E+02  0.51100000000E-03 0.  1.
         11   -1    0    0    0    0 -0.00000000000E+00 -0.00000000000E+00 -0.45593999997E+02  0.45594000000E+02  0.51100000000E-03 0. -1.
    9900012    2    1    2    0    0  0.38146752417E+02 -0.12681690946E+02  0.60963708149E+01  0.50528859056E+02  0.29999997587E+02 0.  0.
         12    1    1    2    0    0 -0.38146752417E+02  0.12681690946E+02 -0.60963708149E+01  0.40659140944E+02  0.00000000000E+00 0. -1.
         11    1    3    3    0    0  0.37449170357E+01 -0.72115037306E+01  0.48717940784E+01  0.94744164709E+01  0.51100000000E-03 0.  1.
        -11    1    3    3    0    0  0.99915863098E+01 -0.37084183942E+01 -0.95533165751E+01  0.14312582640E+02  0.51100000000E-03 0. -1.
         12    1    3    3    0    0  0.24410249071E+02 -0.17617688209E+01  0.10777893312E+02  0.26741859945E+02  0.00000000000E+00 0. -1.
</event>
<event>
 7    1  0.6245487E-013  0.5052885E+02  0.7816164E-02  0.1300439E+00
        -11   -1    0    0    0    0  0.00000000000E+00  0.00000000000E+00  0.45593999997E+02  0.45594000000E+02  0.51100000000E-03 0.  1.
         11   -1    0    0    0    0 -0.00000000000E+00 -0.00000000000E+00 -0.45593999997E+02  0.45594000000E+02  0.51100000000E-03 0. -1.
    9900012    2    1    2    0    0  0.52272907417E+01 -0.37689641484E+02  0.14329427544E+02  0.50528854197E+02  0.29999982817E+02 0.  0.
         12    1    1    2    0    0 -0.52272907417E+01  0.37689641484E+02 -0.14329427544E+02  0.40659145803E+02  0.00000000000E+00 0. -1.
         11    1    3    3    0    0 -0.10652306056E+02 -0.13308574167E+02  0.58493413613E+01  0.18022335179E+02  0.51100000000E-03 0. -1.
        -11    1    3    3    0    0  0.73469060789E+00 -0.10707701366E+02  0.10194507673E+01  0.10781183561E+02  0.51100000000E-03 0.  1.
         12    1    3    3    0    0  0.15144906190E+02 -0.13673365951E+02  0.74606354149E+01  0.21725335458E+02  0.00000000000E+00 0. -1.
</event>
<event>
 7    1  0.6245487E-013  0.5052886E+02  0.7816164E-02  0.1300439E+00
        -11   -1    0    0    0    0  0.00000000000E+00  0.00000000000E+00  0.45593999997E+02  0.45594000000E+02  0.51100000000E-03 0. -1.
         11   -1    0    0    0    0 -0.00000000000E+00 -0.00000000000E+00 -0.45593999997E+02  0.45594000000E+02  0.51100000000E-03 0.  1.
    9900012    2    1    2    0    0  0.29575516616E+02  0.89262228420E+01 -0.26434385467E+02  0.50528863605E+02  0.30000011415E+02 0.  0.
         12    1    1    2    0    0 -0.29575516616E+02 -0.89262228420E+01  0.26434385467E+02  0.40659136395E+02  0.00000000000E+00 0. -1.
         11    1    3    3    0    0  0.58490252985E+01  0.22834449165E+01  0.58568565916E+01  0.85865002780E+01  0.51100000000E-03 0. -1.
        -11    1    3    3    0    0  0.16824015158E+02  0.20463273896E+01 -0.14465209554E+02  0.22281768994E+02  0.51100000000E-03 0.  1.
        -12    1    3    3    0    0  0.69024761599E+01  0.45964505359E+01 -0.17826032505E+02  0.19660594333E+02  0.00000000000E+00 0.  1.
</event>
<event>
 7    1  0.6245487E-013  0.5052889E+02  0.7816164E-02  0.1300439E+00
        -11   -1    0    0    0    0  0.00000000000E+00  0.00000000000E+00  0.45593999997E+02  0.45594000000E+02  0.51100000000E-03 0.  1.
         11   -1    0    0    0    0 -0.00000000000E+00 -0.00000000000E+00 -0.45593999997E+02  0.45594000000E+02  0.51100000000E-03 0. -1.
    9900012    2    1    2    0    0 -0.13819684437E+02 -0.29135310956E+02  0.24765155224E+02  0.50528893570E+02  0.30000102496E+02 0.  0.
         12    1    1    2    0    0  0.13819684437E+02  0.29135310956E+02 -0.24765155224E+02  0.40659106430E+02  0.00000000000E+00 0. -1.
         11    1    3    3    0    0 -0.96672159505E+00 -0.36142039537E+01 -0.69012948187E+01  0.78501523104E+01  0.51100000000E-03 0. -1.
        -11    1    3    3    0    0 -0.14721120989E+01 -0.28097226549E+01  0.42374952668E+01  0.52932052507E+01  0.51100000000E-03 0.  1.
         12    1    3    3    0    0 -0.11380850743E+02 -0.22711384347E+02  0.27428954776E+02  0.37385536009E+02  0.00000000000E+00 0. -1.
</event>
<event>
 7    1  0.6245487E-013  0.5052886E+02  0.7816164E-02  0.1300439E+00
        -11   -1    0    0    0    0  0.00000000000E+00  0.00000000000E+00  0.45593999997E+02  0.45594000000E+02  0.51100000000E-03 0.  1.
         11   -1    0    0    0    0 -0.00000000000E+00 -0.00000000000E+00 -0.45593999997E+02  0.45594000000E+02  0.51100000000E-03 0. -1.
    9900012    2    1    2    0    0 -0.21355388035E+02  0.34050763314E+02  0.61366832075E+01  0.50528856365E+02  0.29999989406E+02 0.  0.
         12    1    1    2    0    0  0.21355388035E+02 -0.34050763314E+02 -0.61366832075E+01  0.40659143635E+02  0.00000000000E+00 0. -1.
         11    1    3    3    0    0  0.14867825596E+01  0.84645388221E+01 -0.47012876862E+01  0.97959709075E+01  0.51100000000E-03 0. -1.
        -11    1    3    3    0    0 -0.18540813100E+02  0.12434092421E+02 -0.12498254617E+01  0.22359124954E+02  0.51100000000E-03 0.  1.
         12    1    3    3    0    0 -0.43013574944E+01  0.13152132071E+02  0.12087796355E+02  0.18373760503E+02  0.00000000000E+00 0. -1.
</event>
<event>
 7    1  0.6245487E-013  0.5052886E+02  0.7816164E-02  0.1300439E+00
        -11   -1    0    0    0    0  0.00000000000E+00  0.00000000000E+00  0.45593999997E+02  0.45594000000E+02  0.51100000000E-03 0. -1.
         11   -1    0    0    0    0 -0.00000000000E+00 -0.00000000000E+00 -0.45593999997E+02  0.45594000000E+02  0.51100000000E-03 0.  1.
    9900012    2    1    2    0    0 -0.35926731146E+02  0.47513012786E+01  0.18435312693E+02  0.50528860452E+02  0.30000001830E+02 0.  0.
         12    1    1    2    0    0  0.35926731146E+02 -0.47513012786E+01 -0.18435312693E+02  0.40659139548E+02  0.00000000000E+00 0. -1.
         11    1    3    3    0    0 -0.28716852504E+02  0.15335282836E+02  0.10943796111E+02  0.34345235346E+02  0.51100000000E-03 0.  1.
        -11    1    3    3    0    0 -0.62847318492E+01 -0.47613230476E+01  0.20179609541E+01  0.81388093880E+01  0.51100000000E-03 0. -1.
        -12    1    3    3    0    0 -0.92514679263E+00 -0.58226585102E+01  0.54735556282E+01  0.80448157175E+01  0.00000000000E+00 0.  1.
</event>
<event>
 7    1  0.6245487E-013  0.5052887E+02  0.7816164E-02  0.1300439E+00
        -11   -1    0    0    0    0  0.00000000000E+00  0.00000000000E+00  0.45593999997E+02  0.45594000000E+02  0.51100000000E-03 0. -1.
         11   -1    0    0    0    0 -0.00000000000E+00 -0.00000000000E+00 -0.45593999997E+02  0.45594000000E+02  0.51100000000E-03 0.  1.
    9900012    2    1    2    0    0 -0.33572713100E+02  0.66525466647E+01 -0.21949515439E+02  0.50528872242E+02  0.30000037668E+02 0.  0.
         12    1    1    2    0    0  0.33572713100E+02 -0.66525466647E+01  0.21949515439E+02  0.40659127758E+02  0.00000000000E+00 0. -1.
         11    1    3    3    0    0 -0.66821038890E+01  0.53325616594E+01  0.89413921277E+00  0.85957088961E+01  0.51100000000E-03 0. -1.
        -11    1    3    3    0    0 -0.25330389351E+02 -0.35074763534E+01 -0.88694988191E+01  0.27066566547E+02  0.51100000000E-03 0.  1.
        -12    1    3    3    0    0 -0.15602198595E+01  0.48274613587E+01 -0.13974155832E+02  0.14866596800E+02  0.00000000000E+00 0.  1.
</event>
<event>
 7    1  0.6245487E-013  0.5052886E+02  0.7816164E-02  0.1300439E+00
        -11   -1    0    0    0    0  0.00000000000E+00  0.00000000000E+00  0.45593999997E+02  0.45594000000E+02  0.51100000000E-03 0.  1.
         11   -1    0    0    0    0 -0.00000000000E+00 -0.00000000000E+00 -0.45593999997E+02  0.45594000000E+02  0.51100000000E-03 0. -1.
    9900012    2    1    2    0    0  0.16495117002E+02  0.10034455895E+02  0.35782487300E+02  0.50528860961E+02  0.30000003376E+02 0.  0.
         12    1    1    2    0    0 -0.16495117002E+02 -0.10034455895E+02 -0.35782487300E+02  0.40659139039E+02  0.00000000000E+00 0. -1.
         11    1    3    3    0    0  0.70173121941E+01 -0.59998186323E+01  0.23719924316E+02  0.25453394742E+02  0.51100000000E-03 0. -1.
        -11    1    3    3    0    0  0.10514505436E+01  0.26817908295E+00 -0.20368083130E+01  0.23078250868E+01  0.51100000000E-03 0.  1.
        -12    1    3    3    0    0  0.84263542643E+01  0.15766095445E+02  0.14099371297E+02  0.22767641132E+02  0.00000000000E+00 0.  1.
</event>
<event>
 7    1  0.6245487E-013  0.5052886E+02  0.7816164E-02  0.1300439E+00
        -11   -1    0    0    0    0  0.00000000000E+00  0.00000000000E+00  0.45593999997E+02  0.45594000000E+02  0.51100000000E-03 0.  1.
         11   -1    0    0    0    0 -0.00000000000E+00 -0.00000000000E+00 -0.45593999997E+02  0.45594000000E+02  0.51100000000E-03 0. -1.
    9900012    2    1    2    0    0 -0.32485504992E+02 -0.21003099090E+02  0.12519083174E+02  0.50528860197E+02  0.30000001054E+02 0.  0.
         12    1    1    2    0    0  0.32485504992E+02  0.21003099090E+02 -0.12519083174E+02  0.40659139803E+02  0.00000000000E+00 0. -1.
         11    1    3    3    0    0 -0.19360754670E+02 -0.23204743080E+02  0.10743148950E+01  0.30239925191E+02  0.51100000000E-03 0. -1.
        -11    1    3    3    0    0 -0.94260557814E+01 -0.34149561240E+01  0.70107038757E+01  0.12233659388E+02  0.51100000000E-03 0.  1.
        -12    1    3    3    0    0 -0.36986945410E+01  0.56166001138E+01  0.44340644037E+01  0.80552756180E+01  0.00000000000E+00 0.  1.
</event>
<event>
 7    1  0.6245487E-013  0.5052886E+02  0.7816164E-02  0.1300439E+00
        -11   -1    0    0    0    0  0.00000000000E+00  0.00000000000E+00  0.45593999997E+02  0.45594000000E+02  0.51100000000E-03 0. -1.
         11   -1    0    0    0    0 -0.00000000000E+00 -0.00000000000E+00 -0.45593999997E+02  0.45594000000E+02  0.51100000000E-03 0.  1.
    9900012    2    1    2    0    0 -0.55663590630E+01 -0.28507947347E+01 -0.40175291910E+02  0.50528862480E+02  0.30000007995E+02 0.  0.
         12    1    1    2    0    0  0.55663590630E+01  0.28507947347E+01  0.40175291910E+02  0.40659137520E+02  0.00000000000E+00 0. -1.
         11    1    3    3    0    0  0.61385686651E+01 -0.99066687599E+01 -0.21258515211E+02  0.24243526567E+02  0.51100000000E-03 0. -1.
        -11    1    3    3    0    0 -0.50164824000E+01 -0.30802309964E+01 -0.43446775097E+01  0.73163612257E+01  0.51100000000E-03 0.  1.
         12    1    3    3    0    0 -0.66884453281E+01  0.10136105022E+02 -0.14572099189E+02  0.18968974687E+02  0.00000000000E+00 0. -1.
</event>
<event>
 7    1  0.6245487E-013  0.5052887E+02  0.7816164E-02  0.1300439E+00
        -11   -1    0    0    0    0  0.00000000000E+00  0.00000000000E+00  0.45593999997E+02  0.45594000000E+02  0.51100000000E-03 0.  1.
         11   -1    0    0    0    0 -0.00000000000E+00 -0.00000000000E+00 -0.45593999997E+02  0.45594000000E+02  0.51100000000E-03 0. -1.
    9900012    2    1    2    0    0 -0.39708909450E+02 -0.83542410293E+01  0.25640557661E+01  0.50528865542E+02  0.30000017302E+02 0.  0.
         12    1    1    2    0    0  0.39708909450E+02  0.83542410293E+01 -0.25640557661E+01  0.40659134458E+02  0.00000000000E+00 0. -1.
         11    1    3    3    0    0 -0.53746409843E+01  0.47313250217E+01 -0.36671235225E+01  0.80448739805E+01  0.51100000000E-03 0. -1.
        -11    1    3    3    0    0 -0.12186253161E+02 -0.13840241597E+02 -0.26103453263E+01  0.18624471981E+02  0.51100000000E-03 0.  1.
        -12    1    3    3    0    0 -0.22148015304E+02  0.75467554647E+00  0.88415246148E+01  0.23859519581E+02  0.00000000000E+00 0.  1.
</event>
<event>
 7    1  0.6245487E-013  0.5052889E+02  0.7816164E-02  0.1300439E+00
        -11   -1    0    0    0    0  0.00000000000E+00  0.00000000000E+00  0.45593999997E+02  0.45594000000E+02  0.51100000000E-03 0.  1.
         11   -1    0    0    0    0 -0.00000000000E+00 -0.00000000000E+00 -0.45593999997E+02  0.45594000000E+02  0.51100000000E-03 0. -1.
    9900012    2    1    2    0    0 -0.37011239831E+02  0.51062190110E+01 -0.16039269199E+02  0.50528886596E+02  0.30000081296E+02 0.  0.
         12    1    1    2    0    0  0.37011239831E+02 -0.51062190110E+01  0.16039269199E+02  0.40659113404E+02  0.00000000000E+00 0. -1.
         11    1    3    3    0    0 -0.35923061479E+01 -0.22891721287E+01  0.34018915374E+01  0.54514070467E+01  0.51100000000E-03 0. -1.
        -11    1    3    3    0    0 -0.31797825506E+02 -0.52540023494E+00 -0.11705874894E+02  0.33888128594E+02  0.51100000000E-03 0.  1.
        -12    1    3    3    0    0 -0.16211081770E+01  0.79207913747E+01 -0.77352858426E+01  0.11189350955E+02  0.00000000000E+00 0.  1.
</event>
<event>
 7    1  0.6245487E-013  0.5052884E+02  0.7816164E-02  0.1300439E+00
        -11   -1    0    0    0    0  0.00000000000E+00  0.00000000000E+00  0.45593999997E+02  0.45594000000E+02  0.51100000000E-03 0.  1.
         11   -1    0    0    0    0 -0.00000000000E+00 -0.00000000000E+00 -0.45593999997E+02  0.45594000000E+02  0.51100000000E-03 0. -1.
    9900012    2    1    2    0    0 -0.15477480295E+02  0.49719006558E+01  0.37267885320E+02  0.50528837826E+02  0.29999933057E+02 0.  0.
         12    1    1    2    0    0  0.15477480295E+02 -0.49719006558E+01 -0.37267885320E+02  0.40659162174E+02  0.00000000000E+00 0. -1.
         11    1    3    3    0    0 -0.16320515932E+01 -0.12122234798E+01 -0.29548786608E+00  0.20543591477E+01  0.51100000000E-03 0. -1.
        -11    1    3    3    0    0  0.32746774358E+01 -0.78417911114E+01  0.98926494506E+01  0.13041538006E+02  0.51100000000E-03 0.  1.
         12    1    3    3    0    0 -0.17120106138E+02  0.14025915247E+02  0.27670723736E+02  0.35432940673E+02  0.00000000000E+00 0. -1.
</event>
<event>
 7    1  0.6245487E-013  0.5052885E+02  0.7816164E-02  0.1300439E+00
        -11   -1    0    0    0    0  0.00000000000E+00  0.00000000000E+00  0.45593999997E+02  0.45594000000E+02  0.51100000000E-03 0. -1.
         11   -1    0    0    0    0 -0.00000000000E+00 -0.00000000000E+00 -0.45593999997E+02  0.45594000000E+02  0.51100000000E-03 0.  1.
    9900012    2    1    2    0    0  0.25721128421E+02 -0.31137709095E+02  0.46939305589E+01  0.50528851472E+02  0.29999974536E+02 0.  0.
         12    1    1    2    0    0 -0.25721128421E+02  0.31137709095E+02 -0.46939305589E+01  0.40659148528E+02  0.00000000000E+00 0. -1.
         11    1    3    3    0    0  0.20768432783E+02 -0.12910997345E+02 -0.32817795905E+01  0.24673705240E+02  0.51100000000E-03 0. -1.
        -11    1    3    3    0    0  0.14038286510E+01 -0.10222269975E+02 -0.39601692153E+01  0.11052080293E+02  0.51100000000E-03 0.  1.
        -12    1    3    3    0    0  0.35488669860E+01 -0.80044417743E+01  0.11935879365E+02  0.14803065940E+02  0.00000000000E+00 0.  1.
</event>
<event>
 7    1  0.6245487E-013  0.5052886E+02  0.7816164E-02  0.1300439E+00
        -11   -1    0    0    0    0  0.00000000000E+00  0.00000000000E+00  0.45593999997E+02  0.45594000000E+02  0.51100000000E-03 0. -1.
         11   -1    0    0    0    0 -0.00000000000E+00 -0.00000000000E+00 -0.45593999997E+02  0.45594000000E+02  0.51100000000E-03 0.  1.
    9900012    2    1    2    0    0 -0.35542146285E+02  0.14783116088E+02 -0.13091254409E+02  0.50528860489E+02  0.30000001942E+02 0.  0.
         12    1    1    2    0    0  0.35542146285E+02 -0.14783116088E+02  0.13091254409E+02  0.40659139511E+02  0.00000000000E+00 0. -1.
         11    1    3    3    0    0 -0.15869067435E+02 -0.52880005390E+01 -0.10402312082E+02  0.19697673666E+02  0.51100000000E-03 0. -1.
        -11    1    3    3    0    0 -0.12326376592E+02  0.39215860969E+01 -0.39259781475E+00  0.12941117831E+02  0.51100000000E-03 0.  1.
        -12    1    3    3    0    0 -0.73467022577E+01  0.16149530530E+02 -0.22963445122E+01  0.17890068992E+02  0.00000000000E+00 0.  1.
</event>
<event>
 7    1  0.6245487E-013  0.5052885E+02  0.7816164E-02  0.1300439E+00
        -11   -1    0    0    0    0  0.00000000000E+00  0.00000000000E+00  0.45593999997E+02  0.45594000000E+02  0.51100000000E-03 0. -1.
         11   -1    0    0    0    0 -0.00000000000E+00 -0.00000000000E+00 -0.45593999997E+02  0.45594000000E+02  0.51100000000E-03 0.  1.
    9900012    2    1    2    0    0 -0.31483126266E+02  0.98127554351E+01 -0.23784210933E+02  0.50528854677E+02  0.29999984276E+02 0.  0.
         12    1    1    2    0    0  0.31483126266E+02 -0.98127554351E+01  0.23784210933E+02  0.40659145323E+02  0.00000000000E+00 0. -1.
         11    1    3    3    0    0 -0.11277416473E+02 -0.17713267891E+01 -0.19400597676E+01  0.11579358923E+02  0.51100000000E-03 0. -1.
        -11    1    3    3    0    0 -0.14987565118E+02  0.11691057721E+02 -0.26049230555E+02  0.32247020817E+02  0.51100000000E-03 0.  1.
         12    1    3    3    0    0 -0.52181446751E+01 -0.10697549688E+00  0.42050793901E+01  0.67024749372E+01  0.00000000000E+00 0. -1.
</event>
<event>
 7    1  0.6245487E-013  0.5052886E+02  0.7816164E-02  0.1300439E+00
        -11   -1    0    0    0    0  0.00000000000E+00  0.00000000000E+00  0.45593999997E+02  0.45594000000E+02  0.51100000000E-03 0.  1.
         11   -1    0    0    0    0 -0.00000000000E+00 -0.00000000000E+00 -0.45593999997E+02  0.45594000000E+02  0.51100000000E-03 0. -1.
    9900012    2    1    2    0    0  0.85252852599E+01 -0.33633196750E+02  0.21196540226E+02  0.50528859208E+02  0.29999998050E+02 0.  0.
         12    1    1    2    0    0 -0.85252852599E+01  0.33633196750E+02 -0.21196540226E+02  0.40659140792E+02  0.00000000000E+00 0. -1.
         11    1    3    3    0    0 -0.41476050334E+01 -0.18437849398E+02 -0.25394571103E+01  0.19068449350E+02  0.51100000000E-03 0. -1.
        -11    1    3    3    0    0  0.72992027490E+01 -0.44832205929E+01  0.84030093195E+01  0.11999508054E+02  0.51100000000E-03 0.  1.
        -12    1    3    3    0    0  0.53736875443E+01 -0.10712126759E+02  0.15332988016E+02  0.19460901804E+02  0.00000000000E+00 0.  1.
</event>
<event>
 7    1  0.6245487E-013  0.5052881E+02  0.7816164E-02  0.1300439E+00
        -11   -1    0    0    0    0  0.00000000000E+00  0.00000000000E+00  0.45593999997E+02  0.45594000000E+02  0.51100000000E-03 0.  1.
         11   -1    0    0    0    0 -0.00000000000E+00 -0.00000000000E+00 -0.45593999997E+02  0.45594000000E+02  0.51100000000E-03 0. -1.
    9900012    2    1    2    0    0  0.22044265286E+02  0.27576172677E+02  0.20168668369E+02  0.50528805280E+02  0.29999834128E+02 0.  0.
         12    1    1    2    0    0 -0.22044265286E+02 -0.27576172677E+02 -0.20168668369E+02  0.40659194720E+02  0.00000000000E+00 0. -1.
         11    1    3    3    0    0  0.20645379574E+02  0.20509897655E+02  0.83790393613E+01  0.30283591274E+02  0.51100000000E-03 0. -1.
        -11    1    3    3    0    0  0.38425888367E+01 -0.21655397912E+01 -0.75946183422E+00  0.44756936997E+01  0.51100000000E-03 0.  1.
        -12    1    3    3    0    0 -0.24437031250E+01  0.92318148136E+01  0.12549090842E+02  0.15769520306E+02  0.00000000000E+00 0.  1.
</event>
<event>
 7    1  0.6245487E-013  0.5052887E+02  0.7816164E-02  0.1300439E+00
        -11   -1    0    0    0    0  0.00000000000E+00  0.00000000000E+00  0.45593999997E+02  0.45594000000E+02  0.51100000000E-03 0.  1.
         11   -1    0    0    0    0 -0.00000000000E+00 -0.00000000000E+00 -0.45593999997E+02  0.45594000000E+02  0.51100000000E-03 0. -1.
    9900012    2    1    2    0    0  0.12815920719E+02  0.14853865679E+02  0.35612912845E+02  0.50528871741E+02  0.30000036145E+02 0.  0.
         12    1    1    2    0    0 -0.12815920719E+02 -0.14853865679E+02 -0.35612912845E+02  0.40659128259E+02  0.00000000000E+00 0. -1.
         11    1    3    3    0    0  0.24579811722E+01  0.43865476522E+01 -0.38648403212E+00  0.50430984440E+01  0.51100000000E-03 0. -1.
        -11    1    3    3    0    0  0.16517639023E+02  0.22067280896E+01  0.16611245329E+02  0.23529460670E+02  0.51100000000E-03 0.  1.
        -12    1    3    3    0    0 -0.61596994768E+01  0.82605899375E+01  0.19388151548E+02  0.21956312627E+02  0.00000000000E+00 0.  1.
</event>
<event>
 7    1  0.6245487E-013  0.5052886E+02  0.7816164E-02  0.1300439E+00
        -11   -1    0    0    0    0  0.00000000000E+00  0.00000000000E+00  0.45593999997E+02  0.45594000000E+02  0.51100000000E-03 0.  1.
         11   -1    0    0    0    0 -0.00000000000E+00 -0.00000000000E+00 -0.45593999997E+02  0.45594000000E+02  0.51100000000E-03 0. -1.
    9900012    2    1    2    0    0  0.60563967312E+01 -0.18207222107E+02  0.35846656416E+02  0.50528860137E+02  0.30000000871E+02 0.  0.
         12    1    1    2    0    0 -0.60563967312E+01  0.18207222107E+02 -0.35846656416E+02  0.40659139863E+02  0.00000000000E+00 0. -1.
         11    1    3    3    0    0  0.94566487371E+01 -0.70480300104E+01  0.30501266948E+02  0.32702143937E+02  0.51100000000E-03 0. -1.
        -11    1    3    3    0    0 -0.27815408862E+01 -0.36338502343E+01  0.84920197709E+01  0.96465660874E+01  0.51100000000E-03 0.  1.
         12    1    3    3    0    0 -0.61871111965E+00 -0.75253418623E+01 -0.31466303030E+01  0.81801501122E+01  0.00000000000E+00 0. -1.
</event>
<event>
 7    1  0.6245487E-013  0.5052883E+02  0.7816164E-02  0.1300439E+00
        -11   -1    0    0    0    0  0.00000000000E+00  0.00000000000E+00  0.45593999997E+02  0.45594000000E+02  0.51100000000E-03 0. -1.
         11   -1    0    0    0    0 -0.00000000000E+00 -0.00000000000E+00 -0.45593999997E+02  0.45594000000E+02  0.51100000000E-03 0.  1.
    9900012    2    1    2    0    0  0.45431181094E+01 -0.37266040867E+02 -0.15613157880E+02  0.50528826091E+02  0.29999897385E+02 0.  0.
         12    1    1    2    0    0 -0.45431181094E+01  0.37266040867E+02  0.15613157880E+02  0.40659173909E+02  0.00000000000E+00 0. -1.
         11    1    3    3    0    0  0.45035299490E+00  0.63774517459E+00  0.25048430275E+01  0.26236950245E+01  0.51100000000E-03 0. -1.
        -11    1    3    3    0    0 -0.58736319062E+01 -0.25560714622E+02 -0.18400937182E+02  0.32038167444E+02  0.51100000000E-03 0.  1.
         12    1    3    3    0    0  0.99663970208E+01 -0.12343071419E+02  0.28293627499E+00  0.15866963622E+02  0.00000000000E+00 0. -1.
</event>
<event>
 7    1  0.6245487E-013  0.5052885E+02  0.7816164E-02  0.1300439E+00
        -11   -1    0    0    0    0  0.00000000000E+00  0.00000000000E+00  0.45593999997E+02  0.45594000000E+02  0.51100000000E-03 0.  1.
         11   -1    0    0    0    0 -0.00000000000E+00 -0.00000000000E+00 -0.45593999997E+02  0.45594000000E+02  0.51100000000E-03 0. -1.
    9900012    2    1    2    0    0 -0.15291641526E+02 -0.10699397937E+02  0.36122777189E+02  0.50528850371E+02  0.29999971186E+02 0.  0.
         12    1    1    2    0    0  0.15291641526E+02  0.10699397937E+02 -0.36122777189E+02  0.40659149629E+02  0.00000000000E+00 0. -1.
         11    1    3    3    0    0 -0.10647536215E+02 -0.89450699796E+01  0.18667193316E+02  0.23277637572E+02  0.51100000000E-03 0. -1.
        -11    1    3    3    0    0 -0.75491316723E+01 -0.72379055682E+01  0.20698791843E+01  0.10661194404E+02  0.51100000000E-03 0.  1.
        -12    1    3    3    0    0  0.29050263610E+01  0.54835776108E+01  0.15385704688E+02  0.16590018394E+02  0.00000000000E+00 0.  1.
</event>
<event>
 7    1  0.6245487E-013  0.5052885E+02  0.7816164E-02  0.1300439E+00
        -11   -1    0    0    0    0  0.00000000000E+00  0.00000000000E+00  0.45593999997E+02  0.45594000000E+02  0.51100000000E-03 0.  1.
         11   -1    0    0    0    0 -0.00000000000E+00 -0.00000000000E+00 -0.45593999997E+02  0.45594000000E+02  0.51100000000E-03 0. -1.
    9900012    2    1    2    0    0  0.57177658190E+01 -0.25911979605E+02  0.30806543473E+02  0.50528847848E+02  0.29999963518E+02 0.  0.
         12    1    1    2    0    0 -0.57177658190E+01  0.25911979605E+02 -0.30806543473E+02  0.40659152152E+02  0.00000000000E+00 0. -1.
         11    1    3    3    0    0 -0.46626807933E+01 -0.35119151590E+00 -0.11298509519E+01  0.48104564332E+01  0.51100000000E-03 0. -1.
        -11    1    3    3    0    0  0.13713464173E+01 -0.17935552951E+02  0.94417463245E+01  0.20315295335E+02  0.51100000000E-03 0.  1.
         12    1    3    3    0    0  0.90091001950E+01 -0.76252351380E+01  0.22494648101E+02  0.25403096079E+02  0.00000000000E+00 0. -1.
</event>
<event>
 7    1  0.6245487E-013  0.5052882E+02  0.7816164E-02  0.1300439E+00
        -11   -1    0    0    0    0  0.00000000000E+00  0.00000000000E+00  0.45593999997E+02  0.45594000000E+02  0.51100000000E-03 0. -1.
         11   -1    0    0    0    0 -0.00000000000E+00 -0.00000000000E+00 -0.45593999997E+02  0.45594000000E+02  0.51100000000E-03 0.  1.
    9900012    2    1    2    0    0  0.37406139028E+02 -0.14899906158E+02 -0.56517776153E+01  0.50528818618E+02  0.29999874670E+02 0.  0.
         12    1    1    2    0    0 -0.37406139028E+02  0.14899906158E+02  0.56517776153E+01  0.40659181382E+02  0.00000000000E+00 0. -1.
         11    1    3    3    0    0  0.15795467692E+02  0.75870249621E+01 -0.11414147789E+01  0.17560255561E+02  0.51100000000E-03 0. -1.
        -11    1    3    3    0    0  0.18198492577E+02 -0.13829607546E+02 -0.57809187459E+01  0.23576730027E+02  0.51100000000E-03 0.  1.
        -12    1    3    3    0    0  0.34121787581E+01 -0.86573235738E+01  0.12705559095E+01  0.93918330297E+01  0.00000000000E+00 0.  1.
</event>
<event>
 7    1  0.6245487E-013  0.5052886E+02  0.7816164E-02  0.1300439E+00
        -11   -1    0    0    0    0  0.00000000000E+00  0.00000000000E+00  0.45593999997E+02  0.45594000000E+02  0.51100000000E-03 0. -1.
         11   -1    0    0    0    0 -0.00000000000E+00 -0.00000000000E+00 -0.45593999997E+02  0.45594000000E+02  0.51100000000E-03 0.  1.
    9900012    2    1    2    0    0 -0.45405261262E+01 -0.10977285101E+02 -0.38885070386E+02  0.50528857552E+02  0.29999993016E+02 0.  0.
         12    1    1    2    0    0  0.45405261262E+01  0.10977285101E+02  0.38885070386E+02  0.40659142448E+02  0.00000000000E+00 0. -1.
         11    1    3    3    0    0 -0.50545184962E+01  0.36856262477E+00 -0.94278539078E+01  0.10703664102E+02  0.51100000000E-03 0. -1.
        -11    1    3    3    0    0  0.37187526352E+01 -0.12562173089E+02 -0.32625365170E+02  0.35157527880E+02  0.51100000000E-03 0.  1.
        -12    1    3    3    0    0 -0.32047602652E+01  0.12163253637E+01  0.31681486918E+01  0.46676655708E+01  0.00000000000E+00 0.  1.
</event>
<event>
 7    1  0.6245487E-013  0.5052887E+02  0.7816164E-02  0.1300439E+00
        -11   -1    0    0    0    0  0.00000000000E+00  0.00000000000E+00  0.45593999997E+02  0.45594000000E+02  0.51100000000E-03 0.  1.
         11   -1    0    0    0    0 -0.00000000000E+00 -0.00000000000E+00 -0.45593999997E+02  0.45594000000E+02  0.51100000000E-03 0. -1.
    9900012    2    1    2    0    0  0.26676979297E+01  0.21627634819E+02  0.34326282967E+02  0.50528869384E+02  0.30000028979E+02 0.  0.
         12    1    1    2    0    0 -0.26676979297E+01 -0.21627634819E+02 -0.34326282967E+02  0.40659130616E+02  0.00000000000E+00 0. -1.
         11    1    3    3    0    0 -0.56491522852E+01  0.11210258936E+02 -0.35376320015E+00  0.12558183612E+02  0.51100000000E-03 0. -1.
        -11    1    3    3    0    0  0.27697015818E+01  0.67493402100E+01  0.98012158094E+01  0.12218374349E+02  0.51100000000E-03 0.  1.
        -12    1    3    3    0    0  0.55471486332E+01  0.36680356725E+01  0.24878830358E+02  0.25752311423E+02  0.00000000000E+00 0.  1.
</event>
<event>
 7    1  0.6245487E-013  0.5052887E+02  0.7816164E-02  0.1300439E+00
        -11   -1    0    0    0    0  0.00000000000E+00  0.00000000000E+00  0.45593999997E+02  0.45594000000E+02  0.51100000000E-03 0.  1.
         11   -1    0    0    0    0 -0.00000000000E+00 -0.00000000000E+00 -0.45593999997E+02  0.45594000000E+02  0.51100000000E-03 0. -1.
    9900012    2    1    2    0    0 -0.31427307675E+02  0.15942040262E+02 -0.20281538325E+02  0.50528866804E+02  0.30000021138E+02 0.  0.
         12    1    1    2    0    0  0.31427307675E+02 -0.15942040262E+02  0.20281538325E+02  0.40659133196E+02  0.00000000000E+00 0. -1.
         11    1    3    3    0    0 -0.14251007874E+02  0.18025806678E+02 -0.15116848630E+02  0.27505273032E+02  0.51100000000E-03 0. -1.
        -11    1    3    3    0    0 -0.65135057661E+01  0.34546807472E+01  0.35475232317E+01  0.81820228410E+01  0.51100000000E-03 0.  1.
         12    1    3    3    0    0 -0.10662794035E+02 -0.55384471636E+01 -0.87122129268E+01  0.14841570931E+02  0.00000000000E+00 0. -1.
</event>
<event>
 7    1  0.6245487E-013  0.5052886E+02  0.7816164E-02  0.1300439E+00
        -11   -1    0    0    0    0  0.00000000000E+00  0.00000000000E+00  0.45593999997E+02  0.45594000000E+02  0.51100000000E-03 0.  1.
         11   -1    0    0    0    0 -0.00000000000E+00 -0.00000000000E+00 -0.45593999997E+02  0.45594000000E+02  0.51100000000E-03 0. -1.
    9900012    2    1    2    0    0 -0.34486553254E+02 -0.21476774786E+02 -0.16097030163E+01  0.50528863827E+02  0.30000012087E+02 0.  0.
         12    1    1    2    0    0  0.34486553254E+02  0.21476774786E+02  0.16097030163E+01  0.40659136173E+02  0.00000000000E+00 0. -1.
         11    1    3    3    0    0 -0.38743674743E+01 -0.23860079327E+01  0.10035556075E+02  0.11018899364E+02  0.51100000000E-03 0. -1.
        -11    1    3    3    0    0 -0.99883402920E+01 -0.78854086641E+01  0.11497799686E+01  0.12777660421E+02  0.51100000000E-03 0.  1.
         12    1    3    3    0    0 -0.20623845488E+02 -0.11205358190E+02 -0.12795039060E+02  0.26732304042E+02  0.00000000000E+00 0. -1.
</event>
<event>
 7    1  0.6245487E-013  0.5052886E+02  0.7816164E-02  0.1300439E+00
        -11   -1    0    0    0    0  0.00000000000E+00  0.00000000000E+00  0.45593999997E+02  0.45594000000E+02  0.51100000000E-03 0. -1.
         11   -1    0    0    0    0 -0.00000000000E+00 -0.00000000000E+00 -0.45593999997E+02  0.45594000000E+02  0.51100000000E-03 0.  1.
    9900012    2    1    2    0    0 -0.12519270076E+02 -0.38640412777E+02  0.18308697766E+01  0.50528859491E+02  0.29999998908E+02 0.  0.
         12    1    1    2    0    0  0.12519270076E+02  0.38640412777E+02 -0.18308697766E+01  0.40659140509E+02  0.00000000000E+00 0. -1.
         11    1    3    3    0    0 -0.58093706689E+01 -0.16922877298E+02 -0.27169493370E+00  0.17894311442E+02  0.51100000000E-03 0. -1.
        -11    1    3    3    0    0 -0.14648919969E+02 -0.10208991242E+02  0.45849816301E+01  0.18434652566E+02  0.51100000000E-03 0.  1.
         12    1    3    3    0    0  0.79390205617E+01 -0.11508544237E+02 -0.24824169197E+01  0.14199895482E+02  0.00000000000E+00 0. -1.
</event>
<event>
 7    1  0.6245487E-013  0.5052886E+02  0.7816164E-02  0.1300439E+00
        -11   -1    0    0    0    0  0.00000000000E+00  0.00000000000E+00  0.45593999997E+02  0.45594000000E+02  0.51100000000E-03 0.  1.
         11   -1    0    0    0    0 -0.00000000000E+00 -0.00000000000E+00 -0.45593999997E+02  0.45594000000E+02  0.51100000000E-03 0. -1.
    9900012    2    1    2    0    0 -0.29737260604E+02  0.14908779379E+02  0.23379242223E+02  0.50528864031E+02  0.30000012710E+02 0.  0.
         12    1    1    2    0    0  0.29737260604E+02 -0.14908779379E+02 -0.23379242223E+02  0.40659135969E+02  0.00000000000E+00 0. -1.
         11    1    3    3    0    0 -0.19529243237E-03  0.27987365506E+01  0.11945154492E+02  0.12268644685E+02  0.51100000000E-03 0. -1.
        -11    1    3    3    0    0 -0.18785683812E+02 -0.14953698660E+01  0.79361111686E+01  0.20447980538E+02  0.51100000000E-03 0.  1.
         12    1    3    3    0    0 -0.10951381499E+02  0.13605412694E+02  0.34979765619E+01  0.17812238808E+02  0.00000000000E+00 0. -1.
</event>
<event>
 7    1  0.6245487E-013  0.5052886E+02  0.7816164E-02  0.1300439E+00
        -11   -1    0    0    0    0  0.00000000000E+00  0.00000000000E+00  0.45593999997E+02  0.45594000000E+02  0.51100000000E-03 0.  1.
         11   -1    0    0    0    0 -0.00000000000E+00 -0.00000000000E+00 -0.45593999997E+02  0.45594000000E+02  0.51100000000E-03 0. -1.
    9900012    2    1    2    0    0  0.20462166822E+02  0.28069278537E+02 -0.21132460314E+02  0.50528861451E+02  0.30000004867E+02 0.  0.
         12    1    1    2    0    0 -0.20462166822E+02 -0.28069278537E+02  0.21132460314E+02  0.40659138549E+02  0.00000000000E+00 0. -1.
         11    1    3    3    0    0  0.13415885141E+02  0.18733309830E+01 -0.34627027954E+01  0.13981618433E+02  0.51100000000E-03 0. -1.
        -11    1    3    3    0    0  0.41553838568E+01 -0.63840808102E+00  0.14788249449E+00  0.42067385667E+01  0.51100000000E-03 0.  1.
        -12    1    3    3    0    0  0.28908978241E+01  0.26834355635E+02 -0.17817640013E+02  0.32340504452E+02  0.00000000000E+00 0.  1.
</event>
<event>
 7    1  0.6245487E-013  0.5052887E+02  0.7816164E-02  0.1300439E+00
        -11   -1    0    0    0    0  0.00000000000E+00  0.00000000000E+00  0.45593999997E+02  0.45594000000E+02  0.51100000000E-03 0.  1.
         11   -1    0    0    0    0 -0.00000000000E+00 -0.00000000000E+00 -0.45593999997E+02  0.45594000000E+02  0.51100000000E-03 0. -1.
    9900012    2    1    2    0    0 -0.31339792132E+02  0.18704997932E+02 -0.17919420529E+02  0.50528866333E+02  0.30000019705E+02 0.  0.
         12    1    1    2    0    0  0.31339792132E+02 -0.18704997932E+02  0.17919420529E+02  0.40659133667E+02  0.00000000000E+00 0. -1.
         11    1    3    3    0    0 -0.18094427364E+02  0.15245246725E+02  0.69195403843E-01  0.23660740428E+02  0.51100000000E-03 0. -1.
        -11    1    3    3    0    0  0.46515345366E+00 -0.50527779729E-01  0.21797882604E+01  0.22294389234E+01  0.51100000000E-03 0.  1.
         12    1    3    3    0    0 -0.13710518222E+02  0.35102789861E+01 -0.20168404193E+02  0.24638686981E+02  0.00000000000E+00 0. -1.
</event>
<event>
 7    1  0.6245487E-013  0.5052885E+02  0.7816164E-02  0.1300439E+00
        -11   -1    0    0    0    0  0.00000000000E+00  0.00000000000E+00  0.45593999997E+02  0.45594000000E+02  0.51100000000E-03 0.  1.
         11   -1    0    0    0    0 -0.00000000000E+00 -0.00000000000E+00 -0.45593999997E+02  0.45594000000E+02  0.51100000000E-03 0. -1.
    9900012    2    1    2    0    0  0.31302958714E+02  0.25937487138E+02 -0.73353721203E+00  0.50528849245E+02  0.29999967766E+02 0.  0.
         12    1    1    2    0    0 -0.31302958714E+02 -0.25937487138E+02  0.73353721203E+00  0.40659150755E+02  0.00000000000E+00 0. -1.
         11    1    3    3    0    0  0.13652012847E+01  0.78322707816E+00 -0.40792401332E+01  0.43723471418E+01  0.51100000000E-03 0. -1.
        -11    1    3    3    0    0  0.16745545349E+01  0.76150230111E+01  0.95407087190E+01  0.12321437882E+02  0.51100000000E-03 0.  1.
         12    1    3    3    0    0  0.28263202894E+02  0.17539237048E+02 -0.61950057979E+01  0.33835064222E+02  0.00000000000E+00 0. -1.
</event>
<event>
 7    1  0.6245487E-013  0.5052885E+02  0.7816164E-02  0.1300439E+00
        -11   -1    0    0    0    0  0.00000000000E+00  0.00000000000E+00  0.45593999997E+02  0.45594000000E+02  0.51100000000E-03 0.  1.
         11   -1    0    0    0    0 -0.00000000000E+00 -0.00000000000E+00 -0.45593999997E+02  0.45594000000E+02  0.51100000000E-03 0. -1.
    9900012    2    1    2    0    0 -0.10581046247E+02  0.12566948364E+02  0.37192465086E+02  0.50528853550E+02  0.29999980850E+02 0.  0.
         12    1    1    2    0    0  0.10581046247E+02 -0.12566948364E+02 -0.37192465086E+02  0.40659146450E+02  0.00000000000E+00 0. -1.
         11    1    3    3    0    0 -0.15695449357E+02  0.32769495199E+01  0.15824133857E+02  0.22527510765E+02  0.51100000000E-03 0.  1.
        -11    1    3    3    0    0 -0.36176863253E+00 -0.37509084277E+01  0.29898237870E+01  0.48103260924E+01  0.51100000000E-03 0. -1.
         12    1    3    3    0    0  0.54761717432E+01  0.13040907272E+02  0.18378507442E+02  0.23191016692E+02  0.00000000000E+00 0. -1.
</event>
<event>
 7    1  0.6245487E-013  0.5052886E+02  0.7816164E-02  0.1300439E+00
        -11   -1    0    0    0    0  0.00000000000E+00  0.00000000000E+00  0.45593999997E+02  0.45594000000E+02  0.51100000000E-03 0.  1.
         11   -1    0    0    0    0 -0.00000000000E+00 -0.00000000000E+00 -0.45593999997E+02  0.45594000000E+02  0.51100000000E-03 0. -1.
    9900012    2    1    2    0    0  0.36854585117E+01  0.25878624737E+02  0.31142889166E+02  0.50528863655E+02  0.30000011566E+02 0.  0.
         12    1    1    2    0    0 -0.36854585117E+01 -0.25878624737E+02 -0.31142889166E+02  0.40659136345E+02  0.00000000000E+00 0. -1.
         11    1    3    3    0    0  0.17547431561E+01 -0.24253212467E+01  0.10666727986E+02  0.11078826332E+02  0.51100000000E-03 0. -1.
        -11    1    3    3    0    0  0.99647446414E+01  0.17878582391E+02  0.13856890949E+02  0.24717468947E+02  0.51100000000E-03 0.  1.
         12    1    3    3    0    0 -0.80340292858E+01  0.10425363592E+02  0.66192702310E+01  0.14732568377E+02  0.00000000000E+00 0. -1.
</event>
<event>
 7    1  0.6245487E-013  0.5052887E+02  0.7816164E-02  0.1300439E+00
        -11   -1    0    0    0    0  0.00000000000E+00  0.00000000000E+00  0.45593999997E+02  0.45594000000E+02  0.51100000000E-03 0.  1.
         11   -1    0    0    0    0 -0.00000000000E+00 -0.00000000000E+00 -0.45593999997E+02  0.45594000000E+02  0.51100000000E-03 0. -1.
    9900012    2    1    2    0    0  0.27334757056E+02  0.81369259107E+00  0.30088434107E+02  0.50528869341E+02  0.30000028848E+02 0.  0.
         12    1    1    2    0    0 -0.27334757056E+02 -0.81369259107E+00 -0.30088434107E+02  0.40659130659E+02  0.00000000000E+00 0. -1.
         11    1    3    3    0    0  0.16957408052E+02  0.13400650703E+02  0.15663511118E+02  0.26692259325E+02  0.51100000000E-03 0. -1.
        -11    1    3    3    0    0  0.36457484783E+01 -0.32206317226E+01 -0.59279872490E+00  0.49005470357E+01  0.51100000000E-03 0.  1.
        -12    1    3    3    0    0  0.67316005260E+01 -0.93663263896E+01  0.15017721714E+02  0.18936062980E+02  0.00000000000E+00 0.  1.
</event>
<event>
 7    1  0.6245487E-013  0.5052886E+02  0.7816164E-02  0.1300439E+00
        -11   -1    0    0    0    0  0.00000000000E+00  0.00000000000E+00  0.45593999997E+02  0.45594000000E+02  0.51100000000E-03 0.  1.
         11   -1    0    0    0    0 -0.00000000000E+00 -0.00000000000E+00 -0.45593999997E+02  0.45594000000E+02  0.51100000000E-03 0. -1.
    9900012    2    1    2    0    0  0.24634152101E+02 -0.61375269718E+01  0.31759331883E+02  0.50528857747E+02  0.29999993608E+02 0.  0.
         12    1    1    2    0    0 -0.24634152101E+02  0.61375269718E+01 -0.31759331883E+02  0.40659142253E+02  0.00000000000E+00 0. -1.
         11    1    3    3    0    0  0.77874292893E+01  0.42257565768E+01  0.21014210458E+01  0.91058796530E+01  0.51100000000E-03 0. -1.
        -11    1    3    3    0    0  0.13524961039E+02  0.33234594256E+01  0.19897442105E+02  0.24287407359E+02  0.51100000000E-03 0.  1.
        -12    1    3    3    0    0  0.33217617726E+01 -0.13686742974E+02  0.97604687330E+01  0.17135570735E+02  0.00000000000E+00 0.  1.
</event>
<event>
 7    1  0.6245487E-013  0.5052886E+02  0.7816164E-02  0.1300439E+00
        -11   -1    0    0    0    0  0.00000000000E+00  0.00000000000E+00  0.45593999997E+02  0.45594000000E+02  0.51100000000E-03 0.  1.
         11   -1    0    0    0    0 -0.00000000000E+00 -0.00000000000E+00 -0.45593999997E+02  0.45594000000E+02  0.51100000000E-03 0. -1.
    9900012    2    1    2    0    0 -0.17201959141E+02 -0.15402745447E+02  0.33466606622E+02  0.50528859277E+02  0.29999998257E+02 0.  0.
         12    1    1    2    0    0  0.17201959141E+02  0.15402745447E+02 -0.33466606622E+02  0.40659140723E+02  0.00000000000E+00 0. -1.
         11    1    3    3    0    0 -0.14933914377E+02  0.49739949643E+01  0.17887468724E+02  0.23826958726E+02  0.51100000000E-03 0.  1.
        -11    1    3    3    0    0  0.23612113780E+01 -0.99248442097E+01  0.64182687984E+01  0.12052884567E+02  0.51100000000E-03 0. -1.
        -12    1    3    3    0    0 -0.46292561426E+01 -0.10451896201E+02  0.91608690996E+01  0.14649015984E+02  0.00000000000E+00 0.  1.
</event>
<event>
 7    1  0.6245487E-013  0.5052886E+02  0.7816164E-02  0.1300439E+00
        -11   -1    0    0    0    0  0.00000000000E+00  0.00000000000E+00  0.45593999997E+02  0.45594000000E+02  0.51100000000E-03 0.  1.
         11   -1    0    0    0    0 -0.00000000000E+00 -0.00000000000E+00 -0.45593999997E+02  0.45594000000E+02  0.51100000000E-03 0. -1.
    9900012    2    1    2    0    0 -0.10646642216E+02 -0.17072363945E+02  0.35331979273E+02  0.50528863751E+02  0.30000011858E+02 0.  0.
         12    1    1    2    0    0  0.10646642216E+02  0.17072363945E+02 -0.35331979273E+02  0.40659136249E+02  0.00000000000E+00 0. -1.
         11    1    3    3    0    0 -0.50576960785E+01 -0.77421040656E+01  0.12921633455E+01  0.93375666722E+01  0.51100000000E-03 0.  1.
        -11    1    3    3    0    0 -0.12320700679E+01 -0.14673699806E+02  0.15353253430E+02  0.21273407198E+02  0.51100000000E-03 0. -1.
         12    1    3    3    0    0 -0.43568760697E+01  0.53434399269E+01  0.18686562498E+02  0.19917889881E+02  0.00000000000E+00 0. -1.
</event>
<event>
 7    1  0.6245487E-013  0.5052884E+02  0.7816164E-02  0.1300439E+00
        -11   -1    0    0    0    0  0.00000000000E+00  0.00000000000E+00  0.45593999997E+02  0.45594000000E+02  0.51100000000E-03 0.  1.
         11   -1    0    0    0    0 -0.00000000000E+00 -0.00000000000E+00 -0.45593999997E+02  0.45594000000E+02  0.51100000000E-03 0. -1.
    9900012    2    1    2    0    0 -0.20284928791E+02 -0.40437079168E+01  0.35004815115E+02  0.50528843700E+02  0.29999950911E+02 0.  0.
         12    1    1    2    0    0  0.20284928791E+02  0.40437079168E+01 -0.35004815115E+02  0.40659156300E+02  0.00000000000E+00 0. -1.
         11    1    3    3    0    0 -0.86263464252E+01  0.20849794374E+01  0.41738073347E+01  0.98072248791E+01  0.51100000000E-03 0. -1.
        -11    1    3    3    0    0 -0.70304274175E+01  0.72994093394E+01  0.21382628795E+02  0.23662736546E+02  0.51100000000E-03 0.  1.
        -12    1    3    3    0    0 -0.46281549478E+01 -0.13428096694E+02  0.94483789851E+01  0.17058882275E+02  0.00000000000E+00 0.  1.
</event>
<event>
 7    1  0.6245487E-013  0.5052881E+02  0.7816164E-02  0.1300439E+00
        -11   -1    0    0    0    0  0.00000000000E+00  0.00000000000E+00  0.45593999997E+02  0.45594000000E+02  0.51100000000E-03 0.  1.
         11   -1    0    0    0    0 -0.00000000000E+00 -0.00000000000E+00 -0.45593999997E+02  0.45594000000E+02  0.51100000000E-03 0. -1.
    9900012    2    1    2    0    0  0.23670599819E+02  0.21204685144E+02  0.25362051888E+02  0.50528811077E+02  0.29999851751E+02 0.  0.
         12    1    1    2    0    0 -0.23670599819E+02 -0.21204685144E+02 -0.25362051888E+02  0.40659188923E+02  0.00000000000E+00 0. -1.
         11    1    3    3    0    0  0.90057625051E+01  0.12719392606E+02  0.26617513482E+02  0.30844427873E+02  0.51100000000E-03 0. -1.
        -11    1    3    3    0    0  0.40560369943E+01  0.78191816061E+01 -0.19857614167E+01  0.90296337552E+01  0.51100000000E-03 0.  1.
        -12    1    3    3    0    0  0.10608800320E+02  0.66611093141E+00  0.73029982316E+00  0.10654749450E+02  0.00000000000E+00 0.  1.
</event>
<event>
 7    1  0.6245487E-013  0.5052886E+02  0.7816164E-02  0.1300439E+00
        -11   -1    0    0    0    0  0.00000000000E+00  0.00000000000E+00  0.45593999997E+02  0.45594000000E+02  0.51100000000E-03 0.  1.
         11   -1    0    0    0    0 -0.00000000000E+00 -0.00000000000E+00 -0.45593999997E+02  0.45594000000E+02  0.51100000000E-03 0. -1.
    9900012    2    1    2    0    0 -0.36106734644E+02  0.90977931117E+01  0.16330937042E+02  0.50528860427E+02  0.30000001754E+02 0.  0.
         12    1    1    2    0    0  0.36106734644E+02 -0.90977931117E+01 -0.16330937042E+02  0.40659139573E+02  0.00000000000E+00 0. -1.
         11    1    3    3    0    0 -0.30595527019E+01 -0.46543966183E+01 -0.18248277511E+01  0.58612513339E+01  0.51100000000E-03 0. -1.
        -11    1    3    3    0    0 -0.21173182770E+01  0.80465178949E+01 -0.62076331572E-01  0.83206574651E+01  0.51100000000E-03 0.  1.
        -12    1    3    3    0    0 -0.30929863665E+02  0.57056718351E+01  0.18217841125E+02  0.36346951628E+02  0.00000000000E+00 0.  1.
</event>
<event>
 7    1  0.6245487E-013  0.5052888E+02  0.7816164E-02  0.1300439E+00
        -11   -1    0    0    0    0  0.00000000000E+00  0.00000000000E+00  0.45593999997E+02  0.45594000000E+02  0.51100000000E-03 0. -1.
         11   -1    0    0    0    0 -0.00000000000E+00 -0.00000000000E+00 -0.45593999997E+02  0.45594000000E+02  0.51100000000E-03 0.  1.
    9900012    2    1    2    0    0 -0.21991906306E+02  0.26162004478E+02 -0.22024303806E+02  0.50528875816E+02  0.30000048530E+02 0.  0.
         12    1    1    2    0    0  0.21991906306E+02 -0.26162004478E+02  0.22024303806E+02  0.40659124184E+02  0.00000000000E+00 0. -1.
         11    1    3    3    0    0 -0.14835351028E+01  0.65242835393E+01 -0.13480116735E+02  0.15049275715E+02  0.51100000000E-03 0. -1.
        -11    1    3    3    0    0 -0.18319343311E+01  0.12531751987E+02 -0.89243665312E+01  0.15493389220E+02  0.51100000000E-03 0.  1.
         12    1    3    3    0    0 -0.18676436872E+02  0.71059689518E+01  0.38017946003E+00  0.19986210881E+02  0.00000000000E+00 0. -1.
</event>
<event>
 7    1  0.6245487E-013  0.5052886E+02  0.7816164E-02  0.1300439E+00
        -11   -1    0    0    0    0  0.00000000000E+00  0.00000000000E+00  0.45593999997E+02  0.45594000000E+02  0.51100000000E-03 0.  1.
         11   -1    0    0    0    0 -0.00000000000E+00 -0.00000000000E+00 -0.45593999997E+02  0.45594000000E+02  0.51100000000E-03 0. -1.
    9900012    2    1    2    0    0 -0.38177722029E+02  0.38595109802E+01  0.13443641365E+02  0.50528858624E+02  0.29999996272E+02 0.  0.
         12    1    1    2    0    0  0.38177722029E+02 -0.38595109802E+01 -0.13443641365E+02  0.40659141376E+02  0.00000000000E+00 0. -1.
         11    1    3    3    0    0 -0.13197962685E+02 -0.55610245931E+00 -0.32557124392E+01  0.13604967208E+02  0.51100000000E-03 0. -1.
        -11    1    3    3    0    0 -0.25025863835E+02 -0.28345185460E+01  0.15505014394E+02  0.29575899441E+02  0.51100000000E-03 0.  1.
         12    1    3    3    0    0  0.46104492090E-01  0.72501319855E+01  0.11943394102E+01  0.73479919746E+01  0.00000000000E+00 0. -1.
</event>
<event>
 7    1  0.6245487E-013  0.5052887E+02  0.7816164E-02  0.1300439E+00
        -11   -1    0    0    0    0  0.00000000000E+00  0.00000000000E+00  0.45593999997E+02  0.45594000000E+02  0.51100000000E-03 0.  1.
         11   -1    0    0    0    0 -0.00000000000E+00 -0.00000000000E+00 -0.45593999997E+02  0.45594000000E+02  0.51100000000E-03 0. -1.
    9900012    2    1    2    0    0  0.35502517529E+02 -0.14927936511E+02  0.13034293969E+02  0.50528869923E+02  0.30000030617E+02 0.  0.
         12    1    1    2    0    0 -0.35502517529E+02  0.14927936511E+02 -0.13034293969E+02  0.40659130077E+02  0.00000000000E+00 0. -1.
         11    1    3    3    0    0  0.13684980723E+01 -0.58537595366E+00 -0.16047834780E+01  0.21887855658E+01  0.51100000000E-03 0. -1.
        -11    1    3    3    0    0  0.18108858275E+02 -0.18325401067E+02  0.18077819802E+02  0.31473141587E+02  0.51100000000E-03 0.  1.
        -12    1    3    3    0    0  0.16025161182E+02  0.39828405093E+01 -0.34387423552E+01  0.16866942770E+02  0.00000000000E+00 0.  1.
</event>
<event>
 7    1  0.6245487E-013  0.5052887E+02  0.7816164E-02  0.1300439E+00
        -11   -1    0    0    0    0  0.00000000000E+00  0.00000000000E+00  0.45593999997E+02  0.45594000000E+02  0.51100000000E-03 0. -1.
         11   -1    0    0    0    0 -0.00000000000E+00 -0.00000000000E+00 -0.45593999997E+02  0.45594000000E+02  0.51100000000E-03 0.  1.
    9900012    2    1    2    0    0 -0.72322497052E+01 -0.27079975457E+01 -0.39918998013E+02  0.50528867091E+02  0.30000022011E+02 0.  0.
         12    1    1    2    0    0  0.72322497052E+01  0.27079975457E+01  0.39918998013E+02  0.40659132909E+02  0.00000000000E+00 0. -1.
         11    1    3    3    0    0  0.13308506885E+01  0.76366722448E+01 -0.16035091923E+02  0.17810505320E+02  0.51100000000E-03 0. -1.
        -11    1    3    3    0    0 -0.96146851165E+01 -0.47893958291E+00 -0.19747614752E+02  0.21969065562E+02  0.51100000000E-03 0.  1.
        -12    1    3    3    0    0  0.10515847228E+01 -0.98657302077E+01 -0.41362913385E+01  0.10749296209E+02  0.00000000000E+00 0.  1.
</event>
<event>
 7    1  0.6245487E-013  0.5052886E+02  0.7816164E-02  0.1300439E+00
        -11   -1    0    0    0    0  0.00000000000E+00  0.00000000000E+00  0.45593999997E+02  0.45594000000E+02  0.51100000000E-03 0.  1.
         11   -1    0    0    0    0 -0.00000000000E+00 -0.00000000000E+00 -0.45593999997E+02  0.45594000000E+02  0.51100000000E-03 0. -1.
    9900012    2    1    2    0    0  0.91150911380E+01  0.13385185377E+02  0.37295007045E+02  0.50528860504E+02  0.30000001989E+02 0.  0.
         12    1    1    2    0    0 -0.91150911380E+01 -0.13385185377E+02 -0.37295007045E+02  0.40659139496E+02  0.00000000000E+00 0. -1.
         11    1    3    3    0    0  0.66047407447E+01  0.68935644646E+01  0.14173863969E+02  0.17089243735E+02  0.51100000000E-03 0.  1.
        -11    1    3    3    0    0  0.11251819695E+02 -0.23114580454E+01  0.86552936383E+01  0.14382642072E+02  0.51100000000E-03 0. -1.
        -12    1    3    3    0    0 -0.87414693018E+01  0.88030789578E+01  0.14465849437E+02  0.19056974698E+02  0.00000000000E+00 0.  1.
</event>
<event>
 7    1  0.6245487E-013  0.5052886E+02  0.7816164E-02  0.1300439E+00
        -11   -1    0    0    0    0  0.00000000000E+00  0.00000000000E+00  0.45593999997E+02  0.45594000000E+02  0.51100000000E-03 0. -1.
         11   -1    0    0    0    0 -0.00000000000E+00 -0.00000000000E+00 -0.45593999997E+02  0.45594000000E+02  0.51100000000E-03 0.  1.
    9900012    2    1    2    0    0  0.37603640686E+02  0.63120308709E+01  0.14117011857E+02  0.50528861416E+02  0.30000004761E+02 0.  0.
         12    1    1    2    0    0 -0.37603640686E+02 -0.63120308709E+01 -0.14117011857E+02  0.40659138584E+02  0.00000000000E+00 0. -1.
         11    1    3    3    0    0  0.12197697995E+02 -0.55949785382E+01 -0.16142195030E+01  0.13516409512E+02  0.51100000000E-03 0.  1.
        -11    1    3    3    0    0  0.55362083827E+00  0.55328100195E+00  0.87857224864E+01  0.88205178855E+01  0.51100000000E-03 0. -1.
        -12    1    3    3    0    0  0.24852321853E+02  0.11353728407E+02  0.69455088740E+01  0.28191934019E+02  0.00000000000E+00 0.  1.
</event>
<event>
 7    1  0.6245487E-013  0.5052886E+02  0.7816164E-02  0.1300439E+00
        -11   -1    0    0    0    0  0.00000000000E+00  0.00000000000E+00  0.45593999997E+02  0.45594000000E+02  0.51100000000E-03 0. -1.
         11   -1    0    0    0    0 -0.00000000000E+00 -0.00000000000E+00 -0.45593999997E+02  0.45594000000E+02  0.51100000000E-03 0.  1.
    9900012    2    1    2    0    0  0.13335144558E+02 -0.23048854695E+02 -0.30726043945E+02  0.50528861303E+02  0.30000004415E+02 0.  0.
         12    1    1    2    0    0 -0.13335144558E+02  0.23048854695E+02  0.30726043945E+02  0.40659138697E+02  0.00000000000E+00 0. -1.
         11    1    3    3    0    0  0.21468001751E+01 -0.10512899230E+02 -0.33498187945E+01  0.11240599959E+02  0.51100000000E-03 0. -1.
        -11    1    3    3    0    0  0.12793837424E+02 -0.17725113512E+02 -0.25391732663E+02  0.33505253513E+02  0.51100000000E-03 0.  1.
        -12    1    3    3    0    0 -0.16054930417E+01  0.51891580470E+01 -0.19844924866E+01  0.57830078309E+01  0.00000000000E+00 0.  1.
</event>
<event>
 7    1  0.6245487E-013  0.5052886E+02  0.7816164E-02  0.1300439E+00
        -11   -1    0    0    0    0  0.00000000000E+00  0.00000000000E+00  0.45593999997E+02  0.45594000000E+02  0.51100000000E-03 0.  1.
         11   -1    0    0    0    0 -0.00000000000E+00 -0.00000000000E+00 -0.45593999997E+02  0.45594000000E+02  0.51100000000E-03 0. -1.
    9900012    2    1    2    0    0 -0.26093134286E+02 -0.15432206374E+02  0.27095411044E+02  0.50528856501E+02  0.29999989822E+02 0.  0.
         12    1    1    2    0    0  0.26093134286E+02  0.15432206374E+02 -0.27095411044E+02  0.40659143499E+02  0.00000000000E+00 0. -1.
         11    1    3    3    0    0 -0.41037020499E+01  0.12681442503E+01  0.10329746645E+02  0.11187145586E+02  0.51100000000E-03 0. -1.
        -11    1    3    3    0    0 -0.68232990683E+01 -0.11693175474E+02  0.18878607160E+02  0.23231219757E+02  0.51100000000E-03 0.  1.
         12    1    3    3    0    0 -0.15166133167E+02 -0.50071751502E+01 -0.21129427617E+01  0.16110491158E+02  0.00000000000E+00 0. -1.
</event>
<event>
 7    1  0.6245487E-013  0.5052889E+02  0.7816164E-02  0.1300439E+00
        -11   -1    0    0    0    0  0.00000000000E+00  0.00000000000E+00  0.45593999997E+02  0.45594000000E+02  0.51100000000E-03 0.  1.
         11   -1    0    0    0    0 -0.00000000000E+00 -0.00000000000E+00 -0.45593999997E+02  0.45594000000E+02  0.51100000000E-03 0. -1.
    9900012    2    1    2    0    0  0.28359318343E+02  0.45355115377E+01  0.28780925251E+02  0.50528887121E+02  0.30000082892E+02 0.  0.
         12    1    1    2    0    0 -0.28359318343E+02 -0.45355115377E+01 -0.28780925251E+02  0.40659112879E+02  0.00000000000E+00 0. -1.
         11    1    3    3    0    0  0.10939347560E+02  0.27942942756E+01  0.41483431741E+01  0.12028555894E+02  0.51100000000E-03 0. -1.
        -11    1    3    3    0    0  0.13774394023E+02 -0.10176680816E+02  0.14298039833E+02  0.22309923946E+02  0.51100000000E-03 0.  1.
        -12    1    3    3    0    0  0.36455767597E+01  0.11917898079E+02  0.10334542244E+02  0.16190407281E+02  0.00000000000E+00 0.  1.
</event>
<event>
 7    1  0.6245487E-013  0.5052899E+02  0.7816164E-02  0.1300438E+00
        -11   -1    0    0    0    0  0.00000000000E+00  0.00000000000E+00  0.45593999997E+02  0.45594000000E+02  0.51100000000E-03 0.  1.
         11   -1    0    0    0    0 -0.00000000000E+00 -0.00000000000E+00 -0.45593999997E+02  0.45594000000E+02  0.51100000000E-03 0. -1.
    9900012    2    1    2    0    0  0.31727513928E+02 -0.23991404165E+02  0.84221574057E+01  0.50528986864E+02  0.30000386068E+02 0.  0.
         12    1    1    2    0    0 -0.31727513928E+02  0.23991404165E+02 -0.84221574057E+01  0.40659013136E+02  0.00000000000E+00 0. -1.
         11    1    3    3    0    0  0.13237642926E+02 -0.70895833197E+01 -0.36326160504E+01  0.15449701664E+02  0.51100000000E-03 0. -1.
        -11    1    3    3    0    0  0.21025965603E+02 -0.19632954973E+02  0.86713929918E+01  0.30045585486E+02  0.51100000000E-03 0.  1.
         12    1    3    3    0    0 -0.25360946006E+01  0.27311341274E+01  0.33833804643E+01  0.50336997141E+01  0.00000000000E+00 0. -1.
</event>
<event>
 7    1  0.6245487E-013  0.5052886E+02  0.7816164E-02  0.1300439E+00
        -11   -1    0    0    0    0  0.00000000000E+00  0.00000000000E+00  0.45593999997E+02  0.45594000000E+02  0.51100000000E-03 0.  1.
         11   -1    0    0    0    0 -0.00000000000E+00 -0.00000000000E+00 -0.45593999997E+02  0.45594000000E+02  0.51100000000E-03 0. -1.
    9900012    2    1    2    0    0 -0.31682085393E+02 -0.21938134626E+02  0.12966463655E+02  0.50528862461E+02  0.30000007936E+02 0.  0.
         12    1    1    2    0    0  0.31682085393E+02  0.21938134626E+02 -0.12966463655E+02  0.40659137539E+02  0.00000000000E+00 0. -1.
         11    1    3    3    0    0 -0.47366908924E+01 -0.12108598945E+02  0.28155897223E+01  0.13303456497E+02  0.51100000000E-03 0. -1.
        -11    1    3    3    0    0 -0.11585467879E+02 -0.81653377991E+01  0.15379603924E+02  0.20914780049E+02  0.51100000000E-03 0.  1.
         12    1    3    3    0    0 -0.15359926622E+02 -0.16641978816E+01 -0.52287299921E+01  0.16310625915E+02  0.00000000000E+00 0. -1.
</event>
<event>
 7    1  0.6245487E-013  0.5052886E+02  0.7816164E-02  0.1300439E+00
        -11   -1    0    0    0    0  0.00000000000E+00  0.00000000000E+00  0.45593999997E+02  0.45594000000E+02  0.51100000000E-03 0.  1.
         11   -1    0    0    0    0 -0.00000000000E+00 -0.00000000000E+00 -0.45593999997E+02  0.45594000000E+02  0.51100000000E-03 0. -1.
    9900012    2    1    2    0    0 -0.76571472751E+00 -0.29924536959E+02  0.27515476346E+02  0.50528859948E+02  0.30000000297E+02 0.  0.
         12    1    1    2    0    0  0.76571472751E+00  0.29924536959E+02 -0.27515476346E+02  0.40659140052E+02  0.00000000000E+00 0. -1.
         11    1    3    3    0    0  0.43706710059E+01 -0.46743457568E+01  0.11998756458E+02  0.13598618683E+02  0.51100000000E-03 0. -1.
        -11    1    3    3    0    0  0.60287140085E+01 -0.15050125156E+02  0.14537164526E+02  0.21775693158E+02  0.51100000000E-03 0.  1.
        -12    1    3    3    0    0 -0.11165099742E+02 -0.10200066046E+02  0.97955536215E+00  0.15154548106E+02  0.00000000000E+00 0.  1.
</event>
<event>
 7    1  0.6245487E-013  0.5052887E+02  0.7816164E-02  0.1300439E+00
        -11   -1    0    0    0    0  0.00000000000E+00  0.00000000000E+00  0.45593999997E+02  0.45594000000E+02  0.51100000000E-03 0. -1.
         11   -1    0    0    0    0 -0.00000000000E+00 -0.00000000000E+00 -0.45593999997E+02  0.45594000000E+02  0.51100000000E-03 0.  1.
    9900012    2    1    2    0    0  0.39790317713E+02  0.23956374334E+01  0.80097907153E+01  0.50528865605E+02  0.30000017493E+02 0.  0.
         12    1    1    2    0    0 -0.39790317713E+02 -0.23956374334E+01 -0.80097907153E+01  0.40659134395E+02  0.00000000000E+00 0. -1.
         11    1    3    3    0    0  0.60470271946E+01 -0.29963812052E+01  0.73034664288E+01  0.99441168716E+01  0.51100000000E-03 0. -1.
        -11    1    3    3    0    0  0.31056055721E+02  0.27589554548E+00  0.72113635301E+01  0.31883514227E+02  0.51100000000E-03 0.  1.
         12    1    3    3    0    0  0.26872347984E+01  0.51161230932E+01 -0.65050392435E+01  0.87012345059E+01  0.00000000000E+00 0. -1.
</event>
<event>
 7    1  0.6245487E-013  0.5052886E+02  0.7816164E-02  0.1300439E+00
        -11   -1    0    0    0    0  0.00000000000E+00  0.00000000000E+00  0.45593999997E+02  0.45594000000E+02  0.51100000000E-03 0.  1.
         11   -1    0    0    0    0 -0.00000000000E+00 -0.00000000000E+00 -0.45593999997E+02  0.45594000000E+02  0.51100000000E-03 0. -1.
    9900012    2    1    2    0    0 -0.36252193371E+01 -0.98139943256E+01  0.39290060882E+02  0.50528861003E+02  0.30000003505E+02 0.  0.
         12    1    1    2    0    0  0.36252193371E+01  0.98139943256E+01 -0.39290060882E+02  0.40659138997E+02  0.00000000000E+00 0. -1.
         11    1    3    3    0    0  0.19383519713E+01  0.47970495576E+01  0.22716502964E+02  0.23298248862E+02  0.51100000000E-03 0.  1.
        -11    1    3    3    0    0 -0.65916336133E+01  0.21847401370E+00  0.65948416449E+01  0.93268055179E+01  0.51100000000E-03 0. -1.
         12    1    3    3    0    0  0.10280623049E+01 -0.14829517897E+02  0.99787162728E+01  0.17903806623E+02  0.00000000000E+00 0. -1.
</event>
<event>
 7    1  0.6245487E-013  0.5052886E+02  0.7816164E-02  0.1300439E+00
        -11   -1    0    0    0    0  0.00000000000E+00  0.00000000000E+00  0.45593999997E+02  0.45594000000E+02  0.51100000000E-03 0.  1.
         11   -1    0    0    0    0 -0.00000000000E+00 -0.00000000000E+00 -0.45593999997E+02  0.45594000000E+02  0.51100000000E-03 0. -1.
    9900012    2    1    2    0    0 -0.26524751899E+02 -0.30667241560E+02 -0.30205236307E+01  0.50528859192E+02  0.29999998000E+02 0.  0.
         12    1    1    2    0    0  0.26524751899E+02  0.30667241560E+02  0.30205236307E+01  0.40659140808E+02  0.00000000000E+00 0. -1.
         11    1    3    3    0    0  0.26075320630E+01  0.67165598655E+00 -0.68792681610E+01  0.73874674900E+01  0.51100000000E-03 0. -1.
        -11    1    3    3    0    0 -0.24591013130E+01 -0.12540759415E+01  0.34083034514E+00  0.27813757963E+01  0.51100000000E-03 0.  1.
        -12    1    3    3    0    0 -0.26673182649E+02 -0.30084821605E+02  0.35179141851E+01  0.40360015906E+02  0.00000000000E+00 0.  1.
</event>
<event>
 7    1  0.6245487E-013  0.5052886E+02  0.7816164E-02  0.1300439E+00
        -11   -1    0    0    0    0  0.00000000000E+00  0.00000000000E+00  0.45593999997E+02  0.45594000000E+02  0.51100000000E-03 0. -1.
         11   -1    0    0    0    0 -0.00000000000E+00 -0.00000000000E+00 -0.45593999997E+02  0.45594000000E+02  0.51100000000E-03 0.  1.
    9900012    2    1    2    0    0  0.13064368466E+02  0.23809274929E+02 -0.30258993851E+02  0.50528855826E+02  0.29999987770E+02 0.  0.
         12    1    1    2    0    0 -0.13064368466E+02 -0.23809274929E+02  0.30258993851E+02  0.40659144174E+02  0.00000000000E+00 0. -1.
         11    1    3    3    0    0 -0.44314494399E+01  0.37658686948E+01 -0.33694568794E+00  0.58252076206E+01  0.51100000000E-03 0. -1.
        -11    1    3    3    0    0  0.95902229905E+01  0.14782983149E+02 -0.30463067573E+02  0.35192434613E+02  0.51100000000E-03 0.  1.
         12    1    3    3    0    0  0.79055949153E+01  0.52604230855E+01  0.54101940991E+00  0.95112135926E+01  0.00000000000E+00 0. -1.
</event>
<event>
 7    1  0.6245487E-013  0.5052885E+02  0.7816164E-02  0.1300439E+00
        -11   -1    0    0    0    0  0.00000000000E+00  0.00000000000E+00  0.45593999997E+02  0.45594000000E+02  0.51100000000E-03 0.  1.
         11   -1    0    0    0    0 -0.00000000000E+00 -0.00000000000E+00 -0.45593999997E+02  0.45594000000E+02  0.51100000000E-03 0. -1.
    9900012    2    1    2    0    0 -0.39979409013E+02  0.17351308671E+01  0.71974028336E+01  0.50528850578E+02  0.29999971818E+02 0.  0.
         12    1    1    2    0    0  0.39979409013E+02 -0.17351308671E+01 -0.71974028336E+01  0.40659149422E+02  0.00000000000E+00 0. -1.
         11    1    3    3    0    0 -0.21066275493E+01  0.47818264224E+01  0.12482547579E+01  0.53723257316E+01  0.51100000000E-03 0. -1.
        -11    1    3    3    0    0 -0.53113365350E+01 -0.64928601324E+01  0.89614191647E+01  0.12274956708E+02  0.51100000000E-03 0.  1.
         12    1    3    3    0    0 -0.32561444929E+02  0.34461645772E+01 -0.30122710890E+01  0.32881568138E+02  0.00000000000E+00 0. -1.
</event>
<event>
 7    1  0.6245487E-013  0.5052887E+02  0.7816164E-02  0.1300439E+00
        -11   -1    0    0    0    0  0.00000000000E+00  0.00000000000E+00  0.45593999997E+02  0.45594000000E+02  0.51100000000E-03 0.  1.
         11   -1    0    0    0    0 -0.00000000000E+00 -0.00000000000E+00 -0.45593999997E+02  0.45594000000E+02  0.51100000000E-03 0. -1.
    9900012    2    1    2    0    0  0.17912125070E+02  0.12727957358E+02  0.34209941170E+02  0.50528865751E+02  0.30000017937E+02 0.  0.
         12    1    1    2    0    0 -0.17912125070E+02 -0.12727957358E+02 -0.34209941170E+02  0.40659134249E+02  0.00000000000E+00 0. -1.
         11    1    3    3    0    0  0.47280083827E+01  0.58544384596E+01 -0.25145645863E+01  0.79342011737E+01  0.51100000000E-03 0. -1.
        -11    1    3    3    0    0 -0.15571032978E+01 -0.32641244567E+01  0.49609287215E+01  0.61392094922E+01  0.51100000000E-03 0.  1.
        -12    1    3    3    0    0  0.14741219985E+02  0.10137643355E+02  0.31763577035E+02  0.36455455085E+02  0.00000000000E+00 0.  1.
</event>
<event>
 7    1  0.6245487E-013  0.5052887E+02  0.7816164E-02  0.1300439E+00
        -11   -1    0    0    0    0  0.00000000000E+00  0.00000000000E+00  0.45593999997E+02  0.45594000000E+02  0.51100000000E-03 0.  1.
         11   -1    0    0    0    0 -0.00000000000E+00 -0.00000000000E+00 -0.45593999997E+02  0.45594000000E+02  0.51100000000E-03 0. -1.
    9900012    2    1    2    0    0 -0.15945963476E+02  0.12204421766E+02  0.35354539207E+02  0.50528866901E+02  0.30000021431E+02 0.  0.
         12    1    1    2    0    0  0.15945963476E+02 -0.12204421766E+02 -0.35354539207E+02  0.40659133099E+02  0.00000000000E+00 0. -1.
         11    1    3    3    0    0 -0.76852236823E-01 -0.46897551473E+01  0.86096631662E+01  0.98043872682E+01  0.51100000000E-03 0.  1.
        -11    1    3    3    0    0 -0.65313375057E+01  0.69267285090E+01  0.25249533506E+02  0.26984752732E+02  0.51100000000E-03 0. -1.
         12    1    3    3    0    0 -0.93377737337E+01  0.99674484047E+01  0.14953425347E+01  0.13739726900E+02  0.00000000000E+00 0. -1.
</event>
<event>
 7    1  0.6245487E-013  0.5052885E+02  0.7816164E-02  0.1300439E+00
        -11   -1    0    0    0    0  0.00000000000E+00  0.00000000000E+00  0.45593999997E+02  0.45594000000E+02  0.51100000000E-03 0.  1.
         11   -1    0    0    0    0 -0.00000000000E+00 -0.00000000000E+00 -0.45593999997E+02  0.45594000000E+02  0.51100000000E-03 0. -1.
    9900012    2    1    2    0    0  0.22165601703E+02  0.31936618844E+02  0.11912384901E+02  0.50528850525E+02  0.29999971655E+02 0.  0.
         12    1    1    2    0    0 -0.22165601703E+02 -0.31936618844E+02 -0.11912384901E+02  0.40659149475E+02  0.00000000000E+00 0. -1.
         11    1    3    3    0    0 -0.41479854303E+00  0.34026875154E+01  0.67889700059E+01  0.76052911950E+01  0.51100000000E-03 0. -1.
        -11    1    3    3    0    0  0.66316546750E+01  0.41083329694E+01  0.10681925241E+02  0.13227273741E+02  0.51100000000E-03 0.  1.
         12    1    3    3    0    0  0.15948745571E+02  0.24425598359E+02 -0.55585103462E+01  0.29696285588E+02  0.00000000000E+00 0. -1.
</event>
<event>
 7    1  0.6245487E-013  0.5052886E+02  0.7816164E-02  0.1300439E+00
        -11   -1    0    0    0    0  0.00000000000E+00  0.00000000000E+00  0.45593999997E+02  0.45594000000E+02  0.51100000000E-03 0. -1.
         11   -1    0    0    0    0 -0.00000000000E+00 -0.00000000000E+00 -0.45593999997E+02  0.45594000000E+02  0.51100000000E-03 0.  1.
    9900012    2    1    2    0    0 -0.49729899075E+01  0.32481089074E+02 -0.23946064380E+02  0.50528858650E+02  0.29999996352E+02 0.  0.
         12    1    1    2    0    0  0.49729899075E+01 -0.32481089074E+02  0.23946064380E+02  0.40659141350E+02  0.00000000000E+00 0. -1.
         11    1    3    3    0    0  0.16733486659E+01  0.24079705145E+02 -0.21020773862E+02  0.32007893240E+02  0.51100000000E-03 0. -1.
        -11    1    3    3    0    0 -0.12061817820E+01  0.41989795301E+00 -0.76586273182E+01  0.77643906034E+01  0.51100000000E-03 0.  1.
         12    1    3    3    0    0 -0.54401567914E+01  0.79814859762E+01  0.47333368005E+01  0.10756574807E+02  0.00000000000E+00 0. -1.
</event>
<event>
 7    1  0.6245487E-013  0.5052885E+02  0.7816164E-02  0.1300439E+00
        -11   -1    0    0    0    0  0.00000000000E+00  0.00000000000E+00  0.45593999997E+02  0.45594000000E+02  0.51100000000E-03 0.  1.
         11   -1    0    0    0    0 -0.00000000000E+00 -0.00000000000E+00 -0.45593999997E+02  0.45594000000E+02  0.51100000000E-03 0. -1.
    9900012    2    1    2    0    0 -0.33685977857E+02  0.21885011600E+02  0.62823374618E+01  0.50528848498E+02  0.29999965494E+02 0.  0.
         12    1    1    2    0    0  0.33685977857E+02 -0.21885011600E+02 -0.62823374618E+01  0.40659151502E+02  0.00000000000E+00 0. -1.
         11    1    3    3    0    0 -0.17234841292E+01  0.52412626203E+01  0.34753998738E+01  0.65207082393E+01  0.51100000000E-03 0. -1.
        -11    1    3    3    0    0 -0.16394838081E+02  0.19068043115E+02 -0.61452174924E+01  0.25887152842E+02  0.51100000000E-03 0.  1.
        -12    1    3    3    0    0 -0.15567655646E+02 -0.24242941355E+01  0.89521550804E+01  0.18120987417E+02  0.00000000000E+00 0.  1.
</event>
<event>
 7    1  0.6245487E-013  0.5052883E+02  0.7816164E-02  0.1300439E+00
        -11   -1    0    0    0    0  0.00000000000E+00  0.00000000000E+00  0.45593999997E+02  0.45594000000E+02  0.51100000000E-03 0.  1.
         11   -1    0    0    0    0 -0.00000000000E+00 -0.00000000000E+00 -0.45593999997E+02  0.45594000000E+02  0.51100000000E-03 0. -1.
    9900012    2    1    2    0    0 -0.10798085458E+02  0.38098694408E+02  0.92227245511E+01  0.50528833588E+02  0.29999920174E+02 0.  0.
         12    1    1    2    0    0  0.10798085458E+02 -0.38098694408E+02 -0.92227245511E+01  0.40659166412E+02  0.00000000000E+00 0. -1.
         11    1    3    3    0    0  0.77353453564E+00  0.15869767848E+02  0.63577247734E+00  0.15901323660E+02  0.51100000000E-03 0. -1.
        -11    1    3    3    0    0 -0.10308601805E+02  0.24151474107E+02  0.13261107404E+02  0.29417986719E+02  0.51100000000E-03 0.  1.
         12    1    3    3    0    0 -0.12630181882E+01 -0.19225475474E+01 -0.46741553303E+01  0.52095232092E+01  0.00000000000E+00 0. -1.
</event>
<event>
 7    1  0.6245487E-013  0.5052886E+02  0.7816164E-02  0.1300439E+00
        -11   -1    0    0    0    0  0.00000000000E+00  0.00000000000E+00  0.45593999997E+02  0.45594000000E+02  0.51100000000E-03 0.  1.
         11   -1    0    0    0    0 -0.00000000000E+00 -0.00000000000E+00 -0.45593999997E+02  0.45594000000E+02  0.51100000000E-03 0. -1.
    9900012    2    1    2    0    0  0.26393284018E+01 -0.35097904948E+01  0.40421291196E+02  0.50528862457E+02  0.30000007925E+02 0.  0.
         12    1    1    2    0    0 -0.26393284018E+01  0.35097904948E+01 -0.40421291196E+02  0.40659137543E+02  0.00000000000E+00 0. -1.
         11    1    3    3    0    0  0.97959552519E+00 -0.68752209309E+01  0.53974804501E+01  0.87955139538E+01  0.51100000000E-03 0. -1.
        -11    1    3    3    0    0 -0.89786740835E-01 -0.25563261367E+01  0.35451599552E+02  0.35543758609E+02  0.51100000000E-03 0.  1.
        -12    1    3    3    0    0  0.17495196174E+01  0.59217565728E+01 -0.42778880591E+00  0.61895898944E+01  0.00000000000E+00 0.  1.
</event>
<event>
 7    1  0.6245487E-013  0.5052886E+02  0.7816164E-02  0.1300439E+00
        -11   -1    0    0    0    0  0.00000000000E+00  0.00000000000E+00  0.45593999997E+02  0.45594000000E+02  0.51100000000E-03 0.  1.
         11   -1    0    0    0    0 -0.00000000000E+00 -0.00000000000E+00 -0.45593999997E+02  0.45594000000E+02  0.51100000000E-03 0. -1.
    9900012    2    1    2    0    0  0.22451228773E+02 -0.10578430189E+02  0.32205664679E+02  0.50528859624E+02  0.29999999315E+02 0.  0.
         12    1    1    2    0    0 -0.22451228773E+02  0.10578430189E+02 -0.32205664679E+02  0.40659140376E+02  0.00000000000E+00 0. -1.
         11    1    3    3    0    0  0.13962093610E+02 -0.15431833482E+02  0.12667416697E+02  0.24362778754E+02  0.51100000000E-03 0. -1.
        -11    1    3    3    0    0  0.10392134838E+02 -0.16652684156E+01  0.13145853985E+02  0.16839924662E+02  0.51100000000E-03 0.  1.
        -12    1    3    3    0    0 -0.19029996752E+01  0.65186717082E+01  0.63923939967E+01  0.93261562078E+01  0.00000000000E+00 0.  1.
</event>
<event>
 7    1  0.6245487E-013  0.5052886E+02  0.7816164E-02  0.1300439E+00
        -11   -1    0    0    0    0  0.00000000000E+00  0.00000000000E+00  0.45593999997E+02  0.45594000000E+02  0.51100000000E-03 0.  1.
         11   -1    0    0    0    0 -0.00000000000E+00 -0.00000000000E+00 -0.45593999997E+02  0.45594000000E+02  0.51100000000E-03 0. -1.
    9900012    2    1    2    0    0  0.22611563728E+02  0.27401173601E+02  0.19775204798E+02  0.50528857685E+02  0.29999993421E+02 0.  0.
         12    1    1    2    0    0 -0.22611563728E+02 -0.27401173601E+02 -0.19775204798E+02  0.40659142315E+02  0.00000000000E+00 0. -1.
         11    1    3    3    0    0 -0.47637521162E+01  0.60076473369E+00  0.53267017000E+01  0.71713320765E+01  0.51100000000E-03 0. -1.
        -11    1    3    3    0    0  0.69453609645E+01  0.11085784389E+01  0.65166294198E+01  0.95881929653E+01  0.51100000000E-03 0.  1.
        -12    1    3    3    0    0  0.20429954880E+02  0.25691830428E+02  0.79318736787E+01  0.33769332644E+02  0.00000000000E+00 0.  1.
</event>
<event>
 7    1  0.8710964E-013  0.5052886E+02  0.7816164E-02  0.1300439E+00
        -11   -1    0    0    0    0  0.00000000000E+00  0.00000000000E+00  0.45593999997E+02  0.45594000000E+02  0.51100000000E-03 0. -1.
         11   -1    0    0    0    0 -0.00000000000E+00 -0.00000000000E+00 -0.45593999997E+02  0.45594000000E+02  0.51100000000E-03 0.  1.
    9900012    2    1    2    0    0  0.27050891349E+02 -0.82094216316E+01 -0.29223626893E+02  0.50528859636E+02  0.29999999351E+02 0.  0.
         12    1    1    2    0    0 -0.27050891349E+02  0.82094216316E+01  0.29223626893E+02  0.40659140364E+02  0.00000000000E+00 0. -1.
         11    1    3    3    0    0 -0.44731091160E+01 -0.29587249048E+01 -0.25233572813E+01  0.59270642358E+01  0.51100000000E-03 0. -1.
        -11    1    3    3    0    0  0.37757103409E+01  0.46341858065E+01 -0.67970035520E+01  0.90515702624E+01  0.51100000000E-03 0.  1.
        -12    1    3    3    0    0  0.27748290125E+02 -0.98848825334E+01 -0.19903266060E+02  0.35550225138E+02  0.00000000000E+00 0.  1.
</event>
<event>
 7    1  0.6245487E-013  0.5052886E+02  0.7816164E-02  0.1300439E+00
        -11   -1    0    0    0    0  0.00000000000E+00  0.00000000000E+00  0.45593999997E+02  0.45594000000E+02  0.51100000000E-03 0.  1.
         11   -1    0    0    0    0 -0.00000000000E+00 -0.00000000000E+00 -0.45593999997E+02  0.45594000000E+02  0.51100000000E-03 0. -1.
    9900012    2    1    2    0    0 -0.25463766190E+02  0.85733539289E+01  0.30516553988E+02  0.50528857689E+02  0.29999993431E+02 0.  0.
         12    1    1    2    0    0  0.25463766190E+02 -0.85733539289E+01 -0.30516553988E+02  0.40659142311E+02  0.00000000000E+00 0. -1.
         11    1    3    3    0    0  0.11664581529E+01 -0.45442936860E+01  0.59291938079E+00  0.47289304689E+01  0.51100000000E-03 0. -1.
        -11    1    3    3    0    0 -0.25584101007E+02  0.52098840073E+01  0.26230360711E+02  0.37009741137E+02  0.51100000000E-03 0.  1.
         12    1    3    3    0    0 -0.10461233361E+01  0.79077636076E+01  0.36932738957E+01  0.87901860831E+01  0.00000000000E+00 0. -1.
</event>
<event>
 7    1  0.6245487E-013  0.5052876E+02  0.7816164E-02  0.1300439E+00
        -11   -1    0    0    0    0  0.00000000000E+00  0.00000000000E+00  0.45593999997E+02  0.45594000000E+02  0.51100000000E-03 0.  1.
         11   -1    0    0    0    0 -0.00000000000E+00 -0.00000000000E+00 -0.45593999997E+02  0.45594000000E+02  0.51100000000E-03 0. -1.
    9900012    2    1    2    0    0  0.43630033914E+01 -0.16107901014E+01  0.40392367897E+02  0.50528759627E+02  0.29999695361E+02 0.  0.
         12    1    1    2    0    0 -0.43630033914E+01  0.16107901014E+01 -0.40392367897E+02  0.40659240373E+02  0.00000000000E+00 0. -1.
         11    1    3    3    0    0 -0.29945632807E+01  0.83693416883E+01  0.18321788544E+02  0.20364214329E+02  0.51100000000E-03 0. -1.
        -11    1    3    3    0    0  0.12077059897E+01 -0.11597052495E+01 -0.26908173573E+01  0.31692220393E+01  0.51100000000E-03 0.  1.
        -12    1    3    3    0    0  0.61498606824E+01 -0.88204265401E+01  0.24761396711E+02  0.26995323259E+02  0.00000000000E+00 0.  1.
</event>
<event>
 7    1  0.6245487E-013  0.5052886E+02  0.7816164E-02  0.1300439E+00
        -11   -1    0    0    0    0  0.00000000000E+00  0.00000000000E+00  0.45593999997E+02  0.45594000000E+02  0.51100000000E-03 0.  1.
         11   -1    0    0    0    0 -0.00000000000E+00 -0.00000000000E+00 -0.45593999997E+02  0.45594000000E+02  0.51100000000E-03 0. -1.
    9900012    2    1    2    0    0 -0.10839508788E+02  0.19692990391E+02  0.33880035262E+02  0.50528860675E+02  0.30000002507E+02 0.  0.
         12    1    1    2    0    0  0.10839508788E+02 -0.19692990391E+02 -0.33880035262E+02  0.40659139325E+02  0.00000000000E+00 0. -1.
         11    1    3    3    0    0 -0.20609449661E+01  0.18758430275E+02  0.10547055802E+02  0.21618662930E+02  0.51100000000E-03 0. -1.
        -11    1    3    3    0    0 -0.50806118383E+01 -0.25317360438E+01  0.70333135388E+00  0.57198758117E+01  0.51100000000E-03 0.  1.
        -12    1    3    3    0    0 -0.36979519840E+01  0.34662961597E+01  0.22629648106E+02  0.23190321933E+02  0.00000000000E+00 0.  1.
</event>
<event>
 7    1  0.6245487E-013  0.5052886E+02  0.7816164E-02  0.1300439E+00
        -11   -1    0    0    0    0  0.00000000000E+00  0.00000000000E+00  0.45593999997E+02  0.45594000000E+02  0.51100000000E-03 0.  1.
         11   -1    0    0    0    0 -0.00000000000E+00 -0.00000000000E+00 -0.45593999997E+02  0.45594000000E+02  0.51100000000E-03 0. -1.
    9900012    2    1    2    0    0  0.75378841554E+01 -0.16847401661E+01  0.39918758074E+02  0.50528864580E+02  0.30000014376E+02 0.  0.
         12    1    1    2    0    0 -0.75378841554E+01  0.16847401661E+01 -0.39918758074E+02  0.40659135420E+02  0.00000000000E+00 0. -1.
         11    1    3    3    0    0 -0.23028299211E+01 -0.29560329472E+01  0.23675135008E+01  0.44324120824E+01  0.51100000000E-03 0. -1.
        -11    1    3    3    0    0  0.15138696296E+01  0.32687327005E+01  0.37357929368E+02  0.37531204372E+02  0.51100000000E-03 0.  1.
         12    1    3    3    0    0  0.83268444470E+01 -0.19974399194E+01  0.19331520541E+00  0.85652481251E+01  0.00000000000E+00 0. -1.
</event>
<event>
 7    1  0.6245487E-013  0.5052886E+02  0.7816164E-02  0.1300439E+00
        -11   -1    0    0    0    0  0.00000000000E+00  0.00000000000E+00  0.45593999997E+02  0.45594000000E+02  0.51100000000E-03 0.  1.
         11   -1    0    0    0    0 -0.00000000000E+00 -0.00000000000E+00 -0.45593999997E+02  0.45594000000E+02  0.51100000000E-03 0. -1.
    9900012    2    1    2    0    0  0.25298892354E+02 -0.29934243293E+02  0.10820001974E+02  0.50528864266E+02  0.30000013424E+02 0.  0.
         12    1    1    2    0    0 -0.25298892354E+02  0.29934243293E+02 -0.10820001974E+02  0.40659135734E+02  0.00000000000E+00 0. -1.
         11    1    3    3    0    0 -0.12690253564E+01 -0.80174512722E+00  0.30550051625E+01  0.34038621312E+01  0.51100000000E-03 0. -1.
        -11    1    3    3    0    0  0.70745108706E+01 -0.24832984136E+02  0.83998985483E+01  0.27152975915E+02  0.51100000000E-03 0.  1.
         12    1    3    3    0    0  0.19493406840E+02 -0.42995140300E+01 -0.63490173679E+00  0.19972026220E+02  0.00000000000E+00 0. -1.
</event>
<event>
 7    1  0.6245487E-013  0.5052886E+02  0.7816164E-02  0.1300439E+00
        -11   -1    0    0    0    0  0.00000000000E+00  0.00000000000E+00  0.45593999997E+02  0.45594000000E+02  0.51100000000E-03 0. -1.
         11   -1    0    0    0    0 -0.00000000000E+00 -0.00000000000E+00 -0.45593999997E+02  0.45594000000E+02  0.51100000000E-03 0.  1.
    9900012    2    1    2    0    0 -0.13398185445E+02 -0.18641024580E+02 -0.33558407367E+02  0.50528857417E+02  0.29999992604E+02 0.  0.
         12    1    1    2    0    0  0.13398185445E+02  0.18641024580E+02  0.33558407367E+02  0.40659142583E+02  0.00000000000E+00 0. -1.
         11    1    3    3    0    0  0.21997562190E+01  0.93947351732E+00 -0.43133123424E+01  0.49321599262E+01  0.51100000000E-03 0. -1.
        -11    1    3    3    0    0  0.58670765572E+01 -0.11263679097E+00 -0.34918867401E+01  0.68285099137E+01  0.51100000000E-03 0.  1.
         12    1    3    3    0    0 -0.21465018221E+02 -0.19467861306E+02 -0.25753208285E+02  0.38768187577E+02  0.00000000000E+00 0. -1.
</event>
<event>
 7    1  0.6245487E-013  0.5052886E+02  0.7816164E-02  0.1300439E+00
        -11   -1    0    0    0    0  0.00000000000E+00  0.00000000000E+00  0.45593999997E+02  0.45594000000E+02  0.51100000000E-03 0.  1.
         11   -1    0    0    0    0 -0.00000000000E+00 -0.00000000000E+00 -0.45593999997E+02  0.45594000000E+02  0.51100000000E-03 0. -1.
    9900012    2    1    2    0    0 -0.37503606840E+02 -0.51953889157E+01  0.14820692229E+02  0.50528861911E+02  0.30000006263E+02 0.  0.
         12    1    1    2    0    0  0.37503606840E+02  0.51953889157E+01 -0.14820692229E+02  0.40659138089E+02  0.00000000000E+00 0. -1.
         11    1    3    3    0    0 -0.40085500863E+01 -0.64620990854E+01 -0.57890307907E+01  0.95572002250E+01  0.51100000000E-03 0. -1.
        -11    1    3    3    0    0 -0.11548896623E+02 -0.46550734527E+01  0.95529660444E+01  0.15694135292E+02  0.51100000000E-03 0.  1.
        -12    1    3    3    0    0 -0.21946160131E+02  0.59217836223E+01  0.11056756975E+02  0.25277526393E+02  0.00000000000E+00 0.  1.
</event>
<event>
 7    1  0.6245487E-013  0.5052885E+02  0.7816164E-02  0.1300439E+00
        -11   -1    0    0    0    0  0.00000000000E+00  0.00000000000E+00  0.45593999997E+02  0.45594000000E+02  0.51100000000E-03 0.  1.
         11   -1    0    0    0    0 -0.00000000000E+00 -0.00000000000E+00 -0.45593999997E+02  0.45594000000E+02  0.51100000000E-03 0. -1.
    9900012    2    1    2    0    0  0.21511122736E+02 -0.21126685574E+02  0.27278221262E+02  0.50528848509E+02  0.29999965529E+02 0.  0.
         12    1    1    2    0    0 -0.21511122736E+02  0.21126685574E+02 -0.27278221262E+02  0.40659151491E+02  0.00000000000E+00 0. -1.
         11    1    3    3    0    0 -0.27581742968E+01 -0.27367807973E+00 -0.19886482238E+01  0.34113263054E+01  0.51100000000E-03 0. -1.
        -11    1    3    3    0    0  0.11607058903E+02 -0.17641225520E+02  0.88884909542E+01  0.22911611160E+02  0.51100000000E-03 0.  1.
        -12    1    3    3    0    0  0.12662238130E+02 -0.32117819745E+01  0.20378378532E+02  0.24205911044E+02  0.00000000000E+00 0.  1.
</event>
<event>
 7    1  0.6245487E-013  0.5052888E+02  0.7816164E-02  0.1300439E+00
        -11   -1    0    0    0    0  0.00000000000E+00  0.00000000000E+00  0.45593999997E+02  0.45594000000E+02  0.51100000000E-03 0. -1.
         11   -1    0    0    0    0 -0.00000000000E+00 -0.00000000000E+00 -0.45593999997E+02  0.45594000000E+02  0.51100000000E-03 0.  1.
    9900012    2    1    2    0    0  0.40234358754E+02  0.44016204787E+01  0.38712181075E+01  0.50528877815E+02  0.30000054606E+02 0.  0.
         12    1    1    2    0    0 -0.40234358754E+02 -0.44016204787E+01 -0.38712181075E+01  0.40659122185E+02  0.00000000000E+00 0. -1.
         11    1    3    3    0    0  0.14688951459E+02  0.19893061238E+01 -0.32864583010E+01  0.15182998460E+02  0.51100000000E-03 0. -1.
        -11    1    3    3    0    0  0.14874242264E+02 -0.81345523808E+01  0.10544120705E+02  0.19964781668E+02  0.51100000000E-03 0.  1.
         12    1    3    3    0    0  0.10671165032E+02  0.10546866736E+02 -0.33864442965E+01  0.15381097687E+02  0.00000000000E+00 0. -1.
</event>
<event>
 7    1  0.6245487E-013  0.5052886E+02  0.7816164E-02  0.1300439E+00
        -11   -1    0    0    0    0  0.00000000000E+00  0.00000000000E+00  0.45593999997E+02  0.45594000000E+02  0.51100000000E-03 0. -1.
         11   -1    0    0    0    0 -0.00000000000E+00 -0.00000000000E+00 -0.45593999997E+02  0.45594000000E+02  0.51100000000E-03 0.  1.
    9900012    2    1    2    0    0 -0.98751924452E+01  0.37601137292E+02 -0.11908016266E+02  0.50528858311E+02  0.29999995321E+02 0.  0.
         12    1    1    2    0    0  0.98751924452E+01 -0.37601137292E+02  0.11908016266E+02  0.40659141689E+02  0.00000000000E+00 0. -1.
         11    1    3    3    0    0 -0.11844912153E+02  0.18862920835E+02 -0.49690018719E+01  0.22821102213E+02  0.51100000000E-03 0. -1.
        -11    1    3    3    0    0  0.44113443121E+01  0.20567566358E+02 -0.10082783498E+02  0.23326964394E+02  0.51100000000E-03 0.  1.
         12    1    3    3    0    0 -0.24416246045E+01 -0.18293499008E+01  0.31437691040E+01  0.43807917034E+01  0.00000000000E+00 0. -1.
</event>
<event>
 7    1  0.6245487E-013  0.5052885E+02  0.7816164E-02  0.1300439E+00
        -11   -1    0    0    0    0  0.00000000000E+00  0.00000000000E+00  0.45593999997E+02  0.45594000000E+02  0.51100000000E-03 0.  1.
         11   -1    0    0    0    0 -0.00000000000E+00 -0.00000000000E+00 -0.45593999997E+02  0.45594000000E+02  0.51100000000E-03 0. -1.
    9900012    2    1    2    0    0 -0.29842170382E+02 -0.25747381838E+02  0.99841724103E+01  0.50528849697E+02  0.29999969139E+02 0.  0.
         12    1    1    2    0    0  0.29842170382E+02  0.25747381838E+02 -0.99841724103E+01  0.40659150303E+02  0.00000000000E+00 0. -1.
         11    1    3    3    0    0 -0.17473688965E+02 -0.20547618554E+01  0.81644498966E+01  0.19396136076E+02  0.51100000000E-03 0. -1.
        -11    1    3    3    0    0  0.93995063453E+00  0.19292725435E+01 -0.37003918439E+00  0.21777348327E+01  0.51100000000E-03 0.  1.
         12    1    3    3    0    0 -0.13308432052E+02 -0.25621892526E+02  0.21897616981E+01  0.28954978788E+02  0.00000000000E+00 0. -1.
</event>
<event>
 7    1  0.6245487E-013  0.5052886E+02  0.7816164E-02  0.1300439E+00
        -11   -1    0    0    0    0  0.00000000000E+00  0.00000000000E+00  0.45593999997E+02  0.45594000000E+02  0.51100000000E-03 0.  1.
         11   -1    0    0    0    0 -0.00000000000E+00 -0.00000000000E+00 -0.45593999997E+02  0.45594000000E+02  0.51100000000E-03 0. -1.
    9900012    2    1    2    0    0  0.34191971370E+02  0.17806043632E+02  0.12923596807E+02  0.50528862645E+02  0.30000008496E+02 0.  0.
         12    1    1    2    0    0 -0.34191971370E+02 -0.17806043632E+02 -0.12923596807E+02  0.40659137355E+02  0.00000000000E+00 0. -1.
         11    1    3    3    0    0 -0.17242153750E+01 -0.12070663146E+01 -0.92499150565E+00  0.22990296418E+01  0.51100000000E-03 0. -1.
        -11    1    3    3    0    0  0.61007023004E+01  0.72420151235E+01 -0.53393440670E+01  0.10870784099E+02  0.51100000000E-03 0.  1.
        -12    1    3    3    0    0  0.29815484445E+02  0.11771094823E+02  0.19187932379E+02  0.37359048904E+02  0.00000000000E+00 0.  1.
</event>
<event>
 7    1  0.6245487E-013  0.5052887E+02  0.7816164E-02  0.1300439E+00
        -11   -1    0    0    0    0  0.00000000000E+00  0.00000000000E+00  0.45593999997E+02  0.45594000000E+02  0.51100000000E-03 0. -1.
         11   -1    0    0    0    0 -0.00000000000E+00 -0.00000000000E+00 -0.45593999997E+02  0.45594000000E+02  0.51100000000E-03 0.  1.
    9900012    2    1    2    0    0  0.34181610469E+02 -0.26442999817E+01 -0.21858414041E+02  0.50528867188E+02  0.30000022303E+02 0.  0.
         12    1    1    2    0    0 -0.34181610469E+02  0.26442999817E+01  0.21858414041E+02  0.40659132812E+02  0.00000000000E+00 0. -1.
         11    1    3    3    0    0  0.11670604694E+02 -0.84854138920E+01 -0.77924829110E+01  0.16399025977E+02  0.51100000000E-03 0. -1.
        -11    1    3    3    0    0  0.21995350076E+02 -0.18503310165E+01 -0.57898352771E+01  0.22819757726E+02  0.51100000000E-03 0.  1.
         12    1    3    3    0    0  0.51565569934E+00  0.76914449268E+01 -0.82760958529E+01  0.11310083485E+02  0.00000000000E+00 0. -1.
</event>
<event>
 7    1  0.6245487E-013  0.5052886E+02  0.7816164E-02  0.1300439E+00
        -11   -1    0    0    0    0  0.00000000000E+00  0.00000000000E+00  0.45593999997E+02  0.45594000000E+02  0.51100000000E-03 0.  1.
         11   -1    0    0    0    0 -0.00000000000E+00 -0.00000000000E+00 -0.45593999997E+02  0.45594000000E+02  0.51100000000E-03 0. -1.
    9900012    2    1    2    0    0  0.47370400075E+00 -0.24869754671E+02  0.32162659057E+02  0.50528859201E+02  0.29999998028E+02 0.  0.
         12    1    1    2    0    0 -0.47370400075E+00  0.24869754671E+02 -0.32162659057E+02  0.40659140799E+02  0.00000000000E+00 0. -1.
         11    1    3    3    0    0  0.67265492750E+01 -0.13527471819E+02  0.17862014787E+02  0.23394241417E+02  0.51100000000E-03 0. -1.
        -11    1    3    3    0    0 -0.79581943784E+01 -0.14396321268E+02  0.16256480525E+02  0.23127042248E+02  0.51100000000E-03 0.  1.
         12    1    3    3    0    0  0.17053491041E+01  0.30540384164E+01 -0.19558362553E+01  0.40075755356E+01  0.00000000000E+00 0. -1.
</event>
<event>
 7    1  0.6245487E-013  0.5052886E+02  0.7816164E-02  0.1300439E+00
        -11   -1    0    0    0    0  0.00000000000E+00  0.00000000000E+00  0.45593999997E+02  0.45594000000E+02  0.51100000000E-03 0.  1.
         11   -1    0    0    0    0 -0.00000000000E+00 -0.00000000000E+00 -0.45593999997E+02  0.45594000000E+02  0.51100000000E-03 0. -1.
    9900012    2    1    2    0    0  0.74314996445E+01  0.22578867109E+02  0.32986868263E+02  0.50528857059E+02  0.29999991517E+02 0.  0.
         12    1    1    2    0    0 -0.74314996445E+01 -0.22578867109E+02 -0.32986868263E+02  0.40659142941E+02  0.00000000000E+00 0. -1.
         11    1    3    3    0    0 -0.15798095615E+01  0.16597157204E+02  0.12170173676E+02  0.20641573415E+02  0.51100000000E-03 0.  1.
        -11    1    3    3    0    0  0.12504542396E+02  0.59425533965E+01  0.67675196852E+01  0.15410283721E+02  0.51100000000E-03 0. -1.
         12    1    3    3    0    0 -0.34932331900E+01  0.39156509076E-01  0.14049174902E+02  0.14476999923E+02  0.00000000000E+00 0. -1.
</event>
<event>
 7    1  0.6245487E-013  0.5052886E+02  0.7816164E-02  0.1300439E+00
        -11   -1    0    0    0    0  0.00000000000E+00  0.00000000000E+00  0.45593999997E+02  0.45594000000E+02  0.51100000000E-03 0. -1.
         11   -1    0    0    0    0 -0.00000000000E+00 -0.00000000000E+00 -0.45593999997E+02  0.45594000000E+02  0.51100000000E-03 0.  1.
    9900012    2    1    2    0    0  0.26748832186E+02  0.60398155691E+00 -0.30615370981E+02  0.50528858871E+02  0.29999997024E+02 0.  0.
         12    1    1    2    0    0 -0.26748832186E+02 -0.60398155691E+00  0.30615370981E+02  0.40659141129E+02  0.00000000000E+00 0. -1.
         11    1    3    3    0    0  0.21116496372E+01  0.52854964156E+01 -0.13508955457E+02  0.14659038657E+02  0.51100000000E-03 0. -1.
        -11    1    3    3    0    0  0.18707992254E+02  0.54311216239E+01 -0.81467871465E+01  0.21115307181E+02  0.51100000000E-03 0.  1.
        -12    1    3    3    0    0  0.59291902945E+01 -0.10112636483E+02 -0.89596283781E+01  0.14754513033E+02  0.00000000000E+00 0.  1.
</event>
<event>
 7    1  0.6245487E-013  0.5052887E+02  0.7816164E-02  0.1300439E+00
        -11   -1    0    0    0    0  0.00000000000E+00  0.00000000000E+00  0.45593999997E+02  0.45594000000E+02  0.51100000000E-03 0.  1.
         11   -1    0    0    0    0 -0.00000000000E+00 -0.00000000000E+00 -0.45593999997E+02  0.45594000000E+02  0.51100000000E-03 0. -1.
    9900012    2    1    2    0    0  0.34255707098E+02  0.21808467054E+02  0.20254211465E+01  0.50528867756E+02  0.30000024031E+02 0.  0.
         12    1    1    2    0    0 -0.34255707098E+02 -0.21808467054E+02 -0.20254211465E+01  0.40659132244E+02  0.00000000000E+00 0. -1.
         11    1    3    3    0    0  0.24498877482E+02  0.12254939469E+02  0.28813492026E+01  0.27544159322E+02  0.51100000000E-03 0. -1.
        -11    1    3    3    0    0  0.16300991529E+01  0.13070925556E+02 -0.37033893378E+01  0.13682887524E+02  0.51100000000E-03 0.  1.
         12    1    3    3    0    0  0.81267304627E+01 -0.35173979707E+01  0.28474612817E+01  0.93018209104E+01  0.00000000000E+00 0. -1.
</event>
<event>
 7    1  0.6245487E-013  0.5052886E+02  0.7816164E-02  0.1300439E+00
        -11   -1    0    0    0    0  0.00000000000E+00  0.00000000000E+00  0.45593999997E+02  0.45594000000E+02  0.51100000000E-03 0.  1.
         11   -1    0    0    0    0 -0.00000000000E+00 -0.00000000000E+00 -0.45593999997E+02  0.45594000000E+02  0.51100000000E-03 0. -1.
    9900012    2    1    2    0    0 -0.15534947773E+02  0.30940759039E+02  0.21319022414E+02  0.50528857253E+02  0.29999992105E+02 0.  0.
         12    1    1    2    0    0  0.15534947773E+02 -0.30940759039E+02 -0.21319022414E+02  0.40659142747E+02  0.00000000000E+00 0. -1.
         11    1    3    3    0    0 -0.51547803411E+00  0.22924680054E+02  0.16399036369E+02  0.28191045871E+02  0.51100000000E-03 0. -1.
        -11    1    3    3    0    0  0.10945147561E+00 -0.95285846430E+00  0.46501915105E+01  0.47480733170E+01  0.51100000000E-03 0.  1.
         12    1    3    3    0    0 -0.15128921215E+02  0.89689374492E+01  0.26979453457E+00  0.17589738065E+02  0.00000000000E+00 0. -1.
</event>
<event>
 7    1  0.7429781E-013  0.5052886E+02  0.7816164E-02  0.1300439E+00
        -11   -1    0    0    0    0  0.00000000000E+00  0.00000000000E+00  0.45593999997E+02  0.45594000000E+02  0.51100000000E-03 0. -1.
         11   -1    0    0    0    0 -0.00000000000E+00 -0.00000000000E+00 -0.45593999997E+02  0.45594000000E+02  0.51100000000E-03 0.  1.
    9900012    2    1    2    0    0 -0.28276841925E+02 -0.29045524492E+02 -0.31533626508E+01  0.50528856154E+02  0.29999988766E+02 0.  0.
         12    1    1    2    0    0  0.28276841925E+02  0.29045524492E+02  0.31533626508E+01  0.40659143846E+02  0.00000000000E+00 0. -1.
         11    1    3    3    0    0 -0.31337578820E+01 -0.18573369877E+02 -0.23414864281E+01  0.18980860518E+02  0.51100000000E-03 0. -1.
        -11    1    3    3    0    0 -0.72554894599E+01 -0.55148915306E+00 -0.70822051152E+01  0.10154008920E+02  0.51100000000E-03 0.  1.
        -12    1    3    3    0    0 -0.17887594583E+02 -0.99206654617E+01  0.62703288925E+01  0.21393986716E+02  0.00000000000E+00 0.  1.
</event>
<event>
 7    1  0.6245487E-013  0.5052886E+02  0.7816164E-02  0.1300439E+00
        -11   -1    0    0    0    0  0.00000000000E+00  0.00000000000E+00  0.45593999997E+02  0.45594000000E+02  0.51100000000E-03 0.  1.
         11   -1    0    0    0    0 -0.00000000000E+00 -0.00000000000E+00 -0.45593999997E+02  0.45594000000E+02  0.51100000000E-03 0. -1.
    9900012    2    1    2    0    0  0.17041327437E+02 -0.92906096919E+01  0.35727342662E+02  0.50528864705E+02  0.30000014756E+02 0.  0.
         12    1    1    2    0    0 -0.17041327437E+02  0.92906096919E+01 -0.35727342662E+02  0.40659135295E+02  0.00000000000E+00 0. -1.
         11    1    3    3    0    0  0.47881296538E+01  0.57059927057E+01 -0.69105524791E+00  0.74807817743E+01  0.51100000000E-03 0. -1.
        -11    1    3    3    0    0  0.46235565345E+01  0.10845962308E+01  0.11348238853E+02  0.12301875846E+02  0.51100000000E-03 0.  1.
         12    1    3    3    0    0  0.76296412486E+01 -0.16081198628E+02  0.25070159058E+02  0.30746207084E+02  0.00000000000E+00 0. -1.
</event>
<event>
 7    1  0.6245487E-013  0.5052886E+02  0.7816164E-02  0.1300439E+00
        -11   -1    0    0    0    0  0.00000000000E+00  0.00000000000E+00  0.45593999997E+02  0.45594000000E+02  0.51100000000E-03 0.  1.
         11   -1    0    0    0    0 -0.00000000000E+00 -0.00000000000E+00 -0.45593999997E+02  0.45594000000E+02  0.51100000000E-03 0. -1.
    9900012    2    1    2    0    0 -0.18414421824E+02  0.26630182132E+02  0.24594879712E+02  0.50528860320E+02  0.30000001428E+02 0.  0.
         12    1    1    2    0    0  0.18414421824E+02 -0.26630182132E+02 -0.24594879712E+02  0.40659139680E+02  0.00000000000E+00 0. -1.
         11    1    3    3    0    0 -0.11469078109E+02 -0.22050490763E+01  0.10238159510E+02  0.15531320115E+02  0.51100000000E-03 0. -1.
        -11    1    3    3    0    0 -0.78091431337E+01  0.14707105508E+02  0.31577920826E+01  0.16948549200E+02  0.51100000000E-03 0.  1.
        -12    1    3    3    0    0  0.86379941948E+00  0.14128125701E+02  0.11198928119E+02  0.18048991005E+02  0.00000000000E+00 0.  1.
</event>
<event>
 7    1  0.6245487E-013  0.5052886E+02  0.7816164E-02  0.1300439E+00
        -11   -1    0    0    0    0  0.00000000000E+00  0.00000000000E+00  0.45593999997E+02  0.45594000000E+02  0.51100000000E-03 0. -1.
         11   -1    0    0    0    0 -0.00000000000E+00 -0.00000000000E+00 -0.45593999997E+02  0.45594000000E+02  0.51100000000E-03 0.  1.
    9900012    2    1    2    0    0  0.38313215722E+02  0.12203736020E+02 -0.60276125260E+01  0.50528858537E+02  0.29999996008E+02 0.  0.
         12    1    1    2    0    0 -0.38313215722E+02 -0.12203736020E+02  0.60276125260E+01  0.40659141463E+02  0.00000000000E+00 0. -1.
         11    1    3    3    0    0  0.69110311874E+01  0.69907765708E+01  0.35126074751E+01  0.10438952087E+02  0.51100000000E-03 0. -1.
        -11    1    3    3    0    0  0.40066562205E+01 -0.39523670394E+01  0.51964877608E+01  0.76601556507E+01  0.51100000000E-03 0.  1.
        -12    1    3    3    0    0  0.27395528314E+02  0.91653264885E+01 -0.14736707762E+02  0.32429750799E+02  0.00000000000E+00 0.  1.
</event>
<event>
 7    1  0.6245487E-013  0.5052886E+02  0.7816164E-02  0.1300439E+00
        -11   -1    0    0    0    0  0.00000000000E+00  0.00000000000E+00  0.45593999997E+02  0.45594000000E+02  0.51100000000E-03 0.  1.
         11   -1    0    0    0    0 -0.00000000000E+00 -0.00000000000E+00 -0.45593999997E+02  0.45594000000E+02  0.51100000000E-03 0. -1.
    9900012    2    1    2    0    0 -0.67843223931E+01  0.20836873351E+02  0.34248552504E+02  0.50528859946E+02  0.30000000291E+02 0.  0.
         12    1    1    2    0    0  0.67843223931E+01 -0.20836873351E+02 -0.34248552504E+02  0.40659140054E+02  0.00000000000E+00 0. -1.
         11    1    3    3    0    0  0.14972805773E+01  0.75333183863E+00 -0.42780385690E+01  0.45946678057E+01  0.51100000000E-03 0. -1.
        -11    1    3    3    0    0 -0.71763252383E+01  0.28816642807E+01  0.13192816456E+02  0.15292286920E+02  0.51100000000E-03 0.  1.
        -12    1    3    3    0    0 -0.11052777322E+01  0.17201877232E+02  0.25333774617E+02  0.30641905220E+02  0.00000000000E+00 0.  1.
</event>
<event>
 7    1  0.6245487E-013  0.5052886E+02  0.7816164E-02  0.1300439E+00
        -11   -1    0    0    0    0  0.00000000000E+00  0.00000000000E+00  0.45593999997E+02  0.45594000000E+02  0.51100000000E-03 0.  1.
         11   -1    0    0    0    0 -0.00000000000E+00 -0.00000000000E+00 -0.45593999997E+02  0.45594000000E+02  0.51100000000E-03 0. -1.
    9900012    2    1    2    0    0 -0.26806797096E+02 -0.28894568543E+02  0.99832453852E+01  0.50528860188E+02  0.30000001028E+02 0.  0.
         12    1    1    2    0    0  0.26806797096E+02  0.28894568543E+02 -0.99832453852E+01  0.40659139812E+02  0.00000000000E+00 0. -1.
         11    1    3    3    0    0 -0.21570698635E+02 -0.79929258359E+01  0.47542135204E+01  0.23490092581E+02  0.51100000000E-03 0. -1.
        -11    1    3    3    0    0 -0.32817211086E+01 -0.38991532194E+01  0.82133919412E+01  0.96660693513E+01  0.51100000000E-03 0.  1.
        -12    1    3    3    0    0 -0.19543773524E+01 -0.17002489488E+02 -0.29843600765E+01  0.17372698256E+02  0.00000000000E+00 0.  1.
</event>
<event>
 7    1  0.6245487E-013  0.5052885E+02  0.7816164E-02  0.1300439E+00
        -11   -1    0    0    0    0  0.00000000000E+00  0.00000000000E+00  0.45593999997E+02  0.45594000000E+02  0.51100000000E-03 0.  1.
         11   -1    0    0    0    0 -0.00000000000E+00 -0.00000000000E+00 -0.45593999997E+02  0.45594000000E+02  0.51100000000E-03 0. -1.
    9900012    2    1    2    0    0 -0.37610092326E+02 -0.75719532295E+01  0.13465254375E+02  0.50528848560E+02  0.29999965682E+02 0.  0.
         12    1    1    2    0    0  0.37610092326E+02  0.75719532295E+01 -0.13465254375E+02  0.40659151440E+02  0.00000000000E+00 0. -1.
         11    1    3    3    0    0 -0.29422043448E+01 -0.30646836525E+01  0.10198276140E+02  0.11047791127E+02  0.51100000000E-03 0. -1.
        -11    1    3    3    0    0 -0.10395199816E+02  0.55424318556E+01 -0.36169939184E+01  0.12323204752E+02  0.51100000000E-03 0.  1.
        -12    1    3    3    0    0 -0.24272688165E+02 -0.10049701433E+02  0.68839721531E+01  0.27157852681E+02  0.00000000000E+00 0.  1.
</event>
<event>
 7    1  0.6245487E-013  0.5052888E+02  0.7816164E-02  0.1300439E+00
        -11   -1    0    0    0    0  0.00000000000E+00  0.00000000000E+00  0.45593999997E+02  0.45594000000E+02  0.51100000000E-03 0.  1.
         11   -1    0    0    0    0 -0.00000000000E+00 -0.00000000000E+00 -0.45593999997E+02  0.45594000000E+02  0.51100000000E-03 0. -1.
    9900012    2    1    2    0    0 -0.26940926073E+02  0.15963444035E+02  0.25932968707E+02  0.50528881600E+02  0.30000066111E+02 0.  0.
         12    1    1    2    0    0  0.26940926073E+02 -0.15963444035E+02 -0.25932968707E+02  0.40659118400E+02  0.00000000000E+00 0. -1.
         11    1    3    3    0    0 -0.96104035331E+01  0.89150476971E+01  0.44502848691E+01  0.13843517154E+02  0.51100000000E-03 0. -1.
        -11    1    3    3    0    0 -0.13512437502E+02  0.12092325917E+02  0.46742376768E+01  0.18725886132E+02  0.51100000000E-03 0.  1.
        -12    1    3    3    0    0 -0.38180850375E+01 -0.50439295788E+01  0.16808446161E+02  0.17959478314E+02  0.00000000000E+00 0.  1.
</event>
<event>
 7    1  0.6245487E-013  0.5052886E+02  0.7816164E-02  0.1300439E+00
        -11   -1    0    0    0    0  0.00000000000E+00  0.00000000000E+00  0.45593999997E+02  0.45594000000E+02  0.51100000000E-03 0.  1.
         11   -1    0    0    0    0 -0.00000000000E+00 -0.00000000000E+00 -0.45593999997E+02  0.45594000000E+02  0.51100000000E-03 0. -1.
    9900012    2    1    2    0    0  0.19458747704E+02 -0.30945984189E+01  0.35566081129E+02  0.50528861686E+02  0.30000005580E+02 0.  0.
         12    1    1    2    0    0 -0.19458747704E+02  0.30945984189E+01 -0.35566081129E+02  0.40659138314E+02  0.00000000000E+00 0. -1.
         11    1    3    3    0    0 -0.51153240894E-01  0.58170823305E+01 -0.52609563446E+00  0.58410478830E+01  0.51100000000E-03 0. -1.
        -11    1    3    3    0    0  0.51367982779E+00 -0.71632415465E+01  0.11597414589E+02  0.13640964843E+02  0.51100000000E-03 0.  1.
         12    1    3    3    0    0  0.18996221117E+02 -0.17484392030E+01  0.24494762174E+02  0.31046848960E+02  0.00000000000E+00 0. -1.
</event>
<event>
 7    1  0.6245487E-013  0.5052888E+02  0.7816164E-02  0.1300439E+00
        -11   -1    0    0    0    0  0.00000000000E+00  0.00000000000E+00  0.45593999997E+02  0.45594000000E+02  0.51100000000E-03 0. -1.
         11   -1    0    0    0    0 -0.00000000000E+00 -0.00000000000E+00 -0.45593999997E+02  0.45594000000E+02  0.51100000000E-03 0.  1.
    9900012    2    1    2    0    0 -0.30582625128E+02  0.46239384181E+01 -0.26391032597E+02  0.50528875959E+02  0.30000048966E+02 0.  0.
         12    1    1    2    0    0  0.30582625128E+02 -0.46239384181E+01  0.26391032597E+02  0.40659124041E+02  0.00000000000E+00 0. -1.
         11    1    3    3    0    0 -0.13425664213E+01  0.39960693268E+00  0.29217468618E+01  0.32401813656E+01  0.51100000000E-03 0. -1.
        -11    1    3    3    0    0 -0.25730502330E+02 -0.42062177103E+01 -0.14352316360E+02  0.29761384422E+02  0.51100000000E-03 0.  1.
        -12    1    3    3    0    0 -0.35095563769E+01  0.84305491957E+01 -0.14960463099E+02  0.17527310171E+02  0.00000000000E+00 0.  1.
</event>
<event>
 7    1  0.6245487E-013  0.5052887E+02  0.7816164E-02  0.1300439E+00
        -11   -1    0    0    0    0  0.00000000000E+00  0.00000000000E+00  0.45593999997E+02  0.45594000000E+02  0.51100000000E-03 0.  1.
         11   -1    0    0    0    0 -0.00000000000E+00 -0.00000000000E+00 -0.45593999997E+02  0.45594000000E+02  0.51100000000E-03 0. -1.
    9900012    2    1    2    0    0  0.15822129851E+02 -0.34302856464E+01  0.37296892224E+02  0.50528870371E+02  0.30000031980E+02 0.  0.
         12    1    1    2    0    0 -0.15822129851E+02  0.34302856464E+01 -0.37296892224E+02  0.40659129629E+02  0.00000000000E+00 0. -1.
         11    1    3    3    0    0  0.57045409042E+00 -0.39243828437E+01  0.17005357901E+02  0.17461626390E+02  0.51100000000E-03 0. -1.
        -11    1    3    3    0    0 -0.16839433594E+01  0.63625389284E+01  0.11148720356E+02  0.12946487272E+02  0.51100000000E-03 0.  1.
        -12    1    3    3    0    0  0.16935619120E+02 -0.58684417311E+01  0.91428139669E+01  0.20120756709E+02  0.00000000000E+00 0.  1.
</event>
<event>
 7    1  0.6245487E-013  0.5052886E+02  0.7816164E-02  0.1300439E+00
        -11   -1    0    0    0    0  0.00000000000E+00  0.00000000000E+00  0.45593999997E+02  0.45594000000E+02  0.51100000000E-03 0. -1.
         11   -1    0    0    0    0 -0.00000000000E+00 -0.00000000000E+00 -0.45593999997E+02  0.45594000000E+02  0.51100000000E-03 0.  1.
    9900012    2    1    2    0    0 -0.39466108339E+02  0.11991069744E+01  0.97033197045E+01  0.50528856154E+02  0.29999988767E+02 0.  0.
         12    1    1    2    0    0  0.39466108339E+02 -0.11991069744E+01 -0.97033197045E+01  0.40659143846E+02  0.00000000000E+00 0. -1.
         11    1    3    3    0    0  0.36251078189E+00 -0.21337286762E+01 -0.23220021768E+01  0.31742568423E+01  0.51100000000E-03 0. -1.
        -11    1    3    3    0    0 -0.26766178601E+02 -0.17882807582E+01 -0.27652305590E+01  0.26967995203E+02  0.51100000000E-03 0.  1.
        -12    1    3    3    0    0 -0.13062440520E+02  0.51211164089E+01  0.14790552440E+02  0.20386604109E+02  0.00000000000E+00 0.  1.
</event>
<event>
 7    1  0.6245487E-013  0.5052885E+02  0.7816164E-02  0.1300439E+00
        -11   -1    0    0    0    0  0.00000000000E+00  0.00000000000E+00  0.45593999997E+02  0.45594000000E+02  0.51100000000E-03 0.  1.
         11   -1    0    0    0    0 -0.00000000000E+00 -0.00000000000E+00 -0.45593999997E+02  0.45594000000E+02  0.51100000000E-03 0. -1.
    9900012    2    1    2    0    0 -0.36344410048E+02 -0.14187326759E+02  0.11444208407E+02  0.50528852341E+02  0.29999977176E+02 0.  0.
         12    1    1    2    0    0  0.36344410048E+02  0.14187326759E+02 -0.11444208407E+02  0.40659147659E+02  0.00000000000E+00 0. -1.
         11    1    3    3    0    0 -0.21178122184E+02 -0.77540629326E+00 -0.34090610617E+01  0.21464757435E+02  0.51100000000E-03 0. -1.
        -11    1    3    3    0    0 -0.12567401325E+01 -0.70295158181E+01 -0.78424858266E+00  0.71839080241E+01  0.51100000000E-03 0.  1.
        -12    1    3    3    0    0 -0.13909547732E+02 -0.63824046472E+01  0.15637518051E+02  0.21880186882E+02  0.00000000000E+00 0.  1.
</event>
<event>
 7    1  0.6245487E-013  0.5052887E+02  0.7816164E-02  0.1300439E+00
        -11   -1    0    0    0    0  0.00000000000E+00  0.00000000000E+00  0.45593999997E+02  0.45594000000E+02  0.51100000000E-03 0.  1.
         11   -1    0    0    0    0 -0.00000000000E+00 -0.00000000000E+00 -0.45593999997E+02  0.45594000000E+02  0.51100000000E-03 0. -1.
    9900012    2    1    2    0    0 -0.21127419418E+02  0.11192404209E+02  0.32886574999E+02  0.50528873369E+02  0.30000041092E+02 0.  0.
         12    1    1    2    0    0  0.21127419418E+02 -0.11192404209E+02 -0.32886574999E+02  0.40659126631E+02  0.00000000000E+00 0. -1.
         11    1    3    3    0    0  0.53715305071E+00 -0.53095166694E+00 -0.18968393903E+01  0.20416765185E+01  0.51100000000E-03 0. -1.
        -11    1    3    3    0    0 -0.11842984820E+02 -0.54345328807E+01  0.19703232868E+02  0.23622189204E+02  0.51100000000E-03 0.  1.
        -12    1    3    3    0    0 -0.98215876494E+01  0.17157888757E+02  0.15080181521E+02  0.24865007646E+02  0.00000000000E+00 0.  1.
</event>
<event>
 7    1  0.6245487E-013  0.5052878E+02  0.7816164E-02  0.1300439E+00
        -11   -1    0    0    0    0  0.00000000000E+00  0.00000000000E+00  0.45593999997E+02  0.45594000000E+02  0.51100000000E-03 0.  1.
         11   -1    0    0    0    0 -0.00000000000E+00 -0.00000000000E+00 -0.45593999997E+02  0.45594000000E+02  0.51100000000E-03 0. -1.
    9900012    2    1    2    0    0 -0.17132108055E+02  0.23217063984E+02  0.28646657381E+02  0.50528780067E+02  0.29999757491E+02 0.  0.
         12    1    1    2    0    0  0.17132108055E+02 -0.23217063984E+02 -0.28646657381E+02  0.40659219933E+02  0.00000000000E+00 0. -1.
         11    1    3    3    0    0 -0.12151188322E+01 -0.51368778981E-01  0.19281868095E+02  0.19320186077E+02  0.51100000000E-03 0. -1.
        -11    1    3    3    0    0  0.43311190392E+00  0.16986583624E+01  0.28877128375E+01  0.33781521349E+01  0.51100000000E-03 0.  1.
        -12    1    3    3    0    0 -0.16350101127E+02  0.21569774400E+02  0.64770764483E+01  0.27830441855E+02  0.00000000000E+00 0.  1.
</event>
<event>
 7    1  0.6245487E-013  0.5052879E+02  0.7816164E-02  0.1300439E+00
        -11   -1    0    0    0    0  0.00000000000E+00  0.00000000000E+00  0.45593999997E+02  0.45594000000E+02  0.51100000000E-03 0. -1.
         11   -1    0    0    0    0 -0.00000000000E+00 -0.00000000000E+00 -0.45593999997E+02  0.45594000000E+02  0.51100000000E-03 0.  1.
    9900012    2    1    2    0    0  0.16570560217E+02 -0.11994471625E+02 -0.35138586346E+02  0.50528793591E+02  0.29999798598E+02 0.  0.
         12    1    1    2    0    0 -0.16570560217E+02  0.11994471625E+02  0.35138586346E+02  0.40659206409E+02  0.00000000000E+00 0. -1.
         11    1    3    3    0    0 -0.18446262739E+01 -0.13345507814E+01  0.14325483328E+01  0.26899566661E+01  0.51100000000E-03 0. -1.
        -11    1    3    3    0    0  0.12980783869E+02 -0.34791902637E+01 -0.39645233888E+01  0.14011529563E+02  0.51100000000E-03 0.  1.
         12    1    3    3    0    0  0.54344026216E+01 -0.71807305805E+01 -0.32606611289E+02  0.33827307361E+02  0.00000000000E+00 0. -1.
</event>
<event>
 7    1  0.6245487E-013  0.5052886E+02  0.7816164E-02  0.1300439E+00
        -11   -1    0    0    0    0  0.00000000000E+00  0.00000000000E+00  0.45593999997E+02  0.45594000000E+02  0.51100000000E-03 0.  1.
         11   -1    0    0    0    0 -0.00000000000E+00 -0.00000000000E+00 -0.45593999997E+02  0.45594000000E+02  0.51100000000E-03 0. -1.
    9900012    2    1    2    0    0  0.58998626809E+01  0.13270928768E+02  0.37976835713E+02  0.50528856123E+02  0.29999988671E+02 0.  0.
         12    1    1    2    0    0 -0.58998626809E+01 -0.13270928768E+02 -0.37976835713E+02  0.40659143877E+02  0.00000000000E+00 0. -1.
         11    1    3    3    0    0  0.99105744904E-01 -0.49828225733E+01  0.16059835700E+01  0.52361747711E+01  0.51100000000E-03 0. -1.
        -11    1    3    3    0    0 -0.56870270345E+01  0.49405011261E+01  0.41880589058E+01  0.86192033001E+01  0.51100000000E-03 0.  1.
        -12    1    3    3    0    0  0.11487783971E+02  0.13313250215E+02  0.32182793237E+02  0.36673478052E+02  0.00000000000E+00 0.  1.
</event>
<event>
 7    1  0.6245487E-013  0.5052885E+02  0.7816164E-02  0.1300439E+00
        -11   -1    0    0    0    0  0.00000000000E+00  0.00000000000E+00  0.45593999997E+02  0.45594000000E+02  0.51100000000E-03 0.  1.
         11   -1    0    0    0    0 -0.00000000000E+00 -0.00000000000E+00 -0.45593999997E+02  0.45594000000E+02  0.51100000000E-03 0. -1.
    9900012    2    1    2    0    0  0.23612100202E+01  0.70153424093E+01  0.39979696102E+02  0.50528850448E+02  0.29999971423E+02 0.  0.
         12    1    1    2    0    0 -0.23612100202E+01 -0.70153424093E+01 -0.39979696102E+02  0.40659149552E+02  0.00000000000E+00 0. -1.
         11    1    3    3    0    0  0.17662217981E+01  0.98063698485E+01  0.24757136142E+02  0.26687079631E+02  0.51100000000E-03 0. -1.
        -11    1    3    3    0    0  0.60902466587E+01 -0.15821317695E+01  0.16848278160E+02  0.17984958229E+02  0.51100000000E-03 0.  1.
         12    1    3    3    0    0 -0.54952584366E+01 -0.12088956697E+01 -0.16257181997E+01  0.58568125880E+01  0.00000000000E+00 0. -1.
</event>
<event>
 7    1  0.6245487E-013  0.5052886E+02  0.7816164E-02  0.1300439E+00
        -11   -1    0    0    0    0  0.00000000000E+00  0.00000000000E+00  0.45593999997E+02  0.45594000000E+02  0.51100000000E-03 0.  1.
         11   -1    0    0    0    0 -0.00000000000E+00 -0.00000000000E+00 -0.45593999997E+02  0.45594000000E+02  0.51100000000E-03 0. -1.
    9900012    2    1    2    0    0 -0.36821474516E+02 -0.15830851401E+02 -0.68358778188E+01  0.50528855062E+02  0.29999985445E+02 0.  0.
         12    1    1    2    0    0  0.36821474516E+02  0.15830851401E+02  0.68358778188E+01  0.40659144938E+02  0.00000000000E+00 0. -1.
         11    1    3    3    0    0 -0.21933012621E+02 -0.73009898297E+01 -0.15753586271E+02  0.27973862368E+02  0.51100000000E-03 0. -1.
        -11    1    3    3    0    0 -0.14728086986E+02 -0.32390557813E+01  0.47266686523E+01  0.15803462451E+02  0.51100000000E-03 0.  1.
         12    1    3    3    0    0 -0.16037490833E+00 -0.52908057897E+01  0.41910397996E+01  0.67515302426E+01  0.00000000000E+00 0. -1.
</event>
<event>
 7    1  0.6245487E-013  0.5052886E+02  0.7816164E-02  0.1300439E+00
        -11   -1    0    0    0    0  0.00000000000E+00  0.00000000000E+00  0.45593999997E+02  0.45594000000E+02  0.51100000000E-03 0. -1.
         11   -1    0    0    0    0 -0.00000000000E+00 -0.00000000000E+00 -0.45593999997E+02  0.45594000000E+02  0.51100000000E-03 0.  1.
    9900012    2    1    2    0    0 -0.31911841633E+02 -0.19378691376E+02 -0.16101747464E+02  0.50528860963E+02  0.30000003382E+02 0.  0.
         12    1    1    2    0    0  0.31911841633E+02  0.19378691376E+02  0.16101747464E+02  0.40659139037E+02  0.00000000000E+00 0. -1.
         11    1    3    3    0    0 -0.99649556838E+00 -0.11795534262E+01 -0.11846482838E+02  0.11946694338E+02  0.51100000000E-03 0. -1.
        -11    1    3    3    0    0 -0.29823888551E+01 -0.41784909957E+01  0.37039533698E+01  0.63303792234E+01  0.51100000000E-03 0.  1.
        -12    1    3    3    0    0 -0.27932957209E+02 -0.14020646955E+02 -0.79592179955E+01  0.32251787401E+02  0.00000000000E+00 0.  1.
</event>
<event>
 7    1  0.6245487E-013  0.5052889E+02  0.7816164E-02  0.1300439E+00
        -11   -1    0    0    0    0  0.00000000000E+00  0.00000000000E+00  0.45593999997E+02  0.45594000000E+02  0.51100000000E-03 0.  1.
         11   -1    0    0    0    0 -0.00000000000E+00 -0.00000000000E+00 -0.45593999997E+02  0.45594000000E+02  0.51100000000E-03 0. -1.
    9900012    2    1    2    0    0 -0.21661619931E+02  0.26510866219E+02 -0.21934260485E+02  0.50528885539E+02  0.30000078084E+02 0.  0.
         12    1    1    2    0    0  0.21661619931E+02 -0.26510866219E+02  0.21934260485E+02  0.40659114461E+02  0.00000000000E+00 0. -1.
         11    1    3    3    0    0 -0.51987574357E+01  0.98088656288E+01  0.17273373963E+01  0.11234973010E+02  0.51100000000E-03 0. -1.
        -11    1    3    3    0    0 -0.39416474716E+01  0.12847739042E+02 -0.14636653724E+01  0.13518258019E+02  0.51100000000E-03 0.  1.
         12    1    3    3    0    0 -0.12521215024E+02  0.38542615485E+01 -0.22197932509E+02  0.25775654510E+02  0.00000000000E+00 0. -1.
</event>
<event>
 7    1  0.6245487E-013  0.5052886E+02  0.7816164E-02  0.1300439E+00
        -11   -1    0    0    0    0  0.00000000000E+00  0.00000000000E+00  0.45593999997E+02  0.45594000000E+02  0.51100000000E-03 0.  1.
         11   -1    0    0    0    0 -0.00000000000E+00 -0.00000000000E+00 -0.45593999997E+02  0.45594000000E+02  0.51100000000E-03 0. -1.
    9900012    2    1    2    0    0  0.12843316763E+02 -0.31993681140E+00  0.38576057437E+02  0.50528863851E+02  0.30000012162E+02 0.  0.
         12    1    1    2    0    0 -0.12843316763E+02  0.31993681140E+00 -0.38576057437E+02  0.40659136149E+02  0.00000000000E+00 0. -1.
         11    1    3    3    0    0  0.34571292306E+01  0.18025630877E+01 -0.28664987417E+01  0.48391932695E+01  0.51100000000E-03 0. -1.
        -11    1    3    3    0    0 -0.12306678844E+01 -0.71958074676E+01  0.18899709293E+02  0.20260631781E+02  0.51100000000E-03 0.  1.
        -12    1    3    3    0    0  0.10616855416E+02  0.50733075685E+01  0.22542846886E+02  0.25429038801E+02  0.00000000000E+00 0.  1.
</event>
<event>
 7    1  0.6245487E-013  0.5052886E+02  0.7816164E-02  0.1300439E+00
        -11   -1    0    0    0    0  0.00000000000E+00  0.00000000000E+00  0.45593999997E+02  0.45594000000E+02  0.51100000000E-03 0. -1.
         11   -1    0    0    0    0 -0.00000000000E+00 -0.00000000000E+00 -0.45593999997E+02  0.45594000000E+02  0.51100000000E-03 0.  1.
    9900012    2    1    2    0    0 -0.86333823368E+01  0.39368518184E+02  0.53619043140E+01  0.50528861637E+02  0.30000005431E+02 0.  0.
         12    1    1    2    0    0  0.86333823368E+01 -0.39368518184E+02 -0.53619043140E+01  0.40659138363E+02  0.00000000000E+00 0. -1.
         11    1    3    3    0    0 -0.15963683565E+01  0.17429163954E+00 -0.20623157418E+01  0.26137934090E+01  0.51100000000E-03 0.  1.
        -11    1    3    3    0    0 -0.54399102614E+01  0.39798084524E+02 -0.13197086849E+00  0.40168365314E+02  0.51100000000E-03 0. -1.
         12    1    3    3    0    0 -0.15971037189E+01 -0.60385797930E+00  0.75561909243E+01  0.77467029136E+01  0.00000000000E+00 0. -1.
</event>
<event>
 7    1  0.6245487E-013  0.5052886E+02  0.7816164E-02  0.1300439E+00
        -11   -1    0    0    0    0  0.00000000000E+00  0.00000000000E+00  0.45593999997E+02  0.45594000000E+02  0.51100000000E-03 0. -1.
         11   -1    0    0    0    0 -0.00000000000E+00 -0.00000000000E+00 -0.45593999997E+02  0.45594000000E+02  0.51100000000E-03 0.  1.
    9900012    2    1    2    0    0  0.86449199477E+01  0.15067961912E+02 -0.36761219400E+02  0.50528863648E+02  0.30000011545E+02 0.  0.
         12    1    1    2    0    0 -0.86449199477E+01 -0.15067961912E+02  0.36761219400E+02  0.40659136352E+02  0.00000000000E+00 0. -1.
         11    1    3    3    0    0  0.14750802901E+01  0.27708252019E+01 -0.14849043752E+02  0.15177201150E+02  0.51100000000E-03 0. -1.
        -11    1    3    3    0    0  0.12968823072E+02  0.14331934205E+02 -0.21895136403E+02  0.29206021781E+02  0.51100000000E-03 0.  1.
         12    1    3    3    0    0 -0.57989834140E+01 -0.20347974945E+01 -0.17039245579E-01  0.61456407164E+01  0.00000000000E+00 0. -1.
</event>
<event>
 7    1  0.6245487E-013  0.5052894E+02  0.7816164E-02  0.1300439E+00
        -11   -1    0    0    0    0  0.00000000000E+00  0.00000000000E+00  0.45593999997E+02  0.45594000000E+02  0.51100000000E-03 0.  1.
         11   -1    0    0    0    0 -0.00000000000E+00 -0.00000000000E+00 -0.45593999997E+02  0.45594000000E+02  0.51100000000E-03 0. -1.
    9900012    2    1    2    0    0  0.28703008097E+02  0.26225987701E+02  0.11895130772E+02  0.50528939008E+02  0.30000240607E+02 0.  0.
         12    1    1    2    0    0 -0.28703008097E+02 -0.26225987701E+02 -0.11895130772E+02  0.40659060992E+02  0.00000000000E+00 0. -1.
         11    1    3    3    0    0  0.22344528054E+02  0.19877125614E+02  0.32327838844E+01  0.30080374807E+02  0.51100000000E-03 0. -1.
        -11    1    3    3    0    0  0.13592825543E+01  0.24177198675E+01 -0.48089724720E+01  0.55515074455E+01  0.51100000000E-03 0.  1.
        -12    1    3    3    0    0  0.49991974882E+01  0.39311422192E+01  0.13471319359E+02  0.14897056755E+02  0.00000000000E+00 0.  1.
</event>
<event>
 7    1  0.6245487E-013  0.5052886E+02  0.7816164E-02  0.1300439E+00
        -11   -1    0    0    0    0  0.00000000000E+00  0.00000000000E+00  0.45593999997E+02  0.45594000000E+02  0.51100000000E-03 0.  1.
         11   -1    0    0    0    0 -0.00000000000E+00 -0.00000000000E+00 -0.45593999997E+02  0.45594000000E+02  0.51100000000E-03 0. -1.
    9900012    2    1    2    0    0  0.39791811804E+01  0.10713122821E+01  0.40449774426E+02  0.50528857805E+02  0.29999993785E+02 0.  0.
         12    1    1    2    0    0 -0.39791811804E+01 -0.10713122821E+01 -0.40449774426E+02  0.40659142195E+02  0.00000000000E+00 0. -1.
         11    1    3    3    0    0  0.14014479862E+01  0.92782916908E+01  0.42660639013E+01  0.10307766714E+02  0.51100000000E-03 0. -1.
        -11    1    3    3    0    0 -0.53093664842E+01 -0.58764692805E+01  0.98843750572E+01  0.12665825445E+02  0.51100000000E-03 0.  1.
         12    1    3    3    0    0  0.78870996785E+01 -0.23305101281E+01  0.26299335468E+02  0.27555265646E+02  0.00000000000E+00 0. -1.
</event>
<event>
 7    1  0.6245487E-013  0.5052886E+02  0.7816164E-02  0.1300439E+00
        -11   -1    0    0    0    0  0.00000000000E+00  0.00000000000E+00  0.45593999997E+02  0.45594000000E+02  0.51100000000E-03 0.  1.
         11   -1    0    0    0    0 -0.00000000000E+00 -0.00000000000E+00 -0.45593999997E+02  0.45594000000E+02  0.51100000000E-03 0. -1.
    9900012    2    1    2    0    0 -0.37886129709E+02  0.10939235489E+02  0.99065684518E+01  0.50528858397E+02  0.29999995584E+02 0.  0.
         12    1    1    2    0    0  0.37886129709E+02 -0.10939235489E+02 -0.99065684518E+01  0.40659141603E+02  0.00000000000E+00 0. -1.
         11    1    3    3    0    0 -0.21840772064E+01 -0.73647160711E+00  0.44439636886E+01  0.50061359548E+01  0.51100000000E-03 0. -1.
        -11    1    3    3    0    0 -0.11458164907E+02  0.38829243087E+01  0.14149290209E+02  0.18616365325E+02  0.51100000000E-03 0.  1.
         12    1    3    3    0    0 -0.24243887595E+02  0.77927827878E+01 -0.86866854458E+01  0.26906357118E+02  0.00000000000E+00 0. -1.
</event>
<event>
 7    1  0.6245487E-013  0.5052886E+02  0.7816164E-02  0.1300439E+00
        -11   -1    0    0    0    0  0.00000000000E+00  0.00000000000E+00  0.45593999997E+02  0.45594000000E+02  0.51100000000E-03 0. -1.
         11   -1    0    0    0    0 -0.00000000000E+00 -0.00000000000E+00 -0.45593999997E+02  0.45594000000E+02  0.51100000000E-03 0.  1.
    9900012    2    1    2    0    0  0.26437693638E+02 -0.29419291298E+02 -0.94190840969E+01  0.50528862151E+02  0.30000006996E+02 0.  0.
         12    1    1    2    0    0 -0.26437693638E+02  0.29419291298E+02  0.94190840969E+01  0.40659137849E+02  0.00000000000E+00 0. -1.
         11    1    3    3    0    0  0.13179897361E+02 -0.50645743233E+01 -0.27163662864E+01  0.14378395376E+02  0.51100000000E-03 0. -1.
        -11    1    3    3    0    0  0.67457250036E+01 -0.44633102141E+01  0.73589597569E+01  0.10935274704E+02  0.51100000000E-03 0.  1.
         12    1    3    3    0    0  0.65120712729E+01 -0.19891406760E+02 -0.14061677567E+02  0.25215192071E+02  0.00000000000E+00 0. -1.
</event>
<event>
 7    1  0.6245487E-013  0.5052886E+02  0.7816164E-02  0.1300439E+00
        -11   -1    0    0    0    0  0.00000000000E+00  0.00000000000E+00  0.45593999997E+02  0.45594000000E+02  0.51100000000E-03 0.  1.
         11   -1    0    0    0    0 -0.00000000000E+00 -0.00000000000E+00 -0.45593999997E+02  0.45594000000E+02  0.51100000000E-03 0. -1.
    9900012    2    1    2    0    0  0.68754203770E+01 -0.14719839729E+01  0.40046564990E+02  0.50528861917E+02  0.30000006281E+02 0.  0.
         12    1    1    2    0    0 -0.68754203770E+01  0.14719839729E+01 -0.40046564990E+02  0.40659138083E+02  0.00000000000E+00 0. -1.
         11    1    3    3    0    0 -0.90649943363E+00  0.43884769938E+01  0.95758977231E+01  0.10572525196E+02  0.51100000000E-03 0. -1.
        -11    1    3    3    0    0  0.12912411461E+00 -0.53457884222E+00 -0.41070187126E+01  0.41436759697E+01  0.51100000000E-03 0.  1.
        -12    1    3    3    0    0  0.76527956960E+01 -0.53258821245E+01  0.34577685980E+02  0.35812660751E+02  0.00000000000E+00 0.  1.
</event>
<event>
 7    1  0.6245487E-013  0.5052884E+02  0.7816164E-02  0.1300439E+00
        -11   -1    0    0    0    0  0.00000000000E+00  0.00000000000E+00  0.45593999997E+02  0.45594000000E+02  0.51100000000E-03 0.  1.
         11   -1    0    0    0    0 -0.00000000000E+00 -0.00000000000E+00 -0.45593999997E+02  0.45594000000E+02  0.51100000000E-03 0. -1.
    9900012    2    1    2    0    0 -0.31089698005E+02  0.69262548504E+01  0.25271023184E+02  0.50528844314E+02  0.29999952778E+02 0.  0.
         12    1    1    2    0    0  0.31089698005E+02 -0.69262548504E+01 -0.25271023184E+02  0.40659155686E+02  0.00000000000E+00 0. -1.
         11    1    3    3    0    0 -0.64158935495E+01 -0.78030006025E+01  0.68533813424E+01  0.12207347973E+02  0.51100000000E-03 0. -1.
        -11    1    3    3    0    0 -0.23488432329E+02  0.57416305184E+01  0.10808018721E+02  0.26485581798E+02  0.51100000000E-03 0.  1.
        -12    1    3    3    0    0 -0.11853721270E+01  0.89876249345E+01  0.76096231203E+01  0.11835914543E+02  0.00000000000E+00 0.  1.
</event>
<event>
 7    1  0.6245487E-013  0.5052887E+02  0.7816164E-02  0.1300439E+00
        -11   -1    0    0    0    0  0.00000000000E+00  0.00000000000E+00  0.45593999997E+02  0.45594000000E+02  0.51100000000E-03 0.  1.
         11   -1    0    0    0    0 -0.00000000000E+00 -0.00000000000E+00 -0.45593999997E+02  0.45594000000E+02  0.51100000000E-03 0. -1.
    9900012    2    1    2    0    0  0.26985490334E+02  0.28236936260E+02  0.11297050530E+02  0.50528872997E+02  0.30000039962E+02 0.  0.
         12    1    1    2    0    0 -0.26985490334E+02 -0.28236936260E+02 -0.11297050530E+02  0.40659127003E+02  0.00000000000E+00 0. -1.
         11    1    3    3    0    0  0.11944571888E+02  0.27377090197E+02 -0.15035143728E+01  0.29907163372E+02  0.51100000000E-03 0. -1.
        -11    1    3    3    0    0  0.50239142337E+01  0.28972641206E+01  0.33341647064E+01  0.66895820619E+01  0.51100000000E-03 0.  1.
         12    1    3    3    0    0  0.10017004213E+02 -0.20374180574E+01  0.94664001968E+01  0.13932127563E+02  0.00000000000E+00 0. -1.
</event>
<event>
 7    1  0.6245487E-013  0.5052885E+02  0.7816164E-02  0.1300439E+00
        -11   -1    0    0    0    0  0.00000000000E+00  0.00000000000E+00  0.45593999997E+02  0.45594000000E+02  0.51100000000E-03 0.  1.
         11   -1    0    0    0    0 -0.00000000000E+00 -0.00000000000E+00 -0.45593999997E+02  0.45594000000E+02  0.51100000000E-03 0. -1.
    9900012    2    1    2    0    0  0.13760323331E+02 -0.32612951364E+02  0.20005376291E+02  0.50528853730E+02  0.29999981398E+02 0.  0.
         12    1    1    2    0    0 -0.13760323331E+02  0.32612951364E+02 -0.20005376291E+02  0.40659146270E+02  0.00000000000E+00 0. -1.
         11    1    3    3    0    0  0.50203369695E+01 -0.18652384795E+00  0.34303463443E+01  0.60832434389E+01  0.51100000000E-03 0. -1.
        -11    1    3    3    0    0 -0.75701398446E+01 -0.15184009199E+02  0.34143283962E+01  0.17306611202E+02  0.51100000000E-03 0.  1.
         12    1    3    3    0    0  0.16310126206E+02 -0.17242418317E+02  0.13160701551E+02  0.27138999089E+02  0.00000000000E+00 0. -1.
</event>
<event>
 7    1  0.6245487E-013  0.5052889E+02  0.7816164E-02  0.1300439E+00
        -11   -1    0    0    0    0  0.00000000000E+00  0.00000000000E+00  0.45593999997E+02  0.45594000000E+02  0.51100000000E-03 0.  1.
         11   -1    0    0    0    0 -0.00000000000E+00 -0.00000000000E+00 -0.45593999997E+02  0.45594000000E+02  0.51100000000E-03 0. -1.
    9900012    2    1    2    0    0 -0.31347310335E+02 -0.25360710210E+02  0.52291246351E+01  0.50528889926E+02  0.30000091418E+02 0.  0.
         12    1    1    2    0    0  0.31347310335E+02  0.25360710210E+02 -0.52291246351E+01  0.40659110074E+02  0.00000000000E+00 0. -1.
         11    1    3    3    0    0 -0.80535602647E+01 -0.87749882822E+01  0.91853638316E+01  0.15040982723E+02  0.51100000000E-03 0.  1.
        -11    1    3    3    0    0 -0.16355033187E+02 -0.20463221610E+02  0.83063843511E+00  0.26209168428E+02  0.51100000000E-03 0. -1.
         12    1    3    3    0    0 -0.69387168837E+01  0.38774996831E+01 -0.47868776316E+01  0.92787387745E+01  0.00000000000E+00 0. -1.
</event>
<event>
 7    1  0.6245487E-013  0.5052886E+02  0.7816164E-02  0.1300439E+00
        -11   -1    0    0    0    0  0.00000000000E+00  0.00000000000E+00  0.45593999997E+02  0.45594000000E+02  0.51100000000E-03 0.  1.
         11   -1    0    0    0    0 -0.00000000000E+00 -0.00000000000E+00 -0.45593999997E+02  0.45594000000E+02  0.51100000000E-03 0. -1.
    9900012    2    1    2    0    0  0.21478424093E+02  0.14488452088E+02  0.31335722217E+02  0.50528862868E+02  0.30000009175E+02 0.  0.
         12    1    1    2    0    0 -0.21478424093E+02 -0.14488452088E+02 -0.31335722217E+02  0.40659137132E+02  0.00000000000E+00 0. -1.
         11    1    3    3    0    0  0.31620046198E+01 -0.41821246675E+01  0.11666782585E+02  0.12790709758E+02  0.51100000000E-03 0. -1.
        -11    1    3    3    0    0  0.62807055769E+01 -0.23521504847E+01  0.91105623238E+01  0.11312922724E+02  0.51100000000E-03 0.  1.
        -12    1    3    3    0    0  0.12035713896E+02  0.21022727240E+02  0.10558377308E+02  0.26425230387E+02  0.00000000000E+00 0.  1.
</event>
<event>
 7    1  0.6245487E-013  0.5052886E+02  0.7816164E-02  0.1300439E+00
        -11   -1    0    0    0    0  0.00000000000E+00  0.00000000000E+00  0.45593999997E+02  0.45594000000E+02  0.51100000000E-03 0. -1.
         11   -1    0    0    0    0 -0.00000000000E+00 -0.00000000000E+00 -0.45593999997E+02  0.45594000000E+02  0.51100000000E-03 0.  1.
    9900012    2    1    2    0    0 -0.25083481227E+02 -0.54835945480E+01 -0.31526410076E+02  0.50528863611E+02  0.30000011432E+02 0.  0.
         12    1    1    2    0    0  0.25083481227E+02  0.54835945480E+01  0.31526410076E+02  0.40659136389E+02  0.00000000000E+00 0. -1.
         11    1    3    3    0    0 -0.18074089530E+01  0.92654879138E+01 -0.72647766927E+01  0.11911883733E+02  0.51100000000E-03 0. -1.
        -11    1    3    3    0    0  0.42106828017E+00 -0.33292966485E+01 -0.99935008901E+00  0.35014590576E+01  0.51100000000E-03 0.  1.
         12    1    3    3    0    0 -0.23697140554E+02 -0.11419785813E+02 -0.23262283294E+02  0.35115520821E+02  0.00000000000E+00 0. -1.
</event>
<event>
 7    1  0.6326412E-013  0.5052888E+02  0.7816164E-02  0.1300439E+00
        -11   -1    0    0    0    0  0.00000000000E+00  0.00000000000E+00  0.45593999997E+02  0.45594000000E+02  0.51100000000E-03 0.  1.
         11   -1    0    0    0    0 -0.00000000000E+00 -0.00000000000E+00 -0.45593999997E+02  0.45594000000E+02  0.51100000000E-03 0. -1.
    9900012    2    1    2    0    0  0.49995752894E+01 -0.39647166911E+02  0.75013452085E+01  0.50528883223E+02  0.30000071046E+02 0.  0.
         12    1    1    2    0    0 -0.49995752894E+01  0.39647166911E+02 -0.75013452085E+01  0.40659116777E+02  0.00000000000E+00 0. -1.
         11    1    3    3    0    0 -0.58319901397E+01 -0.10732718172E+02  0.99322076958E+01  0.15743319165E+02  0.51100000000E-03 0. -1.
        -11    1    3    3    0    0  0.34256073844E+01  0.79121509072E+00 -0.22424190077E+01  0.41700420308E+01  0.51100000000E-03 0.  1.
        -12    1    3    3    0    0  0.74059580447E+01 -0.29705663829E+02 -0.18844347956E+00  0.30615522028E+02  0.00000000000E+00 0.  1.
</event>
<event>
 7    1  0.6245487E-013  0.5052886E+02  0.7816164E-02  0.1300439E+00
        -11   -1    0    0    0    0  0.00000000000E+00  0.00000000000E+00  0.45593999997E+02  0.45594000000E+02  0.51100000000E-03 0.  1.
         11   -1    0    0    0    0 -0.00000000000E+00 -0.00000000000E+00 -0.45593999997E+02  0.45594000000E+02  0.51100000000E-03 0. -1.
    9900012    2    1    2    0    0 -0.79249017427E+01 -0.31785591895E+02  0.24083975914E+02  0.50528858155E+02  0.29999994847E+02 0.  0.
         12    1    1    2    0    0  0.79249017427E+01  0.31785591895E+02 -0.24083975914E+02  0.40659141845E+02  0.00000000000E+00 0. -1.
         11    1    3    3    0    0  0.11028018956E+01  0.68001969692E+00 -0.41854345564E-01  0.12962834785E+01  0.51100000000E-03 0. -1.
        -11    1    3    3    0    0 -0.17517609380E+02 -0.16151391046E+02  0.91805816543E+01  0.25534626508E+02  0.51100000000E-03 0.  1.
        -12    1    3    3    0    0  0.84899057417E+01 -0.16314220546E+02  0.14945248605E+02  0.23697948169E+02  0.00000000000E+00 0.  1.
</event>
<event>
 7    1  0.6245487E-013  0.5052885E+02  0.7816164E-02  0.1300439E+00
        -11   -1    0    0    0    0  0.00000000000E+00  0.00000000000E+00  0.45593999997E+02  0.45594000000E+02  0.51100000000E-03 0. -1.
         11   -1    0    0    0    0 -0.00000000000E+00 -0.00000000000E+00 -0.45593999997E+02  0.45594000000E+02  0.51100000000E-03 0.  1.
    9900012    2    1    2    0    0 -0.39731082303E+02  0.68250820686E+01  0.52939266201E+01  0.50528852133E+02  0.29999976542E+02 0.  0.
         12    1    1    2    0    0  0.39731082303E+02 -0.68250820686E+01 -0.52939266201E+01  0.40659147867E+02  0.00000000000E+00 0. -1.
         11    1    3    3    0    0 -0.97124231533E+01 -0.58382436228E+01  0.30060812326E+01  0.11724025620E+02  0.51100000000E-03 0. -1.
        -11    1    3    3    0    0 -0.71252885648E+01 -0.28149042946E+00 -0.78623324046E+01  0.10614388588E+02  0.51100000000E-03 0.  1.
         12    1    3    3    0    0 -0.22893370585E+02  0.12944816121E+02  0.10150177792E+02  0.28190437924E+02  0.00000000000E+00 0. -1.
</event>
<event>
 7    1  0.6404553E-013  0.5052886E+02  0.7816164E-02  0.1300439E+00
        -11   -1    0    0    0    0  0.00000000000E+00  0.00000000000E+00  0.45593999997E+02  0.45594000000E+02  0.51100000000E-03 0.  1.
         11   -1    0    0    0    0 -0.00000000000E+00 -0.00000000000E+00 -0.45593999997E+02  0.45594000000E+02  0.51100000000E-03 0. -1.
    9900012    2    1    2    0    0  0.54092806424E+01 -0.17823660012E+02  0.36141695570E+02  0.50528864102E+02  0.30000012924E+02 0.  0.
         12    1    1    2    0    0 -0.54092806424E+01  0.17823660012E+02 -0.36141695570E+02  0.40659135898E+02  0.00000000000E+00 0. -1.
         11    1    3    3    0    0 -0.11287916013E+01 -0.19214640220E+00 -0.36385252032E+01  0.38144405402E+01  0.51100000000E-03 0. -1.
        -11    1    3    3    0    0  0.78200030660E+01 -0.10554532784E+02  0.11260194542E+02  0.17301519922E+02  0.51100000000E-03 0.  1.
        -12    1    3    3    0    0 -0.12819308224E+01 -0.70769808252E+01  0.28520026232E+02  0.29412903640E+02  0.00000000000E+00 0.  1.
</event>
<event>
 7    1  0.6245487E-013  0.5052888E+02  0.7816164E-02  0.1300439E+00
        -11   -1    0    0    0    0  0.00000000000E+00  0.00000000000E+00  0.45593999997E+02  0.45594000000E+02  0.51100000000E-03 0.  1.
         11   -1    0    0    0    0 -0.00000000000E+00 -0.00000000000E+00 -0.45593999997E+02  0.45594000000E+02  0.51100000000E-03 0. -1.
    9900012    2    1    2    0    0  0.86466389056E+01  0.75821463013E+01  0.38998857221E+02  0.50528878373E+02  0.30000056303E+02 0.  0.
         12    1    1    2    0    0 -0.86466389056E+01 -0.75821463013E+01 -0.38998857221E+02  0.40659121627E+02  0.00000000000E+00 0. -1.
         11    1    3    3    0    0  0.39309828506E+01 -0.71570824443E+01  0.43736882884E+01  0.92631314787E+01  0.51100000000E-03 0. -1.
        -11    1    3    3    0    0  0.10620238822E+01  0.14319743608E+02  0.13126419823E+02  0.19454712780E+02  0.51100000000E-03 0.  1.
         12    1    3    3    0    0  0.36536321728E+01  0.41948513712E+00  0.21498749110E+02  0.21811034114E+02  0.00000000000E+00 0. -1.
</event>
<event>
 7    1  0.6245487E-013  0.5052880E+02  0.7816164E-02  0.1300439E+00
        -11   -1    0    0    0    0  0.00000000000E+00  0.00000000000E+00  0.45593999997E+02  0.45594000000E+02  0.51100000000E-03 0.  1.
         11   -1    0    0    0    0 -0.00000000000E+00 -0.00000000000E+00 -0.45593999997E+02  0.45594000000E+02  0.51100000000E-03 0. -1.
    9900012    2    1    2    0    0  0.34097475281E+01  0.28372149702E+02  0.28923433522E+02  0.50528803456E+02  0.29999828584E+02 0.  0.
         12    1    1    2    0    0 -0.34097475281E+01 -0.28372149702E+02 -0.28923433522E+02  0.40659196544E+02  0.00000000000E+00 0. -1.
         11    1    3    3    0    0  0.12420597535E+02  0.24401950397E+01  0.15130203335E+02  0.19726856013E+02  0.51100000000E-03 0. -1.
        -11    1    3    3    0    0 -0.81605787810E+00  0.47354923276E+01  0.20911965598E+01  0.52406050565E+01  0.51100000000E-03 0.  1.
         12    1    3    3    0    0 -0.81947921287E+01  0.21196462335E+02  0.11702033627E+02  0.25561342386E+02  0.00000000000E+00 0. -1.
</event>
<event>
 7    1  0.6245487E-013  0.5052890E+02  0.7816164E-02  0.1300439E+00
        -11   -1    0    0    0    0  0.00000000000E+00  0.00000000000E+00  0.45593999997E+02  0.45594000000E+02  0.51100000000E-03 0. -1.
         11   -1    0    0    0    0 -0.00000000000E+00 -0.00000000000E+00 -0.45593999997E+02  0.45594000000E+02  0.51100000000E-03 0.  1.
    9900012    2    1    2    0    0 -0.40424561253E+02  0.35377157089E+01  0.25498384678E+01  0.50528901865E+02  0.30000127709E+02 0.  0.
         12    1    1    2    0    0  0.40424561253E+02 -0.35377157089E+01 -0.25498384678E+01  0.40659098135E+02  0.00000000000E+00 0. -1.
         11    1    3    3    0    0 -0.11802563171E+02 -0.55303579795E+01 -0.10655951859E+01  0.13077494032E+02  0.51100000000E-03 0. -1.
        -11    1    3    3    0    0 -0.16575079710E+02 -0.61389325839E+01 -0.21319019101E+00  0.17676685520E+02  0.51100000000E-03 0.  1.
         12    1    3    3    0    0 -0.12046918371E+02  0.15207006272E+02  0.38286238447E+01  0.19774722313E+02  0.00000000000E+00 0. -1.
</event>
<event>
 7    1  0.6245487E-013  0.5052886E+02  0.7816164E-02  0.1300439E+00
        -11   -1    0    0    0    0  0.00000000000E+00  0.00000000000E+00  0.45593999997E+02  0.45594000000E+02  0.51100000000E-03 0.  1.
         11   -1    0    0    0    0 -0.00000000000E+00 -0.00000000000E+00 -0.45593999997E+02  0.45594000000E+02  0.51100000000E-03 0. -1.
    9900012    2    1    2    0    0  0.24837510778E+02  0.25347229966E+02  0.19843933179E+02  0.50528859667E+02  0.29999999443E+02 0.  0.
         12    1    1    2    0    0 -0.24837510778E+02 -0.25347229966E+02 -0.19843933179E+02  0.40659140333E+02  0.00000000000E+00 0. -1.
         11    1    3    3    0    0  0.31942373202E+01 -0.35632367718E+01  0.11991070807E+02  0.12910677276E+02  0.51100000000E-03 0. -1.
        -11    1    3    3    0    0  0.14958064104E+01  0.33292546901E+01 -0.11627969404E+01  0.38305966370E+01  0.51100000000E-03 0.  1.
         12    1    3    3    0    0  0.20147467048E+02  0.25581212048E+02  0.90156593126E+01  0.33787585754E+02  0.00000000000E+00 0. -1.
</event>
<event>
 7    1  0.6245487E-013  0.5052886E+02  0.7816164E-02  0.1300439E+00
        -11   -1    0    0    0    0  0.00000000000E+00  0.00000000000E+00  0.45593999997E+02  0.45594000000E+02  0.51100000000E-03 0.  1.
         11   -1    0    0    0    0 -0.00000000000E+00 -0.00000000000E+00 -0.45593999997E+02  0.45594000000E+02  0.51100000000E-03 0. -1.
    9900012    2    1    2    0    0 -0.26483182997E+02  0.27377699314E+02 -0.14222096071E+02  0.50528863043E+02  0.30000009706E+02 0.  0.
         12    1    1    2    0    0  0.26483182997E+02 -0.27377699314E+02  0.14222096071E+02  0.40659136957E+02  0.00000000000E+00 0. -1.
         11    1    3    3    0    0 -0.11930685342E+02  0.17146915115E+02 -0.10547912891E+02  0.23401205467E+02  0.51100000000E-03 0. -1.
        -11    1    3    3    0    0 -0.16443042723E+02  0.14386384426E+02 -0.49200569366E+01  0.22395282346E+02  0.51100000000E-03 0.  1.
         12    1    3    3    0    0  0.18905450682E+01 -0.41556002270E+01  0.12458737558E+01  0.47323752299E+01  0.00000000000E+00 0. -1.
</event>
<event>
 7    1  0.6245487E-013  0.5052885E+02  0.7816164E-02  0.1300439E+00
        -11   -1    0    0    0    0  0.00000000000E+00  0.00000000000E+00  0.45593999997E+02  0.45594000000E+02  0.51100000000E-03 0.  1.
         11   -1    0    0    0    0 -0.00000000000E+00 -0.00000000000E+00 -0.45593999997E+02  0.45594000000E+02  0.51100000000E-03 0. -1.
    9900012    2    1    2    0    0  0.27260168485E+02 -0.24542262455E+02  0.17542139970E+02  0.50528854572E+02  0.29999983956E+02 0.  0.
         12    1    1    2    0    0 -0.27260168485E+02  0.24542262455E+02 -0.17542139970E+02  0.40659145428E+02  0.00000000000E+00 0. -1.
         11    1    3    3    0    0  0.78976060568E+01 -0.18621819261E+02  0.11849259913E+02  0.23442467762E+02  0.51100000000E-03 0. -1.
        -11    1    3    3    0    0  0.72684045167E+01 -0.10599742929E+01  0.10821907006E+02  0.13079255377E+02  0.51100000000E-03 0.  1.
        -12    1    3    3    0    0  0.12094157911E+02 -0.48604689006E+01 -0.51290269490E+01  0.14007131432E+02  0.00000000000E+00 0.  1.
</event>
<event>
 7    1  0.6245487E-013  0.5052888E+02  0.7816164E-02  0.1300439E+00
        -11   -1    0    0    0    0  0.00000000000E+00  0.00000000000E+00  0.45593999997E+02  0.45594000000E+02  0.51100000000E-03 0.  1.
         11   -1    0    0    0    0 -0.00000000000E+00 -0.00000000000E+00 -0.45593999997E+02  0.45594000000E+02  0.51100000000E-03 0. -1.
    9900012    2    1    2    0    0 -0.18637177713E+02  0.15239579675E+02  0.32765447553E+02  0.50528883739E+02  0.30000072614E+02 0.  0.
         12    1    1    2    0    0  0.18637177713E+02 -0.15239579675E+02 -0.32765447553E+02  0.40659116261E+02  0.00000000000E+00 0. -1.
         11    1    3    3    0    0 -0.39111308273E+01  0.37518069432E+01 -0.43186062058E+00  0.54368652314E+01  0.51100000000E-03 0. -1.
        -11    1    3    3    0    0 -0.21492768045E+02  0.85259792160E+01  0.24729657387E+02  0.33855388856E+02  0.51100000000E-03 0.  1.
        -12    1    3    3    0    0  0.67667211602E+01  0.29617935153E+01  0.84676507871E+01  0.11236629652E+02  0.00000000000E+00 0.  1.
</event>
<event>
 7    1  0.6245487E-013  0.5052886E+02  0.7816164E-02  0.1300439E+00
        -11   -1    0    0    0    0  0.00000000000E+00  0.00000000000E+00  0.45593999997E+02  0.45594000000E+02  0.51100000000E-03 0.  1.
         11   -1    0    0    0    0 -0.00000000000E+00 -0.00000000000E+00 -0.45593999997E+02  0.45594000000E+02  0.51100000000E-03 0. -1.
    9900012    2    1    2    0    0 -0.89433736273E+01 -0.95263181475E+01  0.38502350128E+02  0.50528860380E+02  0.30000001610E+02 0.  0.
         12    1    1    2    0    0  0.89433736273E+01  0.95263181475E+01 -0.38502350128E+02  0.40659139620E+02  0.00000000000E+00 0. -1.
         11    1    3    3    0    0  0.28612771917E+00 -0.12401645406E+01 -0.14790009790E+01  0.19512358433E+01  0.51100000000E-03 0. -1.
        -11    1    3    3    0    0 -0.13977203488E+02 -0.96006431327E+01  0.13590718847E+02  0.21731134460E+02  0.51100000000E-03 0.  1.
        -12    1    3    3    0    0  0.47477021411E+01  0.13144895258E+01  0.26390632260E+02  0.26846490076E+02  0.00000000000E+00 0.  1.
</event>
<event>
 7    1  0.6245487E-013  0.5052887E+02  0.7816164E-02  0.1300439E+00
        -11   -1    0    0    0    0  0.00000000000E+00  0.00000000000E+00  0.45593999997E+02  0.45594000000E+02  0.51100000000E-03 0.  1.
         11   -1    0    0    0    0 -0.00000000000E+00 -0.00000000000E+00 -0.45593999997E+02  0.45594000000E+02  0.51100000000E-03 0. -1.
    9900012    2    1    2    0    0  0.21984176230E+02  0.27940065276E+01  0.34088920328E+02  0.50528868601E+02  0.30000026599E+02 0.  0.
         12    1    1    2    0    0 -0.21984176230E+02 -0.27940065276E+01 -0.34088920328E+02  0.40659131399E+02  0.00000000000E+00 0. -1.
         11    1    3    3    0    0 -0.86190010066E-01 -0.33301020705E+01 -0.17140914123E+01  0.37463473076E+01  0.51100000000E-03 0. -1.
        -11    1    3    3    0    0  0.28271630399E+00 -0.34166808872E+01 -0.41429258992E+00  0.34532992058E+01  0.51100000000E-03 0.  1.
        -12    1    3    3    0    0  0.21787649936E+02  0.95407894853E+01  0.36217304331E+02  0.43329222087E+02  0.00000000000E+00 0.  1.
</event>
<event>
 7    1  0.6245487E-013  0.5052885E+02  0.7816164E-02  0.1300439E+00
        -11   -1    0    0    0    0  0.00000000000E+00  0.00000000000E+00  0.45593999997E+02  0.45594000000E+02  0.51100000000E-03 0.  1.
         11   -1    0    0    0    0 -0.00000000000E+00 -0.00000000000E+00 -0.45593999997E+02  0.45594000000E+02  0.51100000000E-03 0. -1.
    9900012    2    1    2    0    0 -0.32547660012E+02 -0.19144964123E+02  0.15076021792E+02  0.50528852731E+02  0.29999978362E+02 0.  0.
         12    1    1    2    0    0  0.32547660012E+02  0.19144964123E+02 -0.15076021792E+02  0.40659147269E+02  0.00000000000E+00 0. -1.
         11    1    3    3    0    0 -0.16275983740E+02 -0.80565002384E+01  0.42437677560E+01  0.18650051148E+02  0.51100000000E-03 0. -1.
        -11    1    3    3    0    0 -0.10050323138E+02  0.60620997070E+01  0.43588622240E+01  0.12520292656E+02  0.51100000000E-03 0.  1.
         12    1    3    3    0    0 -0.62213531333E+01 -0.17150563592E+02  0.64733918125E+01  0.19358508927E+02  0.00000000000E+00 0. -1.
</event>
<event>
 7    1  0.6245487E-013  0.5052887E+02  0.7816164E-02  0.1300439E+00
        -11   -1    0    0    0    0  0.00000000000E+00  0.00000000000E+00  0.45593999997E+02  0.45594000000E+02  0.51100000000E-03 0. -1.
         11   -1    0    0    0    0 -0.00000000000E+00 -0.00000000000E+00 -0.45593999997E+02  0.45594000000E+02  0.51100000000E-03 0.  1.
    9900012    2    1    2    0    0 -0.75501650252E+01 -0.26238231354E+02 -0.30128316880E+02  0.50528865055E+02  0.30000015822E+02 0.  0.
         12    1    1    2    0    0  0.75501650252E+01  0.26238231354E+02  0.30128316880E+02  0.40659134945E+02  0.00000000000E+00 0. -1.
         11    1    3    3    0    0  0.19231508838E+01 -0.53865297487E+00  0.72608909957E+00  0.21250557618E+01  0.51100000000E-03 0. -1.
        -11    1    3    3    0    0 -0.47984341775E+01 -0.28242825496E+02 -0.32010707093E+02  0.42957741228E+02  0.51100000000E-03 0.  1.
         12    1    3    3    0    0 -0.46748817315E+01  0.25432471175E+01  0.11563011139E+01  0.54460680652E+01  0.00000000000E+00 0. -1.
</event>
<event>
 7    1  0.6245487E-013  0.5052887E+02  0.7816164E-02  0.1300439E+00
        -11   -1    0    0    0    0  0.00000000000E+00  0.00000000000E+00  0.45593999997E+02  0.45594000000E+02  0.51100000000E-03 0.  1.
         11   -1    0    0    0    0 -0.00000000000E+00 -0.00000000000E+00 -0.45593999997E+02  0.45594000000E+02  0.51100000000E-03 0. -1.
    9900012    2    1    2    0    0  0.22890844439E+02 -0.74560577829E+01  0.32765550891E+02  0.50528869636E+02  0.30000029745E+02 0.  0.
         12    1    1    2    0    0 -0.22890844439E+02  0.74560577829E+01 -0.32765550891E+02  0.40659130364E+02  0.00000000000E+00 0. -1.
         11    1    3    3    0    0 -0.50312433504E+01 -0.24798211693E+01  0.59871596350E+01  0.82042064478E+01  0.51100000000E-03 0. -1.
        -11    1    3    3    0    0  0.10390115086E+02 -0.91902337918E+01  0.16549706551E+02  0.21594158373E+02  0.51100000000E-03 0.  1.
        -12    1    3    3    0    0  0.17531972703E+02  0.42139971782E+01  0.10228684705E+02  0.20730504815E+02  0.00000000000E+00 0.  1.
</event>
<event>
 7    1  0.6245487E-013  0.5052886E+02  0.7816164E-02  0.1300439E+00
        -11   -1    0    0    0    0  0.00000000000E+00  0.00000000000E+00  0.45593999997E+02  0.45594000000E+02  0.51100000000E-03 0. -1.
         11   -1    0    0    0    0 -0.00000000000E+00 -0.00000000000E+00 -0.45593999997E+02  0.45594000000E+02  0.51100000000E-03 0.  1.
    9900012    2    1    2    0    0 -0.38822387441E+02  0.59575832073E+01 -0.10511682301E+02  0.50528855530E+02  0.29999986868E+02 0.  0.
         12    1    1    2    0    0  0.38822387441E+02 -0.59575832073E+01  0.10511682301E+02  0.40659144470E+02  0.00000000000E+00 0. -1.
         11    1    3    3    0    0 -0.10489648628E+02 -0.91537356789E+01 -0.10721527683E+02  0.17571987974E+02  0.51100000000E-03 0. -1.
        -11    1    3    3    0    0 -0.54128604669E+01  0.83831391726E+00  0.21552025774E+01  0.58861470478E+01  0.51100000000E-03 0.  1.
        -12    1    3    3    0    0 -0.22919878345E+02  0.14273004969E+02 -0.19453571951E+01  0.27070720508E+02  0.00000000000E+00 0.  1.
</event>
<event>
 7    1  0.6245487E-013  0.5052886E+02  0.7816164E-02  0.1300439E+00
        -11   -1    0    0    0    0  0.00000000000E+00  0.00000000000E+00  0.45593999997E+02  0.45594000000E+02  0.51100000000E-03 0. -1.
         11   -1    0    0    0    0 -0.00000000000E+00 -0.00000000000E+00 -0.45593999997E+02  0.45594000000E+02  0.51100000000E-03 0.  1.
    9900012    2    1    2    0    0  0.13923373710E+01  0.86445349354E+01 -0.39705155669E+02  0.50528856203E+02  0.29999988915E+02 0.  0.
         12    1    1    2    0    0 -0.13923373710E+01 -0.86445349354E+01  0.39705155669E+02  0.40659143797E+02  0.00000000000E+00 0. -1.
         11    1    3    3    0    0 -0.38855476491E+01 -0.28213548927E+01  0.11237593289E+01  0.49315676265E+01  0.51100000000E-03 0. -1.
        -11    1    3    3    0    0 -0.56830251772E+01  0.29940307484E+01 -0.13978318166E+02  0.15383574822E+02  0.51100000000E-03 0.  1.
         12    1    3    3    0    0  0.10960910197E+02  0.84718590797E+01 -0.26850596832E+02  0.30213713755E+02  0.00000000000E+00 0. -1.
</event>
<event>
 7    1  0.6245487E-013  0.5052886E+02  0.7816164E-02  0.1300439E+00
        -11   -1    0    0    0    0  0.00000000000E+00  0.00000000000E+00  0.45593999997E+02  0.45594000000E+02  0.51100000000E-03 0. -1.
         11   -1    0    0    0    0 -0.00000000000E+00 -0.00000000000E+00 -0.45593999997E+02  0.45594000000E+02  0.51100000000E-03 0.  1.
    9900012    2    1    2    0    0 -0.23709381270E+02  0.21821346829E+02 -0.24796362356E+02  0.50528861744E+02  0.30000005757E+02 0.  0.
         12    1    1    2    0    0  0.23709381270E+02 -0.21821346829E+02  0.24796362356E+02  0.40659138256E+02  0.00000000000E+00 0. -1.
         11    1    3    3    0    0  0.47708505973E+01  0.24190846390E+01 -0.83161700468E-01  0.53497571947E+01  0.51100000000E-03 0. -1.
        -11    1    3    3    0    0 -0.53108612014E+01 -0.66981202814E+00  0.64989535904E+00  0.53922406375E+01  0.51100000000E-03 0.  1.
        -12    1    3    3    0    0 -0.23169370666E+02  0.20072074218E+02 -0.25363096015E+02  0.39786863912E+02  0.00000000000E+00 0.  1.
</event>
<event>
 7    1  0.6245487E-013  0.5052888E+02  0.7816164E-02  0.1300439E+00
        -11   -1    0    0    0    0  0.00000000000E+00  0.00000000000E+00  0.45593999997E+02  0.45594000000E+02  0.51100000000E-03 0. -1.
         11   -1    0    0    0    0 -0.00000000000E+00 -0.00000000000E+00 -0.45593999997E+02  0.45594000000E+02  0.51100000000E-03 0.  1.
    9900012    2    1    2    0    0 -0.52878611616E+01 -0.39273627764E+02 -0.90986143933E+01  0.50528879285E+02  0.30000059076E+02 0.  0.
         12    1    1    2    0    0  0.52878611616E+01  0.39273627764E+02  0.90986143933E+01  0.40659120715E+02  0.00000000000E+00 0. -1.
         11    1    3    3    0    0 -0.70265147298E+01 -0.99063611434E+00 -0.29113445906E+01  0.76700193445E+01  0.51100000000E-03 0. -1.
        -11    1    3    3    0    0 -0.70572147489E-01 -0.10928176903E+02  0.64304777423E+01  0.12679947757E+02  0.51100000000E-03 0.  1.
        -12    1    3    3    0    0  0.18092257157E+01 -0.27354814747E+02 -0.12617747545E+02  0.30178912184E+02  0.00000000000E+00 0.  1.
</event>
<event>
 7    1  0.6245487E-013  0.5052886E+02  0.7816164E-02  0.1300439E+00
        -11   -1    0    0    0    0  0.00000000000E+00  0.00000000000E+00  0.45593999997E+02  0.45594000000E+02  0.51100000000E-03 0.  1.
         11   -1    0    0    0    0 -0.00000000000E+00 -0.00000000000E+00 -0.45593999997E+02  0.45594000000E+02  0.51100000000E-03 0. -1.
    9900012    2    1    2    0    0 -0.36987213528E+02 -0.11997953584E+02  0.11881114385E+02  0.50528859160E+02  0.29999997904E+02 0.  0.
         12    1    1    2    0    0  0.36987213528E+02  0.11997953584E+02 -0.11881114385E+02  0.40659140840E+02  0.00000000000E+00 0. -1.
         11    1    3    3    0    0 -0.67784075347E+01 -0.29131552396E+01  0.16097955914E+02  0.17708118676E+02  0.51100000000E-03 0. -1.
        -11    1    3    3    0    0 -0.66075422872E+01 -0.55677663439E+01 -0.35071427117E+00  0.86476955253E+01  0.51100000000E-03 0.  1.
        -12    1    3    3    0    0 -0.23601263706E+02 -0.35170320007E+01 -0.38661272582E+01  0.24173044959E+02  0.00000000000E+00 0.  1.
</event>
<event>
 7    1  0.6245487E-013  0.5052887E+02  0.7816164E-02  0.1300439E+00
        -11   -1    0    0    0    0  0.00000000000E+00  0.00000000000E+00  0.45593999997E+02  0.45594000000E+02  0.51100000000E-03 0.  1.
         11   -1    0    0    0    0 -0.00000000000E+00 -0.00000000000E+00 -0.45593999997E+02  0.45594000000E+02  0.51100000000E-03 0. -1.
    9900012    2    1    2    0    0  0.67647496114E+01 -0.30502649929E+01  0.39976232489E+02  0.50528866735E+02  0.30000020928E+02 0.  0.
         12    1    1    2    0    0 -0.67647496114E+01  0.30502649929E+01 -0.39976232489E+02  0.40659133265E+02  0.00000000000E+00 0. -1.
         11    1    3    3    0    0  0.14174195893E+02 -0.88203309082E+01  0.21621743199E+02  0.27316768582E+02  0.51100000000E-03 0. -1.
        -11    1    3    3    0    0 -0.37727462879E+01 -0.15603204459E+01  0.12809578357E+01  0.42789096374E+01  0.51100000000E-03 0.  1.
        -12    1    3    3    0    0 -0.36366999933E+01  0.73303863611E+01  0.17073531455E+02  0.18933188516E+02  0.00000000000E+00 0.  1.
</event>
<event>
 7    1  0.6245487E-013  0.5052887E+02  0.7816164E-02  0.1300439E+00
        -11   -1    0    0    0    0  0.00000000000E+00  0.00000000000E+00  0.45593999997E+02  0.45594000000E+02  0.51100000000E-03 0.  1.
         11   -1    0    0    0    0 -0.00000000000E+00 -0.00000000000E+00 -0.45593999997E+02  0.45594000000E+02  0.51100000000E-03 0. -1.
    9900012    2    1    2    0    0  0.20803002960E+01 -0.40264297244E+02  0.52558382205E+01  0.50528866742E+02  0.30000020950E+02 0.  0.
         12    1    1    2    0    0 -0.20803002960E+01  0.40264297244E+02 -0.52558382205E+01  0.40659133258E+02  0.00000000000E+00 0. -1.
         11    1    3    3    0    0 -0.80360777426E+01 -0.71054353802E+01  0.18886261442E+01  0.10891862394E+02  0.51100000000E-03 0. -1.
        -11    1    3    3    0    0 -0.16737215355E+01 -0.23722275037E+02  0.54355057864E+01  0.24394515780E+02  0.51100000000E-03 0.  1.
        -12    1    3    3    0    0  0.11790099574E+02 -0.94365868265E+01 -0.20682937101E+01  0.15242488569E+02  0.00000000000E+00 0.  1.
</event>
<event>
 7    1  0.6245487E-013  0.5052886E+02  0.7816164E-02  0.1300439E+00
        -11   -1    0    0    0    0  0.00000000000E+00  0.00000000000E+00  0.45593999997E+02  0.45594000000E+02  0.51100000000E-03 0.  1.
         11   -1    0    0    0    0 -0.00000000000E+00 -0.00000000000E+00 -0.45593999997E+02  0.45594000000E+02  0.51100000000E-03 0. -1.
    9900012    2    1    2    0    0  0.18917221244E+02  0.97950883989E+01  0.34631786246E+02  0.50528860377E+02  0.30000001601E+02 0.  0.
         12    1    1    2    0    0 -0.18917221244E+02 -0.97950883989E+01 -0.34631786246E+02  0.40659139623E+02  0.00000000000E+00 0. -1.
         11    1    3    3    0    0  0.18222158299E+01  0.27316488400E+01 -0.35267374507E+01  0.48187397961E+01  0.51100000000E-03 0. -1.
        -11    1    3    3    0    0  0.21939626901E+01  0.92511979434E+01  0.19798844552E+02  0.21963432827E+02  0.51100000000E-03 0.  1.
         12    1    3    3    0    0  0.14901042724E+02 -0.21877583845E+01  0.18359679145E+02  0.23746687754E+02  0.00000000000E+00 0. -1.
</event>
<event>
 7    1  0.6245487E-013  0.5052881E+02  0.7816164E-02  0.1300439E+00
        -11   -1    0    0    0    0  0.00000000000E+00  0.00000000000E+00  0.45593999997E+02  0.45594000000E+02  0.51100000000E-03 0.  1.
         11   -1    0    0    0    0 -0.00000000000E+00 -0.00000000000E+00 -0.45593999997E+02  0.45594000000E+02  0.51100000000E-03 0. -1.
    9900012    2    1    2    0    0  0.59826103934E+01 -0.91460411756E+01  0.39162837547E+02  0.50528812342E+02  0.29999855594E+02 0.  0.
         12    1    1    2    0    0 -0.59826103934E+01  0.91460411756E+01 -0.39162837547E+02  0.40659187658E+02  0.00000000000E+00 0. -1.
         11    1    3    3    0    0  0.38747077108E+01 -0.44809432450E+00 -0.27997307992E+01  0.48013166087E+01  0.51100000000E-03 0. -1.
        -11    1    3    3    0    0  0.74483014320E+01  0.99035713345E-01  0.12893936231E+02  0.14890956789E+02  0.51100000000E-03 0.  1.
        -12    1    3    3    0    0 -0.53403987495E+01 -0.87969825644E+01  0.29068632115E+02  0.30836538945E+02  0.00000000000E+00 0.  1.
</event>
<event>
 7    1  0.6245487E-013  0.5052886E+02  0.7816164E-02  0.1300439E+00
        -11   -1    0    0    0    0  0.00000000000E+00  0.00000000000E+00  0.45593999997E+02  0.45594000000E+02  0.51100000000E-03 0.  1.
         11   -1    0    0    0    0 -0.00000000000E+00 -0.00000000000E+00 -0.45593999997E+02  0.45594000000E+02  0.51100000000E-03 0. -1.
    9900012    2    1    2    0    0 -0.58507670319E+01  0.24240783788E+02  0.32114145795E+02  0.50528862851E+02  0.30000009123E+02 0.  0.
         12    1    1    2    0    0  0.58507670319E+01 -0.24240783788E+02 -0.32114145795E+02  0.40659137149E+02  0.00000000000E+00 0. -1.
         11    1    3    3    0    0 -0.13877110596E+01  0.67198956439E+01  0.99565962153E+01  0.12092003469E+02  0.51100000000E-03 0. -1.
        -11    1    3    3    0    0  0.13662628776E+00  0.17118399890E+02  0.26856825033E+02  0.31848819957E+02  0.51100000000E-03 0.  1.
         12    1    3    3    0    0 -0.45996822601E+01  0.40248825391E+00 -0.46992754527E+01  0.65880394253E+01  0.00000000000E+00 0. -1.
</event>
<event>
 7    1  0.6245487E-013  0.5052886E+02  0.7816164E-02  0.1300439E+00
        -11   -1    0    0    0    0  0.00000000000E+00  0.00000000000E+00  0.45593999997E+02  0.45594000000E+02  0.51100000000E-03 0.  1.
         11   -1    0    0    0    0 -0.00000000000E+00 -0.00000000000E+00 -0.45593999997E+02  0.45594000000E+02  0.51100000000E-03 0. -1.
    9900012    2    1    2    0    0  0.20629006950E+02  0.12338940751E+02  0.32792684580E+02  0.50528861438E+02  0.30000004827E+02 0.  0.
         12    1    1    2    0    0 -0.20629006950E+02 -0.12338940751E+02 -0.32792684580E+02  0.40659138562E+02  0.00000000000E+00 0. -1.
         11    1    3    3    0    0  0.15435284759E+02  0.12912240333E+02  0.25975669557E+02  0.32858931437E+02  0.51100000000E-03 0. -1.
        -11    1    3    3    0    0  0.12764117934E+01  0.73374516840E+01  0.26158087115E+01  0.78936607323E+01  0.51100000000E-03 0.  1.
         12    1    3    3    0    0  0.39173103984E+01 -0.79107512652E+01  0.42012063117E+01  0.97762692685E+01  0.00000000000E+00 0. -1.
</event>
<event>
 7    1  0.6245487E-013  0.5052889E+02  0.7816164E-02  0.1300439E+00
        -11   -1    0    0    0    0  0.00000000000E+00  0.00000000000E+00  0.45593999997E+02  0.45594000000E+02  0.51100000000E-03 0. -1.
         11   -1    0    0    0    0 -0.00000000000E+00 -0.00000000000E+00 -0.45593999997E+02  0.45594000000E+02  0.51100000000E-03 0.  1.
    9900012    2    1    2    0    0  0.28103511860E+02 -0.29379115378E+02 -0.47287263998E+00  0.50528887764E+02  0.30000084848E+02 0.  0.
         12    1    1    2    0    0 -0.28103511860E+02  0.29379115378E+02  0.47287263998E+00  0.40659112236E+02  0.00000000000E+00 0. -1.
         11    1    3    3    0    0 -0.48139693770E+01 -0.16509363697E+01  0.42901813996E+01  0.66562413389E+01  0.51100000000E-03 0. -1.
        -11    1    3    3    0    0  0.33067287707E+01 -0.25044552703E+01 -0.26401699147E+01  0.49170365876E+01  0.51100000000E-03 0.  1.
        -12    1    3    3    0    0  0.29610752466E+02 -0.25223723738E+02 -0.21228841249E+01  0.38955609838E+02  0.00000000000E+00 0.  1.
</event>
<event>
 7    1  0.6245487E-013  0.5052886E+02  0.7816164E-02  0.1300439E+00
        -11   -1    0    0    0    0  0.00000000000E+00  0.00000000000E+00  0.45593999997E+02  0.45594000000E+02  0.51100000000E-03 0. -1.
         11   -1    0    0    0    0 -0.00000000000E+00 -0.00000000000E+00 -0.45593999997E+02  0.45594000000E+02  0.51100000000E-03 0.  1.
    9900012    2    1    2    0    0 -0.33537198831E+02  0.21638597118E+01 -0.22885355500E+02  0.50528862151E+02  0.30000006993E+02 0.  0.
         12    1    1    2    0    0  0.33537198831E+02 -0.21638597118E+01  0.22885355500E+02  0.40659137849E+02  0.00000000000E+00 0. -1.
         11    1    3    3    0    0 -0.97294528312E+01 -0.66971530412E+01  0.25322156262E+01  0.12079992860E+02  0.51100000000E-03 0. -1.
        -11    1    3    3    0    0 -0.56203875648E+01  0.34889738572E+01  0.14868321951E+00  0.66169329690E+01  0.51100000000E-03 0.  1.
        -12    1    3    3    0    0 -0.18187358435E+02  0.53720388958E+01 -0.25566254346E+02  0.31831936322E+02  0.00000000000E+00 0.  1.
</event>
<event>
 7    1  0.6245487E-013  0.5052886E+02  0.7816164E-02  0.1300439E+00
        -11   -1    0    0    0    0  0.00000000000E+00  0.00000000000E+00  0.45593999997E+02  0.45594000000E+02  0.51100000000E-03 0.  1.
         11   -1    0    0    0    0 -0.00000000000E+00 -0.00000000000E+00 -0.45593999997E+02  0.45594000000E+02  0.51100000000E-03 0. -1.
    9900012    2    1    2    0    0 -0.29634513423E+02 -0.17997801515E+02  0.21237710922E+02  0.50528860678E+02  0.30000002518E+02 0.  0.
         12    1    1    2    0    0  0.29634513423E+02  0.17997801515E+02 -0.21237710922E+02  0.40659139322E+02  0.00000000000E+00 0. -1.
         11    1    3    3    0    0 -0.18011893955E+02 -0.42951297587E+01  0.25328098323E+01  0.18689344274E+02  0.51100000000E-03 0. -1.
        -11    1    3    3    0    0 -0.88957806499E+01 -0.12324502444E+02  0.25669014742E+01  0.15414838867E+02  0.51100000000E-03 0.  1.
         12    1    3    3    0    0 -0.27268388178E+01 -0.13781693119E+01  0.16137999616E+02  0.16424677537E+02  0.00000000000E+00 0. -1.
</event>
<event>
 7    1  0.6245487E-013  0.5052886E+02  0.7816164E-02  0.1300439E+00
        -11   -1    0    0    0    0  0.00000000000E+00  0.00000000000E+00  0.45593999997E+02  0.45594000000E+02  0.51100000000E-03 0.  1.
         11   -1    0    0    0    0 -0.00000000000E+00 -0.00000000000E+00 -0.45593999997E+02  0.45594000000E+02  0.51100000000E-03 0. -1.
    9900012    2    1    2    0    0 -0.32549923096E+02  0.89344771712E+01  0.22668106583E+02  0.50528862873E+02  0.30000009188E+02 0.  0.
         12    1    1    2    0    0  0.32549923096E+02 -0.89344771712E+01 -0.22668106583E+02  0.40659137127E+02  0.00000000000E+00 0. -1.
         11    1    3    3    0    0  0.95947541247E+00  0.49086918376E+01 -0.17000581670E+01  0.52826174058E+01  0.51100000000E-03 0. -1.
        -11    1    3    3    0    0 -0.87275432473E+01  0.92850408963E+01  0.71051966718E+01  0.14589921713E+02  0.51100000000E-03 0.  1.
        -12    1    3    3    0    0 -0.24781855261E+02 -0.52592555628E+01  0.17262968078E+02  0.30656323754E+02  0.00000000000E+00 0.  1.
</event>
<event>
 7    1  0.6245487E-013  0.5052886E+02  0.7816164E-02  0.1300439E+00
        -11   -1    0    0    0    0  0.00000000000E+00  0.00000000000E+00  0.45593999997E+02  0.45594000000E+02  0.51100000000E-03 0.  1.
         11   -1    0    0    0    0 -0.00000000000E+00 -0.00000000000E+00 -0.45593999997E+02  0.45594000000E+02  0.51100000000E-03 0. -1.
    9900012    2    1    2    0    0 -0.16460127247E+01 -0.13655121710E+02  0.38262174240E+02  0.50528859768E+02  0.29999999752E+02 0.  0.
         12    1    1    2    0    0  0.16460127247E+01  0.13655121710E+02 -0.38262174240E+02  0.40659140232E+02  0.00000000000E+00 0. -1.
         11    1    3    3    0    0 -0.72011253154E+01  0.22514052686E+01  0.71100261786E+01  0.10367135767E+02  0.51100000000E-03 0. -1.
        -11    1    3    3    0    0  0.18930397262E+01 -0.92709767243E+01  0.15297450950E+01  0.95851306274E+01  0.51100000000E-03 0.  1.
        -12    1    3    3    0    0  0.36620728644E+01 -0.66355502539E+01  0.29622402967E+02  0.30576593374E+02  0.00000000000E+00 0.  1.
</event>
<event>
 7    1  0.6245487E-013  0.5052886E+02  0.7816164E-02  0.1300439E+00
        -11   -1    0    0    0    0  0.00000000000E+00  0.00000000000E+00  0.45593999997E+02  0.45594000000E+02  0.51100000000E-03 0. -1.
         11   -1    0    0    0    0 -0.00000000000E+00 -0.00000000000E+00 -0.45593999997E+02  0.45594000000E+02  0.51100000000E-03 0.  1.
    9900012    2    1    2    0    0  0.43818358157E+00 -0.24588871804E+01 -0.40582358451E+02  0.50528856521E+02  0.29999989880E+02 0.  0.
         12    1    1    2    0    0 -0.43818358157E+00  0.24588871804E+01  0.40582358451E+02  0.40659143479E+02  0.00000000000E+00 0. -1.
         11    1    3    3    0    0 -0.67786163420E+01  0.67978513956E+01 -0.11306512244E+02  0.14832317503E+02  0.51100000000E-03 0. -1.
        -11    1    3    3    0    0 -0.48863496310E+00 -0.49472321460E+01  0.15123534398E+00  0.49736045706E+01  0.51100000000E-03 0.  1.
        -12    1    3    3    0    0  0.77054348867E+01 -0.43095064300E+01 -0.29427081551E+02  0.30722934447E+02  0.00000000000E+00 0.  1.
</event>
<event>
 7    1  0.6245487E-013  0.5052886E+02  0.7816164E-02  0.1300439E+00
        -11   -1    0    0    0    0  0.00000000000E+00  0.00000000000E+00  0.45593999997E+02  0.45594000000E+02  0.51100000000E-03 0.  1.
         11   -1    0    0    0    0 -0.00000000000E+00 -0.00000000000E+00 -0.45593999997E+02  0.45594000000E+02  0.51100000000E-03 0. -1.
    9900012    2    1    2    0    0  0.15330260525E+02 -0.35535133341E+02  0.12466068431E+02  0.50528862633E+02  0.30000008458E+02 0.  0.
         12    1    1    2    0    0 -0.15330260525E+02  0.35535133341E+02 -0.12466068431E+02  0.40659137367E+02  0.00000000000E+00 0. -1.
         11    1    3    3    0    0  0.10962552856E+01 -0.10312256255E+02  0.13041459079E+02  0.16662054492E+02  0.51100000000E-03 0. -1.
        -11    1    3    3    0    0  0.10709406134E+02 -0.23131536659E+02  0.59365406279E+01  0.26172540626E+02  0.51100000000E-03 0.  1.
        -12    1    3    3    0    0  0.35245991057E+01 -0.20913404264E+01 -0.65119312758E+01  0.76942675139E+01  0.00000000000E+00 0.  1.
</event>
<event>
 7    1  0.6245487E-013  0.5052884E+02  0.7816164E-02  0.1300439E+00
        -11   -1    0    0    0    0  0.00000000000E+00  0.00000000000E+00  0.45593999997E+02  0.45594000000E+02  0.51100000000E-03 0.  1.
         11   -1    0    0    0    0 -0.00000000000E+00 -0.00000000000E+00 -0.45593999997E+02  0.45594000000E+02  0.51100000000E-03 0. -1.
    9900012    2    1    2    0    0 -0.19031616864E+02 -0.15695458785E+02  0.32320537662E+02  0.50528843323E+02  0.29999949765E+02 0.  0.
         12    1    1    2    0    0  0.19031616864E+02  0.15695458785E+02 -0.32320537662E+02  0.40659156677E+02  0.00000000000E+00 0. -1.
         11    1    3    3    0    0 -0.10921011702E+01  0.31437342846E+01  0.16260144449E+02  0.16597230129E+02  0.51100000000E-03 0. -1.
        -11    1    3    3    0    0 -0.50103250353E+01  0.10230450295E-02  0.84938833884E+01  0.98615117138E+01  0.51100000000E-03 0.  1.
         12    1    3    3    0    0 -0.12929190659E+02 -0.18840216114E+02  0.75665098248E+01  0.24070101480E+02  0.00000000000E+00 0. -1.
</event>
<event>
 7    1  0.6245487E-013  0.5052884E+02  0.7816164E-02  0.1300439E+00
        -11   -1    0    0    0    0  0.00000000000E+00  0.00000000000E+00  0.45593999997E+02  0.45594000000E+02  0.51100000000E-03 0.  1.
         11   -1    0    0    0    0 -0.00000000000E+00 -0.00000000000E+00 -0.45593999997E+02  0.45594000000E+02  0.51100000000E-03 0. -1.
    9900012    2    1    2    0    0  0.23086451642E+02  0.24248308708E+02 -0.23069510405E+02  0.50528843160E+02  0.29999949270E+02 0.  0.
         12    1    1    2    0    0 -0.23086451642E+02 -0.24248308708E+02  0.23069510405E+02  0.40659156840E+02  0.00000000000E+00 0. -1.
         11    1    3    3    0    0  0.39460368160E+01  0.13216512084E+02 -0.14955405854E+02  0.20344816606E+02  0.51100000000E-03 0. -1.
        -11    1    3    3    0    0  0.14159678250E+02  0.15986212263E+02 -0.31607012205E+01  0.21588087064E+02  0.51100000000E-03 0.  1.
        -12    1    3    3    0    0  0.49807365763E+01 -0.49544156383E+01 -0.49534033308E+01  0.85959394901E+01  0.00000000000E+00 0.  1.
</event>
<event>
 7    1  0.6245487E-013  0.5052883E+02  0.7816164E-02  0.1300439E+00
        -11   -1    0    0    0    0  0.00000000000E+00  0.00000000000E+00  0.45593999997E+02  0.45594000000E+02  0.51100000000E-03 0.  1.
         11   -1    0    0    0    0 -0.00000000000E+00 -0.00000000000E+00 -0.45593999997E+02  0.45594000000E+02  0.51100000000E-03 0. -1.
    9900012    2    1    2    0    0 -0.53667416641E+01  0.11917522428E+02  0.38501156500E+02  0.50528827496E+02  0.29999901656E+02 0.  0.
         12    1    1    2    0    0  0.53667416641E+01 -0.11917522428E+02 -0.38501156500E+02  0.40659172504E+02  0.00000000000E+00 0. -1.
         11    1    3    3    0    0  0.39102229242E+01  0.25521424587E+01  0.20126948527E+02  0.20661493937E+02  0.51100000000E-03 0. -1.
        -11    1    3    3    0    0 -0.95233983289E+01 -0.38801400123E+01  0.74963430341E+01  0.12725791189E+02  0.51100000000E-03 0.  1.
         12    1    3    3    0    0  0.24643374056E+00  0.13245519982E+02  0.10877864939E+02  0.17141542369E+02  0.00000000000E+00 0. -1.
</event>
<event>
 7    1  0.6245487E-013  0.5052882E+02  0.7816164E-02  0.1300439E+00
        -11   -1    0    0    0    0  0.00000000000E+00  0.00000000000E+00  0.45593999997E+02  0.45594000000E+02  0.51100000000E-03 0.  1.
         11   -1    0    0    0    0 -0.00000000000E+00 -0.00000000000E+00 -0.45593999997E+02  0.45594000000E+02  0.51100000000E-03 0. -1.
    9900012    2    1    2    0    0  0.10665897954E+02  0.35893289649E+01  0.39070754962E+02  0.50528824469E+02  0.29999892456E+02 0.  0.
         12    1    1    2    0    0 -0.10665897954E+02 -0.35893289649E+01 -0.39070754962E+02  0.40659175531E+02  0.00000000000E+00 0. -1.
         11    1    3    3    0    0 -0.52907393062E+01  0.34205218221E+01  0.61198855430E+01  0.87832164531E+01  0.51100000000E-03 0. -1.
        -11    1    3    3    0    0  0.77404582540E+01  0.25447348020E+00  0.32615238378E+02  0.33522130384E+02  0.51100000000E-03 0.  1.
         12    1    3    3    0    0  0.82161790058E+01 -0.85666337422E-01  0.33563104049E+00  0.82234776325E+01  0.00000000000E+00 0. -1.
</event>
<event>
 7    1  0.6245487E-013  0.5052886E+02  0.7816164E-02  0.1300439E+00
        -11   -1    0    0    0    0  0.00000000000E+00  0.00000000000E+00  0.45593999997E+02  0.45594000000E+02  0.51100000000E-03 0. -1.
         11   -1    0    0    0    0 -0.00000000000E+00 -0.00000000000E+00 -0.45593999997E+02  0.45594000000E+02  0.51100000000E-03 0.  1.
    9900012    2    1    2    0    0  0.20884750491E+02 -0.11095172907E+02 -0.33074010312E+02  0.50528858064E+02  0.29999994571E+02 0.  0.
         12    1    1    2    0    0 -0.20884750491E+02  0.11095172907E+02  0.33074010312E+02  0.40659141936E+02  0.00000000000E+00 0. -1.
         11    1    3    3    0    0  0.53548038134E+01 -0.69268384399E+01 -0.40192717756E+01  0.96337718740E+01  0.51100000000E-03 0. -1.
        -11    1    3    3    0    0  0.12548244961E+02 -0.59740064393E+01 -0.32894014108E+02  0.35709429692E+02  0.51100000000E-03 0.  1.
         12    1    3    3    0    0  0.29817017168E+01  0.18056719724E+01  0.38392755718E+01  0.51856564981E+01  0.00000000000E+00 0. -1.
</event>
<event>
 7    1  0.6245487E-013  0.5052883E+02  0.7816164E-02  0.1300439E+00
        -11   -1    0    0    0    0  0.00000000000E+00  0.00000000000E+00  0.45593999997E+02  0.45594000000E+02  0.51100000000E-03 0.  1.
         11   -1    0    0    0    0 -0.00000000000E+00 -0.00000000000E+00 -0.45593999997E+02  0.45594000000E+02  0.51100000000E-03 0. -1.
    9900012    2    1    2    0    0  0.10338656644E+02 -0.35948835831E+02  0.15936165988E+02  0.50528831229E+02  0.29999913003E+02 0.  0.
         12    1    1    2    0    0 -0.10338656644E+02  0.35948835831E+02 -0.15936165988E+02  0.40659168771E+02  0.00000000000E+00 0. -1.
         11    1    3    3    0    0  0.77303513653E+00 -0.35792460299E+01  0.68227627051E+01  0.77432988226E+01  0.51100000000E-03 0. -1.
        -11    1    3    3    0    0 -0.76082924235E+01 -0.13290866763E+02 -0.63332874438E+00  0.15327568576E+02  0.51100000000E-03 0.  1.
        -12    1    3    3    0    0  0.17173913931E+02 -0.19078723038E+02  0.97467320272E+01  0.27457963830E+02  0.00000000000E+00 0.  1.
</event>
<event>
 7    1  0.6245487E-013  0.5052885E+02  0.7816164E-02  0.1300439E+00
        -11   -1    0    0    0    0  0.00000000000E+00  0.00000000000E+00  0.45593999997E+02  0.45594000000E+02  0.51100000000E-03 0.  1.
         11   -1    0    0    0    0 -0.00000000000E+00 -0.00000000000E+00 -0.45593999997E+02  0.45594000000E+02  0.51100000000E-03 0. -1.
    9900012    2    1    2    0    0  0.32166781929E+02  0.23754100091E+02  0.73625413883E+01  0.50528854086E+02  0.29999982480E+02 0.  0.
         12    1    1    2    0    0 -0.32166781929E+02 -0.23754100091E+02 -0.73625413883E+01  0.40659145914E+02  0.00000000000E+00 0. -1.
         11    1    3    3    0    0  0.54030758172E+01  0.25240709803E+01  0.50469008569E+01  0.78125137517E+01  0.51100000000E-03 0. -1.
        -11    1    3    3    0    0  0.19276712654E+02  0.25869778626E+02  0.65864323911E+01  0.32927468607E+02  0.51100000000E-03 0.  1.
         12    1    3    3    0    0  0.74869934571E+01 -0.46397495158E+01 -0.42707918597E+01  0.97888717278E+01  0.00000000000E+00 0. -1.
</event>
<event>
 7    1  0.6245487E-013  0.5052884E+02  0.7816164E-02  0.1300439E+00
        -11   -1    0    0    0    0  0.00000000000E+00  0.00000000000E+00  0.45593999997E+02  0.45594000000E+02  0.51100000000E-03 0. -1.
         11   -1    0    0    0    0 -0.00000000000E+00 -0.00000000000E+00 -0.45593999997E+02  0.45594000000E+02  0.51100000000E-03 0.  1.
    9900012    2    1    2    0    0 -0.25712317560E+02  0.11345759225E+02 -0.29382267013E+02  0.50528841849E+02  0.29999945286E+02 0.  0.
         12    1    1    2    0    0  0.25712317560E+02 -0.11345759225E+02  0.29382267013E+02  0.40659158151E+02  0.00000000000E+00 0. -1.
         11    1    3    3    0    0 -0.41681797713E+01  0.44040167111E+01 -0.20715767376E+02  0.21584997198E+02  0.51100000000E-03 0. -1.
        -11    1    3    3    0    0 -0.11501016810E+02  0.73083777262E+01 -0.12200897823E+02  0.18290644619E+02  0.51100000000E-03 0.  1.
         12    1    3    3    0    0 -0.10043120979E+02 -0.36663521189E+00  0.35343981865E+01  0.10653200032E+02  0.00000000000E+00 0. -1.
</event>
<event>
 7    1  0.6562708E-013  0.5052886E+02  0.7816164E-02  0.1300439E+00
        -11   -1    0    0    0    0  0.00000000000E+00  0.00000000000E+00  0.45593999997E+02  0.45594000000E+02  0.51100000000E-03 0.  1.
         11   -1    0    0    0    0 -0.00000000000E+00 -0.00000000000E+00 -0.45593999997E+02  0.45594000000E+02  0.51100000000E-03 0. -1.
    9900012    2    1    2    0    0 -0.32016539812E+02  0.25061991948E+02 -0.59638684276E-01  0.50528858117E+02  0.29999994731E+02 0.  0.
         12    1    1    2    0    0  0.32016539812E+02 -0.25061991948E+02  0.59638684276E-01  0.40659141883E+02  0.00000000000E+00 0. -1.
         11    1    3    3    0    0  0.62139275893E+00  0.61872346139E+01 -0.15494359459E+01  0.64084907068E+01  0.51100000000E-03 0. -1.
        -11    1    3    3    0    0 -0.15427165101E+02  0.15903181228E+02  0.10442613701E+02  0.24494015134E+02  0.51100000000E-03 0.  1.
        -12    1    3    3    0    0 -0.17210767470E+02  0.29715761061E+01 -0.89528164394E+01  0.19626352276E+02  0.00000000000E+00 0.  1.
</event>
<event>
 7    1  0.6245487E-013  0.5052886E+02  0.7816164E-02  0.1300439E+00
        -11   -1    0    0    0    0  0.00000000000E+00  0.00000000000E+00  0.45593999997E+02  0.45594000000E+02  0.51100000000E-03 0. -1.
         11   -1    0    0    0    0 -0.00000000000E+00 -0.00000000000E+00 -0.45593999997E+02  0.45594000000E+02  0.51100000000E-03 0.  1.
    9900012    2    1    2    0    0  0.27878174387E+02 -0.16444244884E+02 -0.24608120857E+02  0.50528863154E+02  0.30000010043E+02 0.  0.
         12    1    1    2    0    0 -0.27878174387E+02  0.16444244884E+02  0.24608120857E+02  0.40659136846E+02  0.00000000000E+00 0. -1.
         11    1    3    3    0    0  0.15273148056E+02 -0.15982625462E+02 -0.80977771422E+01  0.23543308245E+02  0.51100000000E-03 0. -1.
        -11    1    3    3    0    0  0.89996334818E+01 -0.50906499418E+01 -0.18154214319E+02  0.20892190346E+02  0.51100000000E-03 0.  1.
        -12    1    3    3    0    0  0.36053928491E+01  0.46290305192E+01  0.16438706041E+01  0.60933645638E+01  0.00000000000E+00 0.  1.
</event>
<event>
 7    1  0.6245487E-013  0.5052886E+02  0.7816164E-02  0.1300439E+00
        -11   -1    0    0    0    0  0.00000000000E+00  0.00000000000E+00  0.45593999997E+02  0.45594000000E+02  0.51100000000E-03 0. -1.
         11   -1    0    0    0    0 -0.00000000000E+00 -0.00000000000E+00 -0.45593999997E+02  0.45594000000E+02  0.51100000000E-03 0.  1.
    9900012    2    1    2    0    0  0.24513035327E+02  0.32301698335E+02  0.29794791753E+01  0.50528856964E+02  0.29999991228E+02 0.  0.
         12    1    1    2    0    0 -0.24513035327E+02 -0.32301698335E+02 -0.29794791753E+01  0.40659143036E+02  0.00000000000E+00 0. -1.
         11    1    3    3    0    0  0.21442846065E+02  0.21356708876E+02 -0.60574366870E+01  0.30864173420E+02  0.51100000000E-03 0. -1.
        -11    1    3    3    0    0  0.12049086908E+01  0.11788295436E+02  0.16073089122E+01  0.11958225472E+02  0.51100000000E-03 0.  1.
         12    1    3    3    0    0  0.18652805710E+01 -0.84330597788E+00  0.74296069502E+01  0.77064580720E+01  0.00000000000E+00 0. -1.
</event>
<event>
 7    1  0.6245487E-013  0.5052886E+02  0.7816164E-02  0.1300439E+00
        -11   -1    0    0    0    0  0.00000000000E+00  0.00000000000E+00  0.45593999997E+02  0.45594000000E+02  0.51100000000E-03 0.  1.
         11   -1    0    0    0    0 -0.00000000000E+00 -0.00000000000E+00 -0.45593999997E+02  0.45594000000E+02  0.51100000000E-03 0. -1.
    9900012    2    1    2    0    0  0.29845646837E+02 -0.91520516367E+00  0.27596480260E+02  0.50528856399E+02  0.29999989512E+02 0.  0.
         12    1    1    2    0    0 -0.29845646837E+02  0.91520516367E+00 -0.27596480260E+02  0.40659143601E+02  0.00000000000E+00 0. -1.
         11    1    3    3    0    0  0.21389822075E+02 -0.12291783545E+02  0.19257875723E+02  0.31296616570E+02  0.51100000000E-03 0. -1.
        -11    1    3    3    0    0  0.74532103932E+01  0.57998880450E+01  0.95577060890E+01  0.13436472470E+02  0.51100000000E-03 0.  1.
        -12    1    3    3    0    0  0.10026143686E+01  0.55766903363E+01 -0.12191015527E+01  0.57957673586E+01  0.00000000000E+00 0.  1.
</event>
<event>
 7    1  0.6245487E-013  0.5052888E+02  0.7816164E-02  0.1300439E+00
        -11   -1    0    0    0    0  0.00000000000E+00  0.00000000000E+00  0.45593999997E+02  0.45594000000E+02  0.51100000000E-03 0.  1.
         11   -1    0    0    0    0 -0.00000000000E+00 -0.00000000000E+00 -0.45593999997E+02  0.45594000000E+02  0.51100000000E-03 0. -1.
    9900012    2    1    2    0    0  0.19822601661E+02  0.26914709982E+02  0.23147936548E+02  0.50528879050E+02  0.30000058360E+02 0.  0.
         12    1    1    2    0    0 -0.19822601661E+02 -0.26914709982E+02 -0.23147936548E+02  0.40659120950E+02  0.00000000000E+00 0. -1.
         11    1    3    3    0    0  0.41246070725E+01  0.16650882786E+02 -0.61039628569E+00  0.17164989512E+02  0.51100000000E-03 0. -1.
        -11    1    3    3    0    0  0.41702010258E+01 -0.33540164752E+01  0.36321128656E+01  0.64677853429E+01  0.51100000000E-03 0.  1.
         12    1    3    3    0    0  0.11527793563E+02  0.13617843671E+02  0.20126219968E+02  0.26896104195E+02  0.00000000000E+00 0. -1.
</event>
<event>
 7    1  0.9633507E-013  0.5052887E+02  0.7816164E-02  0.1300439E+00
        -11   -1    0    0    0    0  0.00000000000E+00  0.00000000000E+00  0.45593999997E+02  0.45594000000E+02  0.51100000000E-03 0. -1.
         11   -1    0    0    0    0 -0.00000000000E+00 -0.00000000000E+00 -0.45593999997E+02  0.45594000000E+02  0.51100000000E-03 0.  1.
    9900012    2    1    2    0    0  0.22217340115E+02  0.10054676120E+02 -0.32533959553E+02  0.50528865259E+02  0.30000016441E+02 0.  0.
         12    1    1    2    0    0 -0.22217340115E+02 -0.10054676120E+02  0.32533959553E+02  0.40659134741E+02  0.00000000000E+00 0. -1.
         11    1    3    3    0    0 -0.21410696598E+01 -0.39901788630E+01 -0.11275977017E+01  0.46666029920E+01  0.51100000000E-03 0.  1.
        -11    1    3    3    0    0  0.13331513363E+02  0.91564053751E+01 -0.51589070476E+01  0.16975963305E+02  0.51100000000E-03 0. -1.
        -12    1    3    3    0    0  0.11026896412E+02  0.48884496082E+01 -0.26247454804E+02  0.28886298962E+02  0.00000000000E+00 0.  1.
</event>
<event>
 7    1  0.6245487E-013  0.5052883E+02  0.7816164E-02  0.1300439E+00
        -11   -1    0    0    0    0  0.00000000000E+00  0.00000000000E+00  0.45593999997E+02  0.45594000000E+02  0.51100000000E-03 0. -1.
         11   -1    0    0    0    0 -0.00000000000E+00 -0.00000000000E+00 -0.45593999997E+02  0.45594000000E+02  0.51100000000E-03 0.  1.
    9900012    2    1    2    0    0 -0.25616112182E+02 -0.29023105640E+02  0.12435516910E+02  0.50528831967E+02  0.29999915246E+02 0.  0.
         12    1    1    2    0    0  0.25616112182E+02  0.29023105640E+02 -0.12435516910E+02  0.40659168033E+02  0.00000000000E+00 0. -1.
         11    1    3    3    0    0 -0.80060910868E+00 -0.15495726694E+02  0.80335533672E+01  0.17472735925E+02  0.51100000000E-03 0. -1.
        -11    1    3    3    0    0 -0.69949325659E+01 -0.10440878364E+02 -0.38959526810E+01  0.13157487228E+02  0.51100000000E-03 0.  1.
        -12    1    3    3    0    0 -0.17820570508E+02 -0.30865005819E+01  0.82979162240E+01  0.19898608814E+02  0.00000000000E+00 0.  1.
</event>
<event>
 7    1  0.6245487E-013  0.5052885E+02  0.7816164E-02  0.1300439E+00
        -11   -1    0    0    0    0  0.00000000000E+00  0.00000000000E+00  0.45593999997E+02  0.45594000000E+02  0.51100000000E-03 0.  1.
         11   -1    0    0    0    0 -0.00000000000E+00 -0.00000000000E+00 -0.45593999997E+02  0.45594000000E+02  0.51100000000E-03 0. -1.
    9900012    2    1    2    0    0  0.18373272991E+02 -0.16616151213E+02  0.32241163919E+02  0.50528852291E+02  0.29999977024E+02 0.  0.
         12    1    1    2    0    0 -0.18373272991E+02  0.16616151213E+02 -0.32241163919E+02  0.40659147709E+02  0.00000000000E+00 0. -1.
         11    1    3    3    0    0  0.16038727541E+01 -0.12636352113E+02  0.23362795326E+02  0.26609584894E+02  0.51100000000E-03 0. -1.
        -11    1    3    3    0    0  0.44654294471E+01 -0.79613475212E+01  0.23160421474E+01  0.94173863673E+01  0.51100000000E-03 0.  1.
         12    1    3    3    0    0  0.12303970789E+02  0.39815484212E+01  0.65623264464E+01  0.14501881030E+02  0.00000000000E+00 0. -1.
</event>
<event>
 7    1  0.6245487E-013  0.5052885E+02  0.7816164E-02  0.1300439E+00
        -11   -1    0    0    0    0  0.00000000000E+00  0.00000000000E+00  0.45593999997E+02  0.45594000000E+02  0.51100000000E-03 0. -1.
         11   -1    0    0    0    0 -0.00000000000E+00 -0.00000000000E+00 -0.45593999997E+02  0.45594000000E+02  0.51100000000E-03 0.  1.
    9900012    2    1    2    0    0 -0.30696457716E+02  0.26657416949E+02 -0.52518405121E+00  0.50528853268E+02  0.29999979994E+02 0.  0.
         12    1    1    2    0    0  0.30696457716E+02 -0.26657416949E+02  0.52518405121E+00  0.40659146732E+02  0.00000000000E+00 0. -1.
         11    1    3    3    0    0 -0.98317004482E+01  0.19193112994E+02  0.36267684551E+01  0.21867587196E+02  0.51100000000E-03 0. -1.
        -11    1    3    3    0    0  0.15650143582E+01 -0.19570850304E+01  0.23963513022E+01  0.34672686055E+01  0.51100000000E-03 0.  1.
        -12    1    3    3    0    0 -0.22429771626E+02  0.94213889856E+01 -0.65483038085E+01  0.25193997467E+02  0.00000000000E+00 0.  1.
</event>
<event>
 7    1  0.6245487E-013  0.5052885E+02  0.7816164E-02  0.1300439E+00
        -11   -1    0    0    0    0  0.00000000000E+00  0.00000000000E+00  0.45593999997E+02  0.45594000000E+02  0.51100000000E-03 0.  1.
         11   -1    0    0    0    0 -0.00000000000E+00 -0.00000000000E+00 -0.45593999997E+02  0.45594000000E+02  0.51100000000E-03 0. -1.
    9900012    2    1    2    0    0 -0.26074104853E+02  0.24216515077E+02  0.19668962806E+02  0.50528847965E+02  0.29999963873E+02 0.  0.
         12    1    1    2    0    0  0.26074104853E+02 -0.24216515077E+02 -0.19668962806E+02  0.40659152035E+02  0.00000000000E+00 0. -1.
         11    1    3    3    0    0 -0.41144650606E+01 -0.16357603712E+01  0.26688583081E+01  0.51698490942E+01  0.51100000000E-03 0.  1.
        -11    1    3    3    0    0 -0.27524515498E+02  0.22502715841E+02  0.14114472893E+02  0.38251660342E+02  0.51100000000E-03 0. -1.
         12    1    3    3    0    0  0.55648757063E+01  0.33495596074E+01  0.28856316057E+01  0.71073385282E+01  0.00000000000E+00 0. -1.
</event>
<event>
 7    1  0.6245487E-013  0.5052886E+02  0.7816164E-02  0.1300439E+00
        -11   -1    0    0    0    0  0.00000000000E+00  0.00000000000E+00  0.45593999997E+02  0.45594000000E+02  0.51100000000E-03 0. -1.
         11   -1    0    0    0    0 -0.00000000000E+00 -0.00000000000E+00 -0.45593999997E+02  0.45594000000E+02  0.51100000000E-03 0.  1.
    9900012    2    1    2    0    0  0.32138131721E+02  0.18752024571E+02 -0.16391098301E+02  0.50528855401E+02  0.29999986476E+02 0.  0.
         12    1    1    2    0    0 -0.32138131721E+02 -0.18752024571E+02  0.16391098301E+02  0.40659144599E+02  0.00000000000E+00 0. -1.
         11    1    3    3    0    0  0.13925173460E+02  0.19988835790E+02 -0.12493550930E+02  0.27377962437E+02  0.51100000000E-03 0. -1.
        -11    1    3    3    0    0  0.17536072932E+02  0.36069256278E+01 -0.35165621786E+01  0.18245272707E+02  0.51100000000E-03 0.  1.
        -12    1    3    3    0    0  0.67688532895E+00 -0.48437368460E+01 -0.38098519285E+00  0.49056202563E+01  0.00000000000E+00 0.  1.
</event>
<event>
 7    1  0.6245487E-013  0.5052887E+02  0.7816164E-02  0.1300439E+00
        -11   -1    0    0    0    0  0.00000000000E+00  0.00000000000E+00  0.45593999997E+02  0.45594000000E+02  0.51100000000E-03 0.  1.
         11   -1    0    0    0    0 -0.00000000000E+00 -0.00000000000E+00 -0.45593999997E+02  0.45594000000E+02  0.51100000000E-03 0. -1.
    9900012    2    1    2    0    0 -0.74903813911E+01 -0.32216309452E+02  0.23646750138E+02  0.50528865723E+02  0.30000017851E+02 0.  0.
         12    1    1    2    0    0  0.74903813911E+01  0.32216309452E+02 -0.23646750138E+02  0.40659134277E+02  0.00000000000E+00 0. -1.
         11    1    3    3    0    0 -0.58273139226E+01 -0.35661948296E+01  0.14711639499E-01  0.68319506591E+01  0.51100000000E-03 0. -1.
        -11    1    3    3    0    0 -0.80969966027E+01 -0.75454457696E+01 -0.39701450566E+00  0.11074869147E+02  0.51100000000E-03 0.  1.
        -12    1    3    3    0    0  0.64339291343E+01 -0.21104668852E+02  0.24029053005E+02  0.32622045916E+02  0.00000000000E+00 0.  1.
</event>
<event>
 7    1  0.6245487E-013  0.5052888E+02  0.7816164E-02  0.1300439E+00
        -11   -1    0    0    0    0  0.00000000000E+00  0.00000000000E+00  0.45593999997E+02  0.45594000000E+02  0.51100000000E-03 0. -1.
         11   -1    0    0    0    0 -0.00000000000E+00 -0.00000000000E+00 -0.45593999997E+02  0.45594000000E+02  0.51100000000E-03 0.  1.
    9900012    2    1    2    0    0  0.18009879001E+02  0.69173313264E+01 -0.35790486122E+02  0.50528879115E+02  0.30000058557E+02 0.  0.
         12    1    1    2    0    0 -0.18009879001E+02 -0.69173313264E+01  0.35790486122E+02  0.40659120885E+02  0.00000000000E+00 0. -1.
         11    1    3    3    0    0  0.84367703534E+01 -0.68994807213E+01 -0.92386245803E+01  0.14287550966E+02  0.51100000000E-03 0. -1.
        -11    1    3    3    0    0 -0.20742929300E+01  0.57078015900E+01  0.69265068142E-01  0.60734247391E+01  0.51100000000E-03 0.  1.
        -12    1    3    3    0    0  0.11647401578E+02  0.81090104577E+01 -0.26621126610E+02  0.30167903409E+02  0.00000000000E+00 0.  1.
</event>
<event>
 7    1  0.6245487E-013  0.5052887E+02  0.7816164E-02  0.1300439E+00
        -11   -1    0    0    0    0  0.00000000000E+00  0.00000000000E+00  0.45593999997E+02  0.45594000000E+02  0.51100000000E-03 0.  1.
         11   -1    0    0    0    0 -0.00000000000E+00 -0.00000000000E+00 -0.45593999997E+02  0.45594000000E+02  0.51100000000E-03 0. -1.
    9900012    2    1    2    0    0 -0.37617129792E+02 -0.92614737695E+01 -0.12342667754E+02  0.50528870675E+02  0.30000032903E+02 0.  0.
         12    1    1    2    0    0  0.37617129792E+02  0.92614737695E+01  0.12342667754E+02  0.40659129325E+02  0.00000000000E+00 0. -1.
         11    1    3    3    0    0 -0.18431885647E+02 -0.75390672469E+01  0.14189047364E+01  0.19964599530E+02  0.51100000000E-03 0. -1.
        -11    1    3    3    0    0 -0.44669870382E+01 -0.92239108055E+01 -0.24332405552E+01  0.10533525697E+02  0.51100000000E-03 0.  1.
         12    1    3    3    0    0 -0.14718257107E+02  0.75015042828E+01 -0.11328331935E+02  0.20030745448E+02  0.00000000000E+00 0. -1.
</event>
<event>
 7    1  0.6245487E-013  0.5052885E+02  0.7816164E-02  0.1300439E+00
        -11   -1    0    0    0    0  0.00000000000E+00  0.00000000000E+00  0.45593999997E+02  0.45594000000E+02  0.51100000000E-03 0.  1.
         11   -1    0    0    0    0 -0.00000000000E+00 -0.00000000000E+00 -0.45593999997E+02  0.45594000000E+02  0.51100000000E-03 0. -1.
    9900012    2    1    2    0    0  0.30841428183E+02  0.30466829595E+01  0.26319016496E+02  0.50528848524E+02  0.29999965575E+02 0.  0.
         12    1    1    2    0    0 -0.30841428183E+02 -0.30466829595E+01 -0.26319016496E+02  0.40659151476E+02  0.00000000000E+00 0. -1.
         11    1    3    3    0    0  0.37927195310E+01 -0.79837954560E+01  0.39725986443E+01  0.96905753995E+01  0.51100000000E-03 0. -1.
        -11    1    3    3    0    0  0.16208528998E+02 -0.25813778219E+01  0.13841337552E+02  0.21470038408E+02  0.51100000000E-03 0.  1.
        -12    1    3    3    0    0  0.10840179653E+02  0.13611856237E+02  0.85050802994E+01  0.19368234717E+02  0.00000000000E+00 0.  1.
</event>
<event>
 7    1  0.6245487E-013  0.5052885E+02  0.7816164E-02  0.1300439E+00
        -11   -1    0    0    0    0  0.00000000000E+00  0.00000000000E+00  0.45593999997E+02  0.45594000000E+02  0.51100000000E-03 0. -1.
         11   -1    0    0    0    0 -0.00000000000E+00 -0.00000000000E+00 -0.45593999997E+02  0.45594000000E+02  0.51100000000E-03 0.  1.
    9900012    2    1    2    0    0  0.32186575491E+02 -0.12246778314E+02 -0.21614975551E+02  0.50528851103E+02  0.29999973413E+02 0.  0.
         12    1    1    2    0    0 -0.32186575491E+02  0.12246778314E+02  0.21614975551E+02  0.40659148897E+02  0.00000000000E+00 0. -1.
         11    1    3    3    0    0  0.13702100083E+02 -0.11517212412E+02 -0.97222658394E+01  0.20369491445E+02  0.51100000000E-03 0. -1.
        -11    1    3    3    0    0  0.19124482001E+02 -0.19171335393E+01 -0.10670098971E+01  0.19249927875E+02  0.51100000000E-03 0.  1.
        -12    1    3    3    0    0 -0.64000659264E+00  0.11875676372E+01 -0.10825699815E+02  0.10909431782E+02  0.00000000000E+00 0.  1.
</event>
<event>
 7    1  0.6245487E-013  0.5052885E+02  0.7816164E-02  0.1300439E+00
        -11   -1    0    0    0    0  0.00000000000E+00  0.00000000000E+00  0.45593999997E+02  0.45594000000E+02  0.51100000000E-03 0.  1.
         11   -1    0    0    0    0 -0.00000000000E+00 -0.00000000000E+00 -0.45593999997E+02  0.45594000000E+02  0.51100000000E-03 0. -1.
    9900012    2    1    2    0    0 -0.25866363189E+02  0.23413227660E+01  0.31282831736E+02  0.50528854677E+02  0.29999984277E+02 0.  0.
         12    1    1    2    0    0  0.25866363189E+02 -0.23413227660E+01 -0.31282831736E+02  0.40659145323E+02  0.00000000000E+00 0. -1.
         11    1    3    3    0    0 -0.62644102915E+01  0.98871130881E+00 -0.40614655486E+00  0.63549462340E+01  0.51100000000E-03 0. -1.
        -11    1    3    3    0    0 -0.12438245849E+02 -0.95864781937E+01  0.93138377992E+01  0.18258096801E+02  0.51100000000E-03 0.  1.
        -12    1    3    3    0    0 -0.71637070485E+01  0.10939089651E+02  0.22375140492E+02  0.25915811643E+02  0.00000000000E+00 0.  1.
</event>
<event>
 7    1  0.6245487E-013  0.5052886E+02  0.7816164E-02  0.1300439E+00
        -11   -1    0    0    0    0  0.00000000000E+00  0.00000000000E+00  0.45593999997E+02  0.45594000000E+02  0.51100000000E-03 0.  1.
         11   -1    0    0    0    0 -0.00000000000E+00 -0.00000000000E+00 -0.45593999997E+02  0.45594000000E+02  0.51100000000E-03 0. -1.
    9900012    2    1    2    0    0 -0.33967798768E+02  0.50917094686E+01  0.21758421218E+02  0.50528858933E+02  0.29999997212E+02 0.  0.
         12    1    1    2    0    0  0.33967798768E+02 -0.50917094686E+01 -0.21758421218E+02  0.40659141067E+02  0.00000000000E+00 0. -1.
         11    1    3    3    0    0 -0.13049803795E+02  0.10328293222E+02  0.52579001560E+01  0.17453267152E+02  0.51100000000E-03 0. -1.
        -11    1    3    3    0    0 -0.13031572365E+02  0.63246257742E+01  0.10269220636E+02  0.17756116192E+02  0.51100000000E-03 0.  1.
         12    1    3    3    0    0 -0.78864226072E+01 -0.11561209528E+02  0.62313004260E+01  0.15319475588E+02  0.00000000000E+00 0. -1.
</event>
<event>
 7    1  0.6245487E-013  0.5052884E+02  0.7816164E-02  0.1300439E+00
        -11   -1    0    0    0    0  0.00000000000E+00  0.00000000000E+00  0.45593999997E+02  0.45594000000E+02  0.51100000000E-03 0.  1.
         11   -1    0    0    0    0 -0.00000000000E+00 -0.00000000000E+00 -0.45593999997E+02  0.45594000000E+02  0.51100000000E-03 0. -1.
    9900012    2    1    2    0    0  0.85803601684E+01  0.24066888936E+02  0.31627982871E+02  0.50528843293E+02  0.29999949673E+02 0.  0.
         12    1    1    2    0    0 -0.85803601684E+01 -0.24066888936E+02 -0.31627982871E+02  0.40659156707E+02  0.00000000000E+00 0. -1.
         11    1    3    3    0    0 -0.98838590188E+00  0.13868525564E+02  0.16244600460E+01  0.13998277705E+02  0.51100000000E-03 0. -1.
        -11    1    3    3    0    0  0.30651772828E+01  0.12087284436E+02  0.12043821997E+02  0.17336418470E+02  0.51100000000E-03 0.  1.
         12    1    3    3    0    0  0.65035687875E+01 -0.18889210638E+01  0.17959700828E+02  0.19194147118E+02  0.00000000000E+00 0. -1.
</event>
<event>
 7    1  0.6245487E-013  0.5052892E+02  0.7816164E-02  0.1300439E+00
        -11   -1    0    0    0    0  0.00000000000E+00  0.00000000000E+00  0.45593999997E+02  0.45594000000E+02  0.51100000000E-03 0. -1.
         11   -1    0    0    0    0 -0.00000000000E+00 -0.00000000000E+00 -0.45593999997E+02  0.45594000000E+02  0.51100000000E-03 0.  1.
    9900012    2    1    2    0    0 -0.74214875234E+01 -0.34082623506E+02 -0.20891564405E+02  0.50528915340E+02  0.30000168667E+02 0.  0.
         12    1    1    2    0    0  0.74214875234E+01  0.34082623506E+02  0.20891564405E+02  0.40659084660E+02  0.00000000000E+00 0. -1.
         11    1    3    3    0    0  0.14763034547E+01 -0.85720130819E+01  0.65496257039E+01  0.10888364307E+02  0.51100000000E-03 0. -1.
        -11    1    3    3    0    0 -0.61006205763E+00 -0.57475745509E+01 -0.11701230744E+02  0.13050884649E+02  0.51100000000E-03 0.  1.
        -12    1    3    3    0    0 -0.82877289204E+01 -0.19763035873E+02 -0.15739959365E+02  0.26589666384E+02  0.00000000000E+00 0.  1.
</event>
<event>
 7    1  0.6245487E-013  0.5052887E+02  0.7816164E-02  0.1300439E+00
        -11   -1    0    0    0    0  0.00000000000E+00  0.00000000000E+00  0.45593999997E+02  0.45594000000E+02  0.51100000000E-03 0.  1.
         11   -1    0    0    0    0 -0.00000000000E+00 -0.00000000000E+00 -0.45593999997E+02  0.45594000000E+02  0.51100000000E-03 0. -1.
    9900012    2    1    2    0    0 -0.31967037071E+02 -0.26254529885E+01  0.24987599119E+02  0.50528873445E+02  0.30000041325E+02 0.  0.
         12    1    1    2    0    0  0.31967037071E+02  0.26254529885E+01 -0.24987599119E+02  0.40659126555E+02  0.00000000000E+00 0. -1.
         11    1    3    3    0    0 -0.30385935008E+01 -0.62534994082E+01  0.56613021136E+01  0.89660273920E+01  0.51100000000E-03 0. -1.
        -11    1    3    3    0    0 -0.27314288640E+02 -0.49231599858E+01  0.17030249943E+02  0.32562820540E+02  0.51100000000E-03 0.  1.
        -12    1    3    3    0    0 -0.16141549298E+01  0.85512064055E+01  0.22960470618E+01  0.90000255131E+01  0.00000000000E+00 0.  1.
</event>
<event>
 7    1  0.6245487E-013  0.5052887E+02  0.7816164E-02  0.1300439E+00
        -11   -1    0    0    0    0  0.00000000000E+00  0.00000000000E+00  0.45593999997E+02  0.45594000000E+02  0.51100000000E-03 0.  1.
         11   -1    0    0    0    0 -0.00000000000E+00 -0.00000000000E+00 -0.45593999997E+02  0.45594000000E+02  0.51100000000E-03 0. -1.
    9900012    2    1    2    0    0  0.92454057010E+01  0.31443572900E+02  0.24062187067E+02  0.50528872492E+02  0.30000038427E+02 0.  0.
         12    1    1    2    0    0 -0.92454057010E+01 -0.31443572900E+02 -0.24062187067E+02  0.40659127508E+02  0.00000000000E+00 0. -1.
         11    1    3    3    0    0 -0.67253083012E-01  0.42409969876E+01  0.22396399534E+00  0.42474390588E+01  0.51100000000E-03 0. -1.
        -11    1    3    3    0    0  0.36711515161E+00  0.26067081626E+02  0.67017944570E+01  0.26917309807E+02  0.51100000000E-03 0.  1.
        -12    1    3    3    0    0  0.89455436324E+01  0.11354942859E+01  0.17136428614E+02  0.19364123626E+02  0.00000000000E+00 0.  1.
</event>
<event>
 7    1  0.6245487E-013  0.5052886E+02  0.7816164E-02  0.1300439E+00
        -11   -1    0    0    0    0  0.00000000000E+00  0.00000000000E+00  0.45593999997E+02  0.45594000000E+02  0.51100000000E-03 0.  1.
         11   -1    0    0    0    0 -0.00000000000E+00 -0.00000000000E+00 -0.45593999997E+02  0.45594000000E+02  0.51100000000E-03 0. -1.
    9900012    2    1    2    0    0 -0.31450697106E+02  0.57340442826E+01  0.25122502650E+02  0.50528858940E+02  0.29999997234E+02 0.  0.
         12    1    1    2    0    0  0.31450697106E+02 -0.57340442826E+01 -0.25122502650E+02  0.40659141060E+02  0.00000000000E+00 0. -1.
         11    1    3    3    0    0 -0.23271123023E+01 -0.20527282645E+01 -0.28812672202E+00  0.31164342227E+01  0.51100000000E-03 0. -1.
        -11    1    3    3    0    0 -0.22444592275E+02  0.16270079551E+02  0.12030571087E+02  0.30219362203E+02  0.51100000000E-03 0.  1.
        -12    1    3    3    0    0 -0.66789925290E+01 -0.84833070037E+01  0.13380058285E+02  0.17193062515E+02  0.00000000000E+00 0.  1.
</event>
<event>
 7    1  0.6245487E-013  0.5052886E+02  0.7816164E-02  0.1300439E+00
        -11   -1    0    0    0    0  0.00000000000E+00  0.00000000000E+00  0.45593999997E+02  0.45594000000E+02  0.51100000000E-03 0.  1.
         11   -1    0    0    0    0 -0.00000000000E+00 -0.00000000000E+00 -0.45593999997E+02  0.45594000000E+02  0.51100000000E-03 0. -1.
    9900012    2    1    2    0    0 -0.56515408428E+00 -0.30104393749E+02  0.27323463763E+02  0.50528860877E+02  0.30000003123E+02 0.  0.
         12    1    1    2    0    0  0.56515408428E+00  0.30104393749E+02 -0.27323463763E+02  0.40659139123E+02  0.00000000000E+00 0. -1.
         11    1    3    3    0    0  0.25074442329E+01 -0.23025916633E+01  0.84351392187E+01  0.90961958449E+01  0.51100000000E-03 0. -1.
        -11    1    3    3    0    0 -0.67775222439E+01  0.11683893459E+01  0.44773453904E+00  0.68920539688E+01  0.51100000000E-03 0.  1.
        -12    1    3    3    0    0  0.37049239267E+01 -0.28970191432E+02  0.18440590006E+02  0.34540611064E+02  0.00000000000E+00 0.  1.
</event>
<event>
 7    1  0.6245487E-013  0.5052885E+02  0.7816164E-02  0.1300439E+00
        -11   -1    0    0    0    0  0.00000000000E+00  0.00000000000E+00  0.45593999997E+02  0.45594000000E+02  0.51100000000E-03 0. -1.
         11   -1    0    0    0    0 -0.00000000000E+00 -0.00000000000E+00 -0.45593999997E+02  0.45594000000E+02  0.51100000000E-03 0.  1.
    9900012    2    1    2    0    0  0.61044207836E+01  0.37067696270E+02 -0.15552757413E+02  0.50528851915E+02  0.29999975881E+02 0.  0.
         12    1    1    2    0    0 -0.61044207836E+01 -0.37067696270E+02  0.15552757413E+02  0.40659148085E+02  0.00000000000E+00 0. -1.
         11    1    3    3    0    0 -0.12613083417E+01  0.40873449975E+01 -0.30613138322E+01  0.52601264721E+01  0.51100000000E-03 0. -1.
        -11    1    3    3    0    0  0.11585222067E+02  0.94085796216E+01  0.48609883622E+01  0.15696112543E+02  0.51100000000E-03 0.  1.
        -12    1    3    3    0    0 -0.42194929414E+01  0.23571771651E+02 -0.17352431943E+02  0.29572612900E+02  0.00000000000E+00 0.  1.
</event>
<event>
 7    1  0.6245487E-013  0.5052886E+02  0.7816164E-02  0.1300439E+00
        -11   -1    0    0    0    0  0.00000000000E+00  0.00000000000E+00  0.45593999997E+02  0.45594000000E+02  0.51100000000E-03 0.  1.
         11   -1    0    0    0    0 -0.00000000000E+00 -0.00000000000E+00 -0.45593999997E+02  0.45594000000E+02  0.51100000000E-03 0. -1.
    9900012    2    1    2    0    0  0.79005642754E+01  0.37203947970E+02  0.14374026784E+02  0.50528864416E+02  0.30000013880E+02 0.  0.
         12    1    1    2    0    0 -0.79005642754E+01 -0.37203947970E+02 -0.14374026784E+02  0.40659135584E+02  0.00000000000E+00 0. -1.
         11    1    3    3    0    0  0.30393307427E+01  0.24561193393E+02  0.35034148062E+01  0.24995272910E+02  0.51100000000E-03 0. -1.
        -11    1    3    3    0    0  0.99801213075E+01  0.14140831613E+02  0.60224533208E+01  0.18325825610E+02  0.51100000000E-03 0.  1.
         12    1    3    3    0    0 -0.51188877748E+01 -0.14980770366E+01  0.48481586567E+01  0.72077658965E+01  0.00000000000E+00 0. -1.
</event>
<event>
 7    1  0.6245487E-013  0.5052886E+02  0.7816164E-02  0.1300439E+00
        -11   -1    0    0    0    0  0.00000000000E+00  0.00000000000E+00  0.45593999997E+02  0.45594000000E+02  0.51100000000E-03 0.  1.
         11   -1    0    0    0    0 -0.00000000000E+00 -0.00000000000E+00 -0.45593999997E+02  0.45594000000E+02  0.51100000000E-03 0. -1.
    9900012    2    1    2    0    0  0.32373285372E+02 -0.24668040357E+01  0.24475519285E+02  0.50528858689E+02  0.29999996470E+02 0.  0.
         12    1    1    2    0    0 -0.32373285372E+02  0.24668040357E+01 -0.24475519285E+02  0.40659141311E+02  0.00000000000E+00 0. -1.
         11    1    3    3    0    0  0.16617185770E+02  0.16707039797E+01 -0.26334730630E+01  0.16907314847E+02  0.51100000000E-03 0. -1.
        -11    1    3    3    0    0  0.12054453520E+02  0.97645769539E+00  0.11111403179E+02  0.16423355326E+02  0.51100000000E-03 0.  1.
        -12    1    3    3    0    0  0.37016460817E+01 -0.51139657108E+01  0.15997589170E+02  0.17198188516E+02  0.00000000000E+00 0.  1.
</event>
<event>
 7    1  0.6245487E-013  0.5052886E+02  0.7816164E-02  0.1300439E+00
        -11   -1    0    0    0    0  0.00000000000E+00  0.00000000000E+00  0.45593999997E+02  0.45594000000E+02  0.51100000000E-03 0. -1.
         11   -1    0    0    0    0 -0.00000000000E+00 -0.00000000000E+00 -0.45593999997E+02  0.45594000000E+02  0.51100000000E-03 0.  1.
    9900012    2    1    2    0    0  0.16498004284E+02 -0.17498468056E+02 -0.32783918412E+02  0.50528857902E+02  0.29999994080E+02 0.  0.
         12    1    1    2    0    0 -0.16498004284E+02  0.17498468056E+02  0.32783918412E+02  0.40659142098E+02  0.00000000000E+00 0. -1.
         11    1    3    3    0    0  0.27720734078E+00 -0.59251566149E+01 -0.17365467761E+02  0.18350580253E+02  0.51100000000E-03 0. -1.
        -11    1    3    3    0    0  0.17873393769E+02 -0.40425646240E+01 -0.16160361857E+02  0.24432720462E+02  0.51100000000E-03 0.  1.
         12    1    3    3    0    0 -0.16525968255E+01 -0.75307468176E+01  0.74191120605E+00  0.77455571869E+01  0.00000000000E+00 0. -1.
</event>
<event>
 7    1  0.6245487E-013  0.5052886E+02  0.7816164E-02  0.1300439E+00
        -11   -1    0    0    0    0  0.00000000000E+00  0.00000000000E+00  0.45593999997E+02  0.45594000000E+02  0.51100000000E-03 0. -1.
         11   -1    0    0    0    0 -0.00000000000E+00 -0.00000000000E+00 -0.45593999997E+02  0.45594000000E+02  0.51100000000E-03 0.  1.
    9900012    2    1    2    0    0 -0.19312875819E+02 -0.91883940352E+00 -0.35767782616E+02  0.50528859434E+02  0.29999998737E+02 0.  0.
         12    1    1    2    0    0  0.19312875819E+02  0.91883940352E+00  0.35767782616E+02  0.40659140566E+02  0.00000000000E+00 0. -1.
         11    1    3    3    0    0 -0.32956186002E+01 -0.10536715078E+02 -0.12743385644E+02  0.16860526223E+02  0.51100000000E-03 0.  1.
        -11    1    3    3    0    0 -0.33888152511E+01  0.23452487625E+01 -0.17667925904E+02  0.18142212285E+02  0.51100000000E-03 0. -1.
         12    1    3    3    0    0 -0.12628441967E+02  0.72726269119E+01 -0.53564710684E+01  0.15526120927E+02  0.00000000000E+00 0. -1.
</event>
<event>
 7    1  0.6245487E-013  0.5052897E+02  0.7816164E-02  0.1300438E+00
        -11   -1    0    0    0    0  0.00000000000E+00  0.00000000000E+00  0.45593999997E+02  0.45594000000E+02  0.51100000000E-03 0. -1.
         11   -1    0    0    0    0 -0.00000000000E+00 -0.00000000000E+00 -0.45593999997E+02  0.45594000000E+02  0.51100000000E-03 0.  1.
    9900012    2    1    2    0    0  0.23906369276E+02  0.22387680937E+02 -0.24092192640E+02  0.50528972762E+02  0.30000343206E+02 0.  0.
         12    1    1    2    0    0 -0.23906369276E+02 -0.22387680937E+02  0.24092192640E+02  0.40659027238E+02  0.00000000000E+00 0. -1.
         11    1    3    3    0    0 -0.99032383276E+00  0.90258588143E+01 -0.42396095641E+00  0.90899181396E+01  0.51100000000E-03 0. -1.
        -11    1    3    3    0    0  0.13029278836E+02  0.13010912259E+02 -0.46038989545E+01  0.18980037688E+02  0.51100000000E-03 0.  1.
         12    1    3    3    0    0  0.11867414273E+02  0.35090986389E+00 -0.19064332730E+02  0.22459016935E+02  0.00000000000E+00 0. -1.
</event>
<event>
 7    1  0.6245487E-013  0.5052886E+02  0.7816164E-02  0.1300439E+00
        -11   -1    0    0    0    0  0.00000000000E+00  0.00000000000E+00  0.45593999997E+02  0.45594000000E+02  0.51100000000E-03 0. -1.
         11   -1    0    0    0    0 -0.00000000000E+00 -0.00000000000E+00 -0.45593999997E+02  0.45594000000E+02  0.51100000000E-03 0.  1.
    9900012    2    1    2    0    0 -0.82636757823E+01 -0.39810463153E+02  0.64956788553E-01  0.50528861626E+02  0.30000005400E+02 0.  0.
         12    1    1    2    0    0  0.82636757823E+01  0.39810463153E+02 -0.64956788553E-01  0.40659138374E+02  0.00000000000E+00 0. -1.
         11    1    3    3    0    0 -0.22257374161E+00  0.29486877733E+01  0.58647547693E+00  0.30146728514E+01  0.51100000000E-03 0. -1.
        -11    1    3    3    0    0  0.53798299746E+01 -0.12544511153E+02 -0.41199907065E+01  0.14257687551E+02  0.51100000000E-03 0.  1.
         12    1    3    3    0    0 -0.13420932015E+02 -0.30214639773E+02  0.35984720181E+01  0.33256501224E+02  0.00000000000E+00 0. -1.
</event>
<event>
 7    1  0.6245487E-013  0.5052886E+02  0.7816164E-02  0.1300439E+00
        -11   -1    0    0    0    0  0.00000000000E+00  0.00000000000E+00  0.45593999997E+02  0.45594000000E+02  0.51100000000E-03 0. -1.
         11   -1    0    0    0    0 -0.00000000000E+00 -0.00000000000E+00 -0.45593999997E+02  0.45594000000E+02  0.51100000000E-03 0.  1.
    9900012    2    1    2    0    0  0.11837802309E+02  0.16919783704E+02 -0.35025034543E+02  0.50528859714E+02  0.29999999587E+02 0.  0.
         12    1    1    2    0    0 -0.11837802309E+02 -0.16919783704E+02  0.35025034543E+02  0.40659140286E+02  0.00000000000E+00 0. -1.
         11    1    3    3    0    0  0.12774319959E+02  0.14737430058E+01 -0.99809544322E+01  0.16278041052E+02  0.51100000000E-03 0.  1.
        -11    1    3    3    0    0  0.63297032976E+01  0.14662449817E+02 -0.18511074989E+02  0.24448158948E+02  0.51100000000E-03 0. -1.
         12    1    3    3    0    0 -0.72662209479E+01  0.78359088087E+00 -0.65330051220E+01  0.98026597134E+01  0.00000000000E+00 0. -1.
</event>
<event>
 7    1  0.6245487E-013  0.5052887E+02  0.7816164E-02  0.1300439E+00
        -11   -1    0    0    0    0  0.00000000000E+00  0.00000000000E+00  0.45593999997E+02  0.45594000000E+02  0.51100000000E-03 0.  1.
         11   -1    0    0    0    0 -0.00000000000E+00 -0.00000000000E+00 -0.45593999997E+02  0.45594000000E+02  0.51100000000E-03 0. -1.
    9900012    2    1    2    0    0 -0.25266430199E+01  0.10662463129E+02  0.39154728538E+02  0.50528870498E+02  0.30000032367E+02 0.  0.
         12    1    1    2    0    0  0.25266430199E+01 -0.10662463129E+02 -0.39154728538E+02  0.40659129502E+02  0.00000000000E+00 0. -1.
         11    1    3    3    0    0 -0.30492394390E+01 -0.23616722219E+01  0.35855612739E+00  0.38734893311E+01  0.51100000000E-03 0. -1.
        -11    1    3    3    0    0  0.19025098451E+01 -0.29881858822E+01  0.25645748694E+02  0.25889249215E+02  0.51100000000E-03 0.  1.
         12    1    3    3    0    0 -0.13799134260E+01  0.16012321233E+02  0.13150423717E+02  0.20766131952E+02  0.00000000000E+00 0. -1.
</event>
<event>
 7    1  0.6245487E-013  0.5052886E+02  0.7816164E-02  0.1300439E+00
        -11   -1    0    0    0    0  0.00000000000E+00  0.00000000000E+00  0.45593999997E+02  0.45594000000E+02  0.51100000000E-03 0. -1.
         11   -1    0    0    0    0 -0.00000000000E+00 -0.00000000000E+00 -0.45593999997E+02  0.45594000000E+02  0.51100000000E-03 0.  1.
    9900012    2    1    2    0    0 -0.13852321728E+02 -0.33580665487E+02 -0.18265198500E+02  0.50528863413E+02  0.30000010829E+02 0.  0.
         12    1    1    2    0    0  0.13852321728E+02  0.33580665487E+02  0.18265198500E+02  0.40659136587E+02  0.00000000000E+00 0. -1.
         11    1    3    3    0    0  0.37549490460E+01 -0.45822601775E+01  0.60147545633E+00  0.59547060094E+01  0.51100000000E-03 0. -1.
        -11    1    3    3    0    0 -0.26725326696E+01  0.30153992307E+01 -0.54686218083E+01  0.67927084535E+01  0.51100000000E-03 0.  1.
         12    1    3    3    0    0 -0.14934738104E+02 -0.32013804540E+02 -0.13398052148E+02  0.37781448950E+02  0.00000000000E+00 0. -1.
</event>
<event>
 7    1  0.6245487E-013  0.5052887E+02  0.7816164E-02  0.1300439E+00
        -11   -1    0    0    0    0  0.00000000000E+00  0.00000000000E+00  0.45593999997E+02  0.45594000000E+02  0.51100000000E-03 0. -1.
         11   -1    0    0    0    0 -0.00000000000E+00 -0.00000000000E+00 -0.45593999997E+02  0.45594000000E+02  0.51100000000E-03 0.  1.
    9900012    2    1    2    0    0 -0.36926131002E+02 -0.10285820547E+02 -0.13558294270E+02  0.50528873120E+02  0.30000040336E+02 0.  0.
         12    1    1    2    0    0  0.36926131002E+02  0.10285820547E+02  0.13558294270E+02  0.40659126880E+02  0.00000000000E+00 0. -1.
         11    1    3    3    0    0 -0.31038325582E+02 -0.59267845386E+01 -0.14334418406E+02  0.34698414679E+02  0.51100000000E-03 0.  1.
        -11    1    3    3    0    0  0.45118062919E+00 -0.77828853831E+01 -0.20987300089E+01  0.80735083303E+01  0.51100000000E-03 0. -1.
        -12    1    3    3    0    0 -0.63389860494E+01  0.34238493744E+01  0.28748541450E+01  0.77569501112E+01  0.00000000000E+00 0.  1.
</event>
<event>
 7    1  0.6245487E-013  0.5052886E+02  0.7816164E-02  0.1300439E+00
        -11   -1    0    0    0    0  0.00000000000E+00  0.00000000000E+00  0.45593999997E+02  0.45594000000E+02  0.51100000000E-03 0.  1.
         11   -1    0    0    0    0 -0.00000000000E+00 -0.00000000000E+00 -0.45593999997E+02  0.45594000000E+02  0.51100000000E-03 0. -1.
    9900012    2    1    2    0    0  0.11941205054E+02  0.12433598338E+02  0.36823614853E+02  0.50528863799E+02  0.30000012004E+02 0.  0.
         12    1    1    2    0    0 -0.11941205054E+02 -0.12433598338E+02 -0.36823614853E+02  0.40659136201E+02  0.00000000000E+00 0. -1.
         11    1    3    3    0    0 -0.26460931422E+01  0.11387385464E+02  0.18050879707E+02  0.21506013464E+02  0.51100000000E-03 0. -1.
        -11    1    3    3    0    0  0.43980916789E+01 -0.76043745512E+00  0.18111773455E+02  0.18653627355E+02  0.51100000000E-03 0.  1.
         12    1    3    3    0    0  0.10189206518E+02  0.18066503293E+01  0.66096169052E+00  0.10369222981E+02  0.00000000000E+00 0. -1.
</event>
<event>
 7    1  0.6245487E-013  0.5052887E+02  0.7816164E-02  0.1300439E+00
        -11   -1    0    0    0    0  0.00000000000E+00  0.00000000000E+00  0.45593999997E+02  0.45594000000E+02  0.51100000000E-03 0.  1.
         11   -1    0    0    0    0 -0.00000000000E+00 -0.00000000000E+00 -0.45593999997E+02  0.45594000000E+02  0.51100000000E-03 0. -1.
    9900012    2    1    2    0    0 -0.36756148935E+02  0.14988454954E+02  0.88032062165E+01  0.50528871798E+02  0.30000036318E+02 0.  0.
         12    1    1    2    0    0  0.36756148935E+02 -0.14988454954E+02 -0.88032062165E+01  0.40659128202E+02  0.00000000000E+00 0. -1.
         11    1    3    3    0    0 -0.79261417085E+01 -0.53090575297E+00 -0.54252314773E+01  0.96197047848E+01  0.51100000000E-03 0. -1.
        -11    1    3    3    0    0 -0.15192478577E+02  0.16731147388E+02  0.22388500500E+01  0.22710243241E+02  0.51100000000E-03 0.  1.
        -12    1    3    3    0    0 -0.13637528649E+02 -0.12117866815E+01  0.11989587644E+02  0.18198923773E+02  0.00000000000E+00 0.  1.
</event>
<event>
 7    1  0.6245487E-013  0.5052886E+02  0.7816164E-02  0.1300439E+00
        -11   -1    0    0    0    0  0.00000000000E+00  0.00000000000E+00  0.45593999997E+02  0.45594000000E+02  0.51100000000E-03 0.  1.
         11   -1    0    0    0    0 -0.00000000000E+00 -0.00000000000E+00 -0.45593999997E+02  0.45594000000E+02  0.51100000000E-03 0. -1.
    9900012    2    1    2    0    0 -0.31286038678E+02  0.23889502555E+02  0.10180418550E+02  0.50528862401E+02  0.30000007754E+02 0.  0.
         12    1    1    2    0    0  0.31286038678E+02 -0.23889502555E+02 -0.10180418550E+02  0.40659137599E+02  0.00000000000E+00 0. -1.
         11    1    3    3    0    0  0.22321646326E+01 -0.93692159291E+00  0.26196584554E+01  0.35669302912E+01  0.51100000000E-03 0. -1.
        -11    1    3    3    0    0  0.10112643237E+01  0.65293219047E+00 -0.32345192612E+01  0.34512448609E+01  0.51100000000E-03 0.  1.
        -12    1    3    3    0    0 -0.34529467634E+02  0.24173491957E+02  0.10795279356E+02  0.43510687249E+02  0.00000000000E+00 0.  1.
</event>
<event>
 7    1  0.6245487E-013  0.5052886E+02  0.7816164E-02  0.1300439E+00
        -11   -1    0    0    0    0  0.00000000000E+00  0.00000000000E+00  0.45593999997E+02  0.45594000000E+02  0.51100000000E-03 0. -1.
         11   -1    0    0    0    0 -0.00000000000E+00 -0.00000000000E+00 -0.45593999997E+02  0.45594000000E+02  0.51100000000E-03 0.  1.
    9900012    2    1    2    0    0 -0.29500611712E+02 -0.27253156676E+02  0.63359827617E+01  0.50528864277E+02  0.30000013457E+02 0.  0.
         12    1    1    2    0    0  0.29500611712E+02  0.27253156676E+02 -0.63359827617E+01  0.40659135723E+02  0.00000000000E+00 0. -1.
         11    1    3    3    0    0 -0.10390635888E+02 -0.10996025242E+02  0.32883819127E+01  0.15481968258E+02  0.51100000000E-03 0. -1.
        -11    1    3    3    0    0 -0.17695683074E+02 -0.20612767816E+02 -0.31416457282E+01  0.27347638557E+02  0.51100000000E-03 0.  1.
         12    1    3    3    0    0 -0.14142927497E+01  0.43556363823E+01  0.61892465772E+01  0.76992574623E+01  0.00000000000E+00 0. -1.
</event>
<event>
 7    1  0.6245487E-013  0.5052887E+02  0.7816164E-02  0.1300439E+00
        -11   -1    0    0    0    0  0.00000000000E+00  0.00000000000E+00  0.45593999997E+02  0.45594000000E+02  0.51100000000E-03 0. -1.
         11   -1    0    0    0    0 -0.00000000000E+00 -0.00000000000E+00 -0.45593999997E+02  0.45594000000E+02  0.51100000000E-03 0.  1.
    9900012    2    1    2    0    0 -0.25264419852E+02  0.29971305484E+02  0.10797913141E+02  0.50528868294E+02  0.30000025665E+02 0.  0.
         12    1    1    2    0    0  0.25264419852E+02 -0.29971305484E+02 -0.10797913141E+02  0.40659131706E+02  0.00000000000E+00 0. -1.
         11    1    3    3    0    0 -0.17813927293E+02  0.14208896496E+02  0.12412323254E+02  0.25947919263E+02  0.51100000000E-03 0. -1.
        -11    1    3    3    0    0 -0.25064167941E+01  0.12803044430E+02  0.65420595820E+01  0.14594472092E+02  0.51100000000E-03 0.  1.
         12    1    3    3    0    0 -0.49440757648E+01  0.29593645590E+01 -0.81564696950E+01  0.99864769387E+01  0.00000000000E+00 0. -1.
</event>
<event>
 7    1  0.6245487E-013  0.5052887E+02  0.7816164E-02  0.1300439E+00
        -11   -1    0    0    0    0  0.00000000000E+00  0.00000000000E+00  0.45593999997E+02  0.45594000000E+02  0.51100000000E-03 0. -1.
         11   -1    0    0    0    0 -0.00000000000E+00 -0.00000000000E+00 -0.45593999997E+02  0.45594000000E+02  0.51100000000E-03 0.  1.
    9900012    2    1    2    0    0  0.37076150177E+02  0.13387557570E+02 -0.99648169452E+01  0.50528865892E+02  0.30000018365E+02 0.  0.
         12    1    1    2    0    0 -0.37076150177E+02 -0.13387557570E+02  0.99648169452E+01  0.40659134108E+02  0.00000000000E+00 0. -1.
         11    1    3    3    0    0  0.14087244537E+01  0.43376389063E+01  0.57568728015E+01  0.73444673450E+01  0.51100000000E-03 0. -1.
        -11    1    3    3    0    0  0.15999970295E+02 -0.41562064952E+01 -0.64307587662E+01  0.17737749588E+02  0.51100000000E-03 0.  1.
        -12    1    3    3    0    0  0.19667455429E+02  0.13206125159E+02 -0.92909309804E+01  0.25446648959E+02  0.00000000000E+00 0.  1.
</event>
<event>
 7    1  0.6245487E-013  0.5052886E+02  0.7816164E-02  0.1300439E+00
        -11   -1    0    0    0    0  0.00000000000E+00  0.00000000000E+00  0.45593999997E+02  0.45594000000E+02  0.51100000000E-03 0.  1.
         11   -1    0    0    0    0 -0.00000000000E+00 -0.00000000000E+00 -0.45593999997E+02  0.45594000000E+02  0.51100000000E-03 0. -1.
    9900012    2    1    2    0    0  0.15225138942E+01  0.29365300246E+02  0.28080717567E+02  0.50528860730E+02  0.30000002675E+02 0.  0.
         12    1    1    2    0    0 -0.15225138942E+01 -0.29365300246E+02 -0.28080717567E+02  0.40659139270E+02  0.00000000000E+00 0. -1.
         11    1    3    3    0    0 -0.76360004576E+01 -0.15611332640E+01  0.32363059070E+01  0.84391537633E+01  0.51100000000E-03 0. -1.
        -11    1    3    3    0    0 -0.21776251127E+01  0.78190806755E+01  0.75133284952E+01  0.11060297423E+02  0.51100000000E-03 0.  1.
         12    1    3    3    0    0  0.11336139464E+02  0.23107352835E+02  0.17331083164E+02  0.31029409544E+02  0.00000000000E+00 0. -1.
</event>
<event>
 7    1  0.6245487E-013  0.5052886E+02  0.7816164E-02  0.1300439E+00
        -11   -1    0    0    0    0  0.00000000000E+00  0.00000000000E+00  0.45593999997E+02  0.45594000000E+02  0.51100000000E-03 0.  1.
         11   -1    0    0    0    0 -0.00000000000E+00 -0.00000000000E+00 -0.45593999997E+02  0.45594000000E+02  0.51100000000E-03 0. -1.
    9900012    2    1    2    0    0 -0.27420073242E+02 -0.63777478688E+01  0.29336488461E+02  0.50528860317E+02  0.30000001420E+02 0.  0.
         12    1    1    2    0    0  0.27420073242E+02  0.63777478688E+01 -0.29336488461E+02  0.40659139683E+02  0.00000000000E+00 0. -1.
         11    1    3    3    0    0 -0.68706046040E+01 -0.22444880735E+01 -0.11152817216E+01  0.73134662040E+01  0.51100000000E-03 0. -1.
        -11    1    3    3    0    0  0.48540476050E+01  0.20615314985E+00  0.41117539674E+01  0.63648093626E+01  0.51100000000E-03 0.  1.
         12    1    3    3    0    0 -0.25403516243E+02 -0.43394129451E+01  0.26340016216E+02  0.36850584751E+02  0.00000000000E+00 0. -1.
</event>
<event>
 7    1  0.6245487E-013  0.5052886E+02  0.7816164E-02  0.1300439E+00
        -11   -1    0    0    0    0  0.00000000000E+00  0.00000000000E+00  0.45593999997E+02  0.45594000000E+02  0.51100000000E-03 0.  1.
         11   -1    0    0    0    0 -0.00000000000E+00 -0.00000000000E+00 -0.45593999997E+02  0.45594000000E+02  0.51100000000E-03 0. -1.
    9900012    2    1    2    0    0  0.28924935610E+01  0.67668627951E+01  0.39987604884E+02  0.50528862092E+02  0.30000006814E+02 0.  0.
         12    1    1    2    0    0 -0.28924935610E+01 -0.67668627951E+01 -0.39987604884E+02  0.40659137908E+02  0.00000000000E+00 0. -1.
         11    1    3    3    0    0  0.12017530266E+02  0.84538090812E+01  0.10094276517E+02  0.17826450581E+02  0.51100000000E-03 0. -1.
        -11    1    3    3    0    0 -0.70552408254E+00 -0.43666453012E+01  0.97495151340E+01  0.10705998367E+02  0.51100000000E-03 0.  1.
        -12    1    3    3    0    0 -0.84195126221E+01  0.26796990151E+01  0.20143813234E+02  0.21996413144E+02  0.00000000000E+00 0.  1.
</event>
<event>
 7    1  0.6245487E-013  0.5052886E+02  0.7816164E-02  0.1300439E+00
        -11   -1    0    0    0    0  0.00000000000E+00  0.00000000000E+00  0.45593999997E+02  0.45594000000E+02  0.51100000000E-03 0.  1.
         11   -1    0    0    0    0 -0.00000000000E+00 -0.00000000000E+00 -0.45593999997E+02  0.45594000000E+02  0.51100000000E-03 0. -1.
    9900012    2    1    2    0    0 -0.10010239257E+02  0.32766146131E+02  0.21893838461E+02  0.50528863452E+02  0.30000010950E+02 0.  0.
         12    1    1    2    0    0  0.10010239257E+02 -0.32766146131E+02 -0.21893838461E+02  0.40659136548E+02  0.00000000000E+00 0. -1.
         11    1    3    3    0    0 -0.37671986138E+01  0.14267929096E+02 -0.19530507013E+01  0.14885563254E+02  0.51100000000E-03 0. -1.
        -11    1    3    3    0    0  0.40609862458E+01  0.12194982333E+02  0.62313879092E+01  0.14284236028E+02  0.51100000000E-03 0.  1.
        -12    1    3    3    0    0 -0.10304026889E+02  0.63032347028E+01  0.17615501253E+02  0.21359064170E+02  0.00000000000E+00 0.  1.
</event>
<event>
 7    1  0.6245487E-013  0.5052887E+02  0.7816164E-02  0.1300439E+00
        -11   -1    0    0    0    0  0.00000000000E+00  0.00000000000E+00  0.45593999997E+02  0.45594000000E+02  0.51100000000E-03 0.  1.
         11   -1    0    0    0    0 -0.00000000000E+00 -0.00000000000E+00 -0.45593999997E+02  0.45594000000E+02  0.51100000000E-03 0. -1.
    9900012    2    1    2    0    0 -0.18123783632E+02 -0.25630033628E+02  0.25841730374E+02  0.50528865902E+02  0.30000018395E+02 0.  0.
         12    1    1    2    0    0  0.18123783632E+02  0.25630033628E+02 -0.25841730374E+02  0.40659134098E+02  0.00000000000E+00 0. -1.
         11    1    3    3    0    0 -0.47096072716E+01  0.36305916817E+00 -0.11115964602E+01  0.48526136838E+01  0.51100000000E-03 0. -1.
        -11    1    3    3    0    0 -0.18884678237E+02 -0.24614092288E+02  0.20932648038E+02  0.37425397332E+02  0.51100000000E-03 0.  1.
         12    1    3    3    0    0  0.54705018766E+01 -0.13790005074E+01  0.60206787961E+01  0.82508548858E+01  0.00000000000E+00 0. -1.
</event>
<event>
 7    1  0.6245487E-013  0.5052886E+02  0.7816164E-02  0.1300439E+00
        -11   -1    0    0    0    0  0.00000000000E+00  0.00000000000E+00  0.45593999997E+02  0.45594000000E+02  0.51100000000E-03 0.  1.
         11   -1    0    0    0    0 -0.00000000000E+00 -0.00000000000E+00 -0.45593999997E+02  0.45594000000E+02  0.51100000000E-03 0. -1.
    9900012    2    1    2    0    0  0.24311900638E+02 -0.65692572388E+01  0.31920867397E+02  0.50528862912E+02  0.30000009309E+02 0.  0.
         12    1    1    2    0    0 -0.24311900638E+02  0.65692572388E+01 -0.31920867397E+02  0.40659137088E+02  0.00000000000E+00 0. -1.
         11    1    3    3    0    0  0.94476836015E+01  0.94499057956E+01  0.72398831980E+01  0.15197873337E+02  0.51100000000E-03 0. -1.
        -11    1    3    3    0    0  0.14889058028E+02 -0.75941237102E+01  0.14597498519E+02  0.22191028078E+02  0.51100000000E-03 0.  1.
         12    1    3    3    0    0 -0.24840991610E-01 -0.84250393242E+01  0.10083485680E+02  0.13139961497E+02  0.00000000000E+00 0. -1.
</event>
<event>
 7    1  0.6245487E-013  0.5052885E+02  0.7816164E-02  0.1300439E+00
        -11   -1    0    0    0    0  0.00000000000E+00  0.00000000000E+00  0.45593999997E+02  0.45594000000E+02  0.51100000000E-03 0. -1.
         11   -1    0    0    0    0 -0.00000000000E+00 -0.00000000000E+00 -0.45593999997E+02  0.45594000000E+02  0.51100000000E-03 0.  1.
    9900012    2    1    2    0    0 -0.17928631879E+02 -0.19540388815E+02 -0.30820505090E+02  0.50528853795E+02  0.29999981597E+02 0.  0.
         12    1    1    2    0    0  0.17928631879E+02  0.19540388815E+02  0.30820505090E+02  0.40659146205E+02  0.00000000000E+00 0. -1.
         11    1    3    3    0    0 -0.16631458847E+01 -0.75787791409E+01 -0.83732493727E+01  0.11415570630E+02  0.51100000000E-03 0. -1.
        -11    1    3    3    0    0 -0.15160902388E+02 -0.52394794964E+01 -0.26652743311E+02  0.31107456226E+02  0.51100000000E-03 0.  1.
         12    1    3    3    0    0 -0.11045836069E+01 -0.67221301774E+01  0.42054875941E+01  0.80058269386E+01  0.00000000000E+00 0. -1.
</event>
<event>
 7    1  0.6245487E-013  0.5052887E+02  0.7816164E-02  0.1300439E+00
        -11   -1    0    0    0    0  0.00000000000E+00  0.00000000000E+00  0.45593999997E+02  0.45594000000E+02  0.51100000000E-03 0. -1.
         11   -1    0    0    0    0 -0.00000000000E+00 -0.00000000000E+00 -0.45593999997E+02  0.45594000000E+02  0.51100000000E-03 0.  1.
    9900012    2    1    2    0    0 -0.21608515809E+02 -0.18804328004E+02  0.28855398117E+02  0.50528871780E+02  0.30000036262E+02 0.  0.
         12    1    1    2    0    0  0.21608515809E+02  0.18804328004E+02 -0.28855398117E+02  0.40659128220E+02  0.00000000000E+00 0. -1.
         11    1    3    3    0    0  0.14882213130E+01 -0.11401368116E+02  0.97963587704E+01  0.15105450772E+02  0.51100000000E-03 0. -1.
        -11    1    3    3    0    0 -0.31523888254E+01  0.34097824280E+01  0.99423244072E+01  0.10973330688E+02  0.51100000000E-03 0.  1.
        -12    1    3    3    0    0 -0.19944348297E+02 -0.10812742316E+02  0.91167149393E+01  0.24450090320E+02  0.00000000000E+00 0.  1.
</event>
<event>
 7    1  0.6245487E-013  0.5052886E+02  0.7816164E-02  0.1300439E+00
        -11   -1    0    0    0    0  0.00000000000E+00  0.00000000000E+00  0.45593999997E+02  0.45594000000E+02  0.51100000000E-03 0.  1.
         11   -1    0    0    0    0 -0.00000000000E+00 -0.00000000000E+00 -0.45593999997E+02  0.45594000000E+02  0.51100000000E-03 0. -1.
    9900012    2    1    2    0    0  0.29885303783E+01 -0.12944060683E+02  0.38427664024E+02  0.50528863473E+02  0.30000011013E+02 0.  0.
         12    1    1    2    0    0 -0.29885303783E+01  0.12944060683E+02 -0.38427664024E+02  0.40659136527E+02  0.00000000000E+00 0. -1.
         11    1    3    3    0    0 -0.11802238177E+01 -0.74801704219E+01  0.14826934940E+02  0.16648840133E+02  0.51100000000E-03 0. -1.
        -11    1    3    3    0    0  0.73766317455E+01 -0.44598327259E+00  0.26316463544E+02  0.27334407817E+02  0.51100000000E-03 0.  1.
         12    1    3    3    0    0 -0.32078775495E+01 -0.50179069881E+01 -0.27157344602E+01  0.65456155228E+01  0.00000000000E+00 0. -1.
</event>
<event>
 7    1  0.6245487E-013  0.5052886E+02  0.7816164E-02  0.1300439E+00
        -11   -1    0    0    0    0  0.00000000000E+00  0.00000000000E+00  0.45593999997E+02  0.45594000000E+02  0.51100000000E-03 0.  1.
         11   -1    0    0    0    0 -0.00000000000E+00 -0.00000000000E+00 -0.45593999997E+02  0.45594000000E+02  0.51100000000E-03 0. -1.
    9900012    2    1    2    0    0  0.33297829760E+02  0.23306520025E+02  0.11074680463E+01  0.50528858004E+02  0.29999994389E+02 0.  0.
         12    1    1    2    0    0 -0.33297829760E+02 -0.23306520025E+02 -0.11074680463E+01  0.40659141996E+02  0.00000000000E+00 0. -1.
         11    1    3    3    0    0  0.27067026602E+02  0.41815672333E+01 -0.76259558872E+00  0.27398740590E+02  0.51100000000E-03 0. -1.
        -11    1    3    3    0    0  0.72658691176E+01  0.59223488530E+01 -0.14295640413E+01  0.94821265326E+01  0.51100000000E-03 0.  1.
         12    1    3    3    0    0 -0.10350659599E+01  0.13202603939E+02  0.32996276763E+01  0.13647990882E+02  0.00000000000E+00 0. -1.
</event>
<event>
 7    1  0.6245487E-013  0.5052885E+02  0.7816164E-02  0.1300439E+00
        -11   -1    0    0    0    0  0.00000000000E+00  0.00000000000E+00  0.45593999997E+02  0.45594000000E+02  0.51100000000E-03 0. -1.
         11   -1    0    0    0    0 -0.00000000000E+00 -0.00000000000E+00 -0.45593999997E+02  0.45594000000E+02  0.51100000000E-03 0.  1.
    9900012    2    1    2    0    0 -0.27703900607E+02  0.29522754227E+02 -0.37506363162E+01  0.50528850983E+02  0.29999973049E+02 0.  0.
         12    1    1    2    0    0  0.27703900607E+02 -0.29522754227E+02  0.37506363162E+01  0.40659149017E+02  0.00000000000E+00 0. -1.
         11    1    3    3    0    0 -0.20657128785E+02  0.84713749956E+01 -0.17330779505E+01  0.22393854590E+02  0.51100000000E-03 0. -1.
        -11    1    3    3    0    0  0.51550149158E-01  0.17925921601E+01  0.58764776021E+01  0.61440241975E+01  0.51100000000E-03 0.  1.
        -12    1    3    3    0    0 -0.70983219717E+01  0.19258787071E+02 -0.78940359679E+01  0.21990972196E+02  0.00000000000E+00 0.  1.
</event>
<event>
 7    1  0.6245487E-013  0.5052887E+02  0.7816164E-02  0.1300439E+00
        -11   -1    0    0    0    0  0.00000000000E+00  0.00000000000E+00  0.45593999997E+02  0.45594000000E+02  0.51100000000E-03 0.  1.
         11   -1    0    0    0    0 -0.00000000000E+00 -0.00000000000E+00 -0.45593999997E+02  0.45594000000E+02  0.51100000000E-03 0. -1.
    9900012    2    1    2    0    0  0.31874311793E+02  0.17480326227E+02  0.18210748887E+02  0.50528869017E+02  0.30000027863E+02 0.  0.
         12    1    1    2    0    0 -0.31874311793E+02 -0.17480326227E+02 -0.18210748887E+02  0.40659130983E+02  0.00000000000E+00 0. -1.
         11    1    3    3    0    0  0.91209972331E+01  0.68356305308E+01 -0.53803134181E+01  0.12604213899E+02  0.51100000000E-03 0. -1.
        -11    1    3    3    0    0  0.14146285922E+02  0.69982815138E+01  0.40977245575E+01  0.16305971186E+02  0.51100000000E-03 0.  1.
         12    1    3    3    0    0  0.86070286386E+01  0.36464141822E+01  0.19493337747E+02  0.21618683931E+02  0.00000000000E+00 0. -1.
</event>
<event>
 7    1  0.6245487E-013  0.5052886E+02  0.7816164E-02  0.1300439E+00
        -11   -1    0    0    0    0  0.00000000000E+00  0.00000000000E+00  0.45593999997E+02  0.45594000000E+02  0.51100000000E-03 0.  1.
         11   -1    0    0    0    0 -0.00000000000E+00 -0.00000000000E+00 -0.45593999997E+02  0.45594000000E+02  0.51100000000E-03 0. -1.
    9900012    2    1    2    0    0 -0.26444079905E+02  0.29164010630E+02  0.10165461632E+02  0.50528862181E+02  0.30000007084E+02 0.  0.
         12    1    1    2    0    0  0.26444079905E+02 -0.29164010630E+02 -0.10165461632E+02  0.40659137819E+02  0.00000000000E+00 0. -1.
         11    1    3    3    0    0 -0.26458314548E+01  0.84423327082E+01  0.10667311647E+02  0.13858749715E+02  0.51100000000E-03 0. -1.
        -11    1    3    3    0    0 -0.72703161049E+01  0.15164705970E+02 -0.67863801528E+01  0.18135069872E+02  0.51100000000E-03 0.  1.
        -12    1    3    3    0    0 -0.16527932345E+02  0.55569719514E+01  0.62845301379E+01  0.18535042593E+02  0.00000000000E+00 0.  1.
</event>
<event>
 7    1  0.6245487E-013  0.5052885E+02  0.7816164E-02  0.1300439E+00
        -11   -1    0    0    0    0  0.00000000000E+00  0.00000000000E+00  0.45593999997E+02  0.45594000000E+02  0.51100000000E-03 0. -1.
         11   -1    0    0    0    0 -0.00000000000E+00 -0.00000000000E+00 -0.45593999997E+02  0.45594000000E+02  0.51100000000E-03 0.  1.
    9900012    2    1    2    0    0  0.27611227147E+02  0.16355676160E+02  0.24965537604E+02  0.50528854964E+02  0.29999985149E+02 0.  0.
         12    1    1    2    0    0 -0.27611227147E+02 -0.16355676160E+02 -0.24965537604E+02  0.40659145036E+02  0.00000000000E+00 0. -1.
         11    1    3    3    0    0 -0.41523591651E+01 -0.45270166625E+00  0.24363046354E+01  0.48355564284E+01  0.51100000000E-03 0. -1.
        -11    1    3    3    0    0  0.21919383848E+02  0.38074890366E+01  0.73928641091E+01  0.23443779581E+02  0.51100000000E-03 0.  1.
         12    1    3    3    0    0  0.98442024639E+01  0.13000888789E+02  0.15136368860E+02  0.22249518955E+02  0.00000000000E+00 0. -1.
</event>
<event>
 7    1  0.6245487E-013  0.5052886E+02  0.7816164E-02  0.1300439E+00
        -11   -1    0    0    0    0  0.00000000000E+00  0.00000000000E+00  0.45593999997E+02  0.45594000000E+02  0.51100000000E-03 0.  1.
         11   -1    0    0    0    0 -0.00000000000E+00 -0.00000000000E+00 -0.45593999997E+02  0.45594000000E+02  0.51100000000E-03 0. -1.
    9900012    2    1    2    0    0  0.21544662505E+02 -0.10367763120E+02  0.32886204868E+02  0.50528862463E+02  0.30000007944E+02 0.  0.
         12    1    1    2    0    0 -0.21544662505E+02  0.10367763120E+02 -0.32886204868E+02  0.40659137537E+02  0.00000000000E+00 0. -1.
         11    1    3    3    0    0  0.12193581898E+02 -0.11581852316E+02  0.20371437742E+02  0.26416249138E+02  0.51100000000E-03 0. -1.
        -11    1    3    3    0    0  0.25415969084E+01  0.65933351971E+00  0.16157946959E+02  0.16369901824E+02  0.51100000000E-03 0.  1.
         12    1    3    3    0    0  0.68094836988E+01  0.55475567640E+00 -0.36431798325E+01  0.77427115016E+01  0.00000000000E+00 0. -1.
</event>
<event>
 7    1  0.6245487E-013  0.5052885E+02  0.7816164E-02  0.1300439E+00
        -11   -1    0    0    0    0  0.00000000000E+00  0.00000000000E+00  0.45593999997E+02  0.45594000000E+02  0.51100000000E-03 0.  1.
         11   -1    0    0    0    0 -0.00000000000E+00 -0.00000000000E+00 -0.45593999997E+02  0.45594000000E+02  0.51100000000E-03 0. -1.
    9900012    2    1    2    0    0  0.34019779024E+02  0.20912061815E+02  0.76489725757E+01  0.50528850037E+02  0.29999970174E+02 0.  0.
         12    1    1    2    0    0 -0.34019779024E+02 -0.20912061815E+02 -0.76489725757E+01  0.40659149963E+02  0.00000000000E+00 0. -1.
         11    1    3    3    0    0  0.19095574511E+02  0.17219717401E+02  0.17251351606E+01  0.25770830892E+02  0.51100000000E-03 0.  1.
        -11    1    3    3    0    0  0.56610364783E+01  0.45428767855E+01 -0.61519770604E+01  0.95148245128E+01  0.51100000000E-03 0. -1.
         12    1    3    3    0    0  0.92631680350E+01 -0.85053237170E+00  0.12075814476E+02  0.15243194633E+02  0.00000000000E+00 0. -1.
</event>
<event>
 7    1  0.6245487E-013  0.5052888E+02  0.7816164E-02  0.1300439E+00
        -11   -1    0    0    0    0  0.00000000000E+00  0.00000000000E+00  0.45593999997E+02  0.45594000000E+02  0.51100000000E-03 0. -1.
         11   -1    0    0    0    0 -0.00000000000E+00 -0.00000000000E+00 -0.45593999997E+02  0.45594000000E+02  0.51100000000E-03 0.  1.
    9900012    2    1    2    0    0 -0.13466937493E+02  0.38360054557E+02 -0.55866697753E+00  0.50528876795E+02  0.30000051505E+02 0.  0.
         12    1    1    2    0    0  0.13466937493E+02 -0.38360054557E+02  0.55866697753E+00  0.40659123205E+02  0.00000000000E+00 0. -1.
         11    1    3    3    0    0  0.26652895565E+01  0.85880556818E+01  0.25020016425E+01  0.93337281562E+01  0.51100000000E-03 0.  1.
        -11    1    3    3    0    0 -0.15796670571E+00  0.87967123403E+01 -0.10597391398E+02  0.13773590897E+02  0.51100000000E-03 0. -1.
         12    1    3    3    0    0 -0.15974260344E+02  0.20975286535E+02  0.75367227782E+01  0.27421557742E+02  0.00000000000E+00 0. -1.
</event>
<event>
 7    1  0.6245487E-013  0.5052886E+02  0.7816164E-02  0.1300439E+00
        -11   -1    0    0    0    0  0.00000000000E+00  0.00000000000E+00  0.45593999997E+02  0.45594000000E+02  0.51100000000E-03 0. -1.
         11   -1    0    0    0    0 -0.00000000000E+00 -0.00000000000E+00 -0.45593999997E+02  0.45594000000E+02  0.51100000000E-03 0.  1.
    9900012    2    1    2    0    0 -0.81502005580E+01 -0.27822536341E+02 -0.28506952234E+02  0.50528860520E+02  0.30000002036E+02 0.  0.
         12    1    1    2    0    0  0.81502005580E+01  0.27822536341E+02  0.28506952234E+02  0.40659139480E+02  0.00000000000E+00 0. -1.
         11    1    3    3    0    0  0.13884300811E+01  0.16271980048E+01  0.30956783987E+00  0.21613292081E+01  0.51100000000E-03 0. -1.
        -11    1    3    3    0    0  0.65815200065E+01 -0.16730579473E+02 -0.10311766925E+02  0.20725859029E+02  0.51100000000E-03 0.  1.
         12    1    3    3    0    0 -0.16120150646E+02 -0.12719154873E+02 -0.18504753149E+02  0.27641672283E+02  0.00000000000E+00 0. -1.
</event>
<event>
 7    1  0.6245487E-013  0.5052886E+02  0.7816164E-02  0.1300439E+00
        -11   -1    0    0    0    0  0.00000000000E+00  0.00000000000E+00  0.45593999997E+02  0.45594000000E+02  0.51100000000E-03 0.  1.
         11   -1    0    0    0    0 -0.00000000000E+00 -0.00000000000E+00 -0.45593999997E+02  0.45594000000E+02  0.51100000000E-03 0. -1.
    9900012    2    1    2    0    0  0.30778717367E+02  0.27544492226E+01  0.26424411965E+02  0.50528856121E+02  0.29999988666E+02 0.  0.
         12    1    1    2    0    0 -0.30778717367E+02 -0.27544492226E+01 -0.26424411965E+02  0.40659143879E+02  0.00000000000E+00 0. -1.
         11    1    3    3    0    0  0.24500777771E+02 -0.32022267440E+01  0.12207248610E+02  0.27560103164E+02  0.51100000000E-03 0. -1.
        -11    1    3    3    0    0  0.93358516775E+01  0.67641988870E+01  0.15697885717E+02  0.19476553324E+02  0.51100000000E-03 0.  1.
        -12    1    3    3    0    0 -0.30579120821E+01 -0.80752292035E+00 -0.14807223620E+01  0.34921996338E+01  0.00000000000E+00 0.  1.
</event>
<event>
 7    1  0.6245487E-013  0.5052885E+02  0.7816164E-02  0.1300439E+00
        -11   -1    0    0    0    0  0.00000000000E+00  0.00000000000E+00  0.45593999997E+02  0.45594000000E+02  0.51100000000E-03 0. -1.
         11   -1    0    0    0    0 -0.00000000000E+00 -0.00000000000E+00 -0.45593999997E+02  0.45594000000E+02  0.51100000000E-03 0.  1.
    9900012    2    1    2    0    0 -0.13461065582E+02 -0.43718986489E+01 -0.38116309007E+02  0.50528846090E+02  0.29999958174E+02 0.  0.
         12    1    1    2    0    0  0.13461065582E+02  0.43718986489E+01  0.38116309007E+02  0.40659153910E+02  0.00000000000E+00 0. -1.
         11    1    3    3    0    0 -0.11839404098E+01  0.10369775446E+01  0.14078722471E+01  0.21116680249E+01  0.51100000000E-03 0. -1.
        -11    1    3    3    0    0 -0.18512790779E+02 -0.41624974062E+00 -0.19663150831E+02  0.27009927566E+02  0.51100000000E-03 0.  1.
        -12    1    3    3    0    0  0.62356656062E+01 -0.49926264529E+01 -0.19861030423E+02  0.21407250499E+02  0.00000000000E+00 0.  1.
</event>
<event>
 7    1  0.6245487E-013  0.5052885E+02  0.7816164E-02  0.1300439E+00
        -11   -1    0    0    0    0  0.00000000000E+00  0.00000000000E+00  0.45593999997E+02  0.45594000000E+02  0.51100000000E-03 0.  1.
         11   -1    0    0    0    0 -0.00000000000E+00 -0.00000000000E+00 -0.45593999997E+02  0.45594000000E+02  0.51100000000E-03 0. -1.
    9900012    2    1    2    0    0 -0.20925976006E+02  0.17337273216E+02  0.30243821579E+02  0.50528852713E+02  0.29999978307E+02 0.  0.
         12    1    1    2    0    0  0.20925976006E+02 -0.17337273216E+02 -0.30243821579E+02  0.40659147287E+02  0.00000000000E+00 0. -1.
         11    1    3    3    0    0  0.20256914172E+01  0.85896024234E+01 -0.12355609038E+01  0.89113021786E+01  0.51100000000E-03 0. -1.
        -11    1    3    3    0    0 -0.18744210236E+01  0.10808244075E+01 -0.80370525727E+00  0.23081546689E+01  0.51100000000E-03 0.  1.
        -12    1    3    3    0    0 -0.21077246399E+02  0.76668463848E+01  0.32283087740E+02  0.39309395866E+02  0.00000000000E+00 0.  1.
</event>
<event>
 7    1  0.6245487E-013  0.5052886E+02  0.7816164E-02  0.1300439E+00
        -11   -1    0    0    0    0  0.00000000000E+00  0.00000000000E+00  0.45593999997E+02  0.45594000000E+02  0.51100000000E-03 0.  1.
         11   -1    0    0    0    0 -0.00000000000E+00 -0.00000000000E+00 -0.45593999997E+02  0.45594000000E+02  0.51100000000E-03 0. -1.
    9900012    2    1    2    0    0  0.14891743469E+02 -0.26139304081E+01  0.37743460778E+02  0.50528862193E+02  0.30000007121E+02 0.  0.
         12    1    1    2    0    0 -0.14891743469E+02  0.26139304081E+01 -0.37743460778E+02  0.40659137807E+02  0.00000000000E+00 0. -1.
         11    1    3    3    0    0 -0.89483607265E+00  0.50215526609E+01  0.22092367300E+02  0.22673539995E+02  0.51100000000E-03 0. -1.
        -11    1    3    3    0    0 -0.25946359831E+01 -0.30244769534E+01  0.37857701302E+01  0.54965127550E+01  0.51100000000E-03 0.  1.
         12    1    3    3    0    0  0.18381215524E+02 -0.46110061156E+01  0.11865323348E+02  0.22358809443E+02  0.00000000000E+00 0. -1.
</event>
<event>
 7    1  0.6245487E-013  0.5052888E+02  0.7816164E-02  0.1300439E+00
        -11   -1    0    0    0    0  0.00000000000E+00  0.00000000000E+00  0.45593999997E+02  0.45594000000E+02  0.51100000000E-03 0.  1.
         11   -1    0    0    0    0 -0.00000000000E+00 -0.00000000000E+00 -0.45593999997E+02  0.45594000000E+02  0.51100000000E-03 0. -1.
    9900012    2    1    2    0    0  0.24974290929E+02  0.94062376158E+00  0.32071230931E+02  0.50528882524E+02  0.30000068921E+02 0.  0.
         12    1    1    2    0    0 -0.24974290929E+02 -0.94062376158E+00 -0.32071230931E+02  0.40659117476E+02  0.00000000000E+00 0. -1.
         11    1    3    3    0    0  0.15900750286E+02 -0.53137019235E+01  0.21950775087E+02  0.27620749718E+02  0.51100000000E-03 0.  1.
        -11    1    3    3    0    0 -0.28570320960E+01 -0.38994557838E+01  0.30838231879E+01  0.57339649042E+01  0.51100000000E-03 0. -1.
        -12    1    3    3    0    0  0.11930572740E+02  0.10153781469E+02  0.70366326555E+01  0.17174167902E+02  0.00000000000E+00 0.  1.
</event>
<event>
 7    1  0.6245487E-013  0.5052886E+02  0.7816164E-02  0.1300439E+00
        -11   -1    0    0    0    0  0.00000000000E+00  0.00000000000E+00  0.45593999997E+02  0.45594000000E+02  0.51100000000E-03 0. -1.
         11   -1    0    0    0    0 -0.00000000000E+00 -0.00000000000E+00 -0.45593999997E+02  0.45594000000E+02  0.51100000000E-03 0.  1.
    9900012    2    1    2    0    0  0.16756754099E+02  0.12796502795E+02 -0.34765306839E+02  0.50528857716E+02  0.29999993512E+02 0.  0.
         12    1    1    2    0    0 -0.16756754099E+02 -0.12796502795E+02  0.34765306839E+02  0.40659142284E+02  0.00000000000E+00 0. -1.
         11    1    3    3    0    0  0.89309118695E+01  0.78867909024E+01 -0.64995802928E+01  0.13572295377E+02  0.51100000000E-03 0. -1.
        -11    1    3    3    0    0  0.43254229762E+01  0.13291075013E+02 -0.21444596724E+02  0.25597513314E+02  0.51100000000E-03 0.  1.
         12    1    3    3    0    0  0.35004192536E+01 -0.83813631203E+01 -0.68211298217E+01  0.11359049025E+02  0.00000000000E+00 0. -1.
</event>
<event>
 7    1  0.6245487E-013  0.5052886E+02  0.7816164E-02  0.1300439E+00
        -11   -1    0    0    0    0  0.00000000000E+00  0.00000000000E+00  0.45593999997E+02  0.45594000000E+02  0.51100000000E-03 0.  1.
         11   -1    0    0    0    0 -0.00000000000E+00 -0.00000000000E+00 -0.45593999997E+02  0.45594000000E+02  0.51100000000E-03 0. -1.
    9900012    2    1    2    0    0 -0.24154768951E+02  0.31740513011E+02  0.78900562021E+01  0.50528855688E+02  0.29999987350E+02 0.  0.
         12    1    1    2    0    0  0.24154768951E+02 -0.31740513011E+02 -0.78900562021E+01  0.40659144312E+02  0.00000000000E+00 0. -1.
         11    1    3    3    0    0 -0.18110766834E+02  0.20197708193E+02  0.10476796025E+02  0.29081102916E+02  0.51100000000E-03 0.  1.
        -11    1    3    3    0    0 -0.10384549631E+02  0.12549897959E+02 -0.39999897121E+01  0.16773154975E+02  0.51100000000E-03 0. -1.
         12    1    3    3    0    0  0.43405475143E+01 -0.10070931419E+01  0.14132498890E+01  0.46745977976E+01  0.00000000000E+00 0. -1.
</event>
<event>
 7    1  0.6245487E-013  0.5052887E+02  0.7816164E-02  0.1300439E+00
        -11   -1    0    0    0    0  0.00000000000E+00  0.00000000000E+00  0.45593999997E+02  0.45594000000E+02  0.51100000000E-03 0. -1.
         11   -1    0    0    0    0 -0.00000000000E+00 -0.00000000000E+00 -0.45593999997E+02  0.45594000000E+02  0.51100000000E-03 0.  1.
    9900012    2    1    2    0    0  0.72495873781E+01 -0.15326066989E+02 -0.36955654328E+02  0.50528865315E+02  0.30000016611E+02 0.  0.
         12    1    1    2    0    0 -0.72495873781E+01  0.15326066989E+02  0.36955654328E+02  0.40659134685E+02  0.00000000000E+00 0. -1.
         11    1    3    3    0    0  0.86959844248E+01 -0.86616597625E+01 -0.96987533018E+01  0.15643219324E+02  0.51100000000E-03 0. -1.
        -11    1    3    3    0    0 -0.21304138807E+01 -0.13758244575E+02 -0.13502065426E+02  0.19394167374E+02  0.51100000000E-03 0.  1.
         12    1    3    3    0    0  0.68401683392E+00  0.70938373478E+01 -0.13754835600E+02  0.15491478617E+02  0.00000000000E+00 0. -1.
</event>
<event>
 7    1  0.6245487E-013  0.5052886E+02  0.7816164E-02  0.1300439E+00
        -11   -1    0    0    0    0  0.00000000000E+00  0.00000000000E+00  0.45593999997E+02  0.45594000000E+02  0.51100000000E-03 0.  1.
         11   -1    0    0    0    0 -0.00000000000E+00 -0.00000000000E+00 -0.45593999997E+02  0.45594000000E+02  0.51100000000E-03 0. -1.
    9900012    2    1    2    0    0  0.12811947462E+02  0.34238691750E+02  0.17796958061E+02  0.50528859247E+02  0.29999998168E+02 0.  0.
         12    1    1    2    0    0 -0.12811947462E+02 -0.34238691750E+02 -0.17796958061E+02  0.40659140753E+02  0.00000000000E+00 0. -1.
         11    1    3    3    0    0  0.22292302949E+01 -0.23886829999E+00 -0.93118423193E+00  0.24276799845E+01  0.51100000000E-03 0. -1.
        -11    1    3    3    0    0  0.15202077296E+02  0.32424737009E+02  0.86728450405E+01  0.36846776868E+02  0.51100000000E-03 0.  1.
        -12    1    3    3    0    0 -0.46193601287E+01  0.20528230413E+01  0.10055297252E+02  0.11254402395E+02  0.00000000000E+00 0.  1.
</event>
<event>
 7    1  0.1373252E-012  0.5052886E+02  0.7816164E-02  0.1300439E+00
        -11   -1    0    0    0    0  0.00000000000E+00  0.00000000000E+00  0.45593999997E+02  0.45594000000E+02  0.51100000000E-03 0. -1.
         11   -1    0    0    0    0 -0.00000000000E+00 -0.00000000000E+00 -0.45593999997E+02  0.45594000000E+02  0.51100000000E-03 0.  1.
    9900012    2    1    2    0    0 -0.21331638518E+02 -0.92499985688E+01 -0.33355128675E+02  0.50528857310E+02  0.29999992278E+02 0.  0.
         12    1    1    2    0    0  0.21331638518E+02  0.92499985688E+01  0.33355128675E+02  0.40659142690E+02  0.00000000000E+00 0. -1.
         11    1    3    3    0    0 -0.16326204295E+01 -0.10854305498E+01  0.38383362547E+01  0.43100387945E+01  0.51100000000E-03 0. -1.
        -11    1    3    3    0    0 -0.92035307328E+01 -0.11578253890E+02 -0.13264427039E+02  0.19867208310E+02  0.51100000000E-03 0.  1.
        -12    1    3    3    0    0 -0.10495487356E+02  0.34136858706E+01 -0.23929037891E+02  0.26351610206E+02  0.00000000000E+00 0.  1.
</event>
<event>
 7    1  0.6603250E-013  0.5052886E+02  0.7816164E-02  0.1300439E+00
        -11   -1    0    0    0    0  0.00000000000E+00  0.00000000000E+00  0.45593999997E+02  0.45594000000E+02  0.51100000000E-03 0.  1.
         11   -1    0    0    0    0 -0.00000000000E+00 -0.00000000000E+00 -0.45593999997E+02  0.45594000000E+02  0.51100000000E-03 0. -1.
    9900012    2    1    2    0    0  0.96042551159E+01 -0.32555422006E+02  0.22384557217E+02  0.50528860558E+02  0.30000002153E+02 0.  0.
         12    1    1    2    0    0 -0.96042551159E+01  0.32555422006E+02 -0.22384557217E+02  0.40659139442E+02  0.00000000000E+00 0. -1.
         11    1    3    3    0    0  0.87454444037E+01 -0.30667719232E+00  0.16353314483E+01  0.89023119427E+01  0.51100000000E-03 0. -1.
        -11    1    3    3    0    0  0.77444692599E+01 -0.14997773084E+02  0.13772409312E+02  0.21785069660E+02  0.51100000000E-03 0.  1.
        -12    1    3    3    0    0 -0.68856585477E+01 -0.17250971730E+02  0.69768164569E+01  0.19841478955E+02  0.00000000000E+00 0.  1.
</event>
<event>
 7    1  0.6245487E-013  0.5052883E+02  0.7816164E-02  0.1300439E+00
        -11   -1    0    0    0    0  0.00000000000E+00  0.00000000000E+00  0.45593999997E+02  0.45594000000E+02  0.51100000000E-03 0. -1.
         11   -1    0    0    0    0 -0.00000000000E+00 -0.00000000000E+00 -0.45593999997E+02  0.45594000000E+02  0.51100000000E-03 0.  1.
    9900012    2    1    2    0    0 -0.22311362364E+02 -0.27164033644E+02 -0.20432478854E+02  0.50528833672E+02  0.29999920431E+02 0.  0.
         12    1    1    2    0    0  0.22311362364E+02  0.27164033644E+02  0.20432478854E+02  0.40659166328E+02  0.00000000000E+00 0. -1.
         11    1    3    3    0    0 -0.19183619085E+01 -0.19611404132E+01 -0.93260589119E+01  0.97211912450E+01  0.51100000000E-03 0.  1.
        -11    1    3    3    0    0 -0.33114268276E+01 -0.18327513186E+02 -0.12358731896E+02  0.22351768198E+02  0.51100000000E-03 0. -1.
         12    1    3    3    0    0 -0.17081573628E+02 -0.68753800449E+01  0.12523119541E+01  0.18455874230E+02  0.00000000000E+00 0. -1.
</event>
<event>
 7    1  0.6245487E-013  0.5052886E+02  0.7816164E-02  0.1300439E+00
        -11   -1    0    0    0    0  0.00000000000E+00  0.00000000000E+00  0.45593999997E+02  0.45594000000E+02  0.51100000000E-03 0.  1.
         11   -1    0    0    0    0 -0.00000000000E+00 -0.00000000000E+00 -0.45593999997E+02  0.45594000000E+02  0.51100000000E-03 0. -1.
    9900012    2    1    2    0    0 -0.14492914189E+01 -0.38666676159E+02  0.12488114775E+02  0.50528864477E+02  0.30000014065E+02 0.  0.
         12    1    1    2    0    0  0.14492914189E+01  0.38666676159E+02 -0.12488114775E+02  0.40659135523E+02  0.00000000000E+00 0. -1.
         11    1    3    3    0    0 -0.22253404878E+00  0.11521968507E+01  0.10098425596E+02  0.10166379826E+02  0.51100000000E-03 0. -1.
        -11    1    3    3    0    0 -0.22658486213E+01 -0.54085495432E+01  0.21813167592E+00  0.58680541771E+01  0.51100000000E-03 0.  1.
         12    1    3    3    0    0  0.10390912512E+01 -0.34410323467E+02  0.21715575030E+01  0.34494430474E+02  0.00000000000E+00 0. -1.
</event>
<event>
 7    1  0.6245487E-013  0.5052886E+02  0.7816164E-02  0.1300439E+00
        -11   -1    0    0    0    0  0.00000000000E+00  0.00000000000E+00  0.45593999997E+02  0.45594000000E+02  0.51100000000E-03 0.  1.
         11   -1    0    0    0    0 -0.00000000000E+00 -0.00000000000E+00 -0.45593999997E+02  0.45594000000E+02  0.51100000000E-03 0. -1.
    9900012    2    1    2    0    0  0.20796335280E+02  0.11450328230E+02  0.33008607266E+02  0.50528859191E+02  0.29999997998E+02 0.  0.
         12    1    1    2    0    0 -0.20796335280E+02 -0.11450328230E+02 -0.33008607266E+02  0.40659140809E+02  0.00000000000E+00 0. -1.
         11    1    3    3    0    0  0.14506665719E+02  0.14002357980E+02  0.15197231921E+02  0.25248073938E+02  0.51100000000E-03 0.  1.
        -11    1    3    3    0    0  0.45362668651E+00  0.34124833468E+01 -0.18598441101E+01  0.39127790811E+01  0.51100000000E-03 0. -1.
         12    1    3    3    0    0  0.58360428740E+01 -0.59645130960E+01  0.19671219455E+02  0.21368006172E+02  0.00000000000E+00 0. -1.
</event>
<event>
 7    1  0.6245487E-013  0.5052886E+02  0.7816164E-02  0.1300439E+00
        -11   -1    0    0    0    0  0.00000000000E+00  0.00000000000E+00  0.45593999997E+02  0.45594000000E+02  0.51100000000E-03 0.  1.
         11   -1    0    0    0    0 -0.00000000000E+00 -0.00000000000E+00 -0.45593999997E+02  0.45594000000E+02  0.51100000000E-03 0. -1.
    9900012    2    1    2    0    0 -0.24250199828E+02 -0.18169196532E+02  0.27110399382E+02  0.50528860204E+02  0.30000001077E+02 0.  0.
         12    1    1    2    0    0  0.24250199828E+02  0.18169196532E+02 -0.27110399382E+02  0.40659139796E+02  0.00000000000E+00 0. -1.
         11    1    3    3    0    0 -0.49691752410E+01  0.14225960213E+01 -0.65153266464E+00  0.52097002879E+01  0.51100000000E-03 0. -1.
        -11    1    3    3    0    0  0.49960267382E+01 -0.41980487570E+01  0.23034556384E+01  0.69202459981E+01  0.51100000000E-03 0.  1.
        -12    1    3    3    0    0 -0.24277051325E+02 -0.15393743796E+02  0.25458476408E+02  0.38398913918E+02  0.00000000000E+00 0.  1.
</event>
<event>
 7    1  0.6245487E-013  0.5052887E+02  0.7816164E-02  0.1300439E+00
        -11   -1    0    0    0    0  0.00000000000E+00  0.00000000000E+00  0.45593999997E+02  0.45594000000E+02  0.51100000000E-03 0.  1.
         11   -1    0    0    0    0 -0.00000000000E+00 -0.00000000000E+00 -0.45593999997E+02  0.45594000000E+02  0.51100000000E-03 0. -1.
    9900012    2    1    2    0    0  0.17922746995E+02  0.34938802284E+02  0.10546108577E+02  0.50528866082E+02  0.30000018941E+02 0.  0.
         12    1    1    2    0    0 -0.17922746995E+02 -0.34938802284E+02 -0.10546108577E+02  0.40659133918E+02  0.00000000000E+00 0. -1.
         11    1    3    3    0    0  0.10316346249E+02  0.11683857828E+02  0.40215400008E+01  0.16096966109E+02  0.51100000000E-03 0. -1.
        -11    1    3    3    0    0  0.98810355521E+01  0.26275122496E+02  0.94840345856E+01  0.29630454570E+02  0.51100000000E-03 0.  1.
        -12    1    3    3    0    0 -0.22746348067E+01 -0.30201780395E+01 -0.29594660091E+01  0.48014454025E+01  0.00000000000E+00 0.  1.
</event>
<event>
 7    1  0.6245487E-013  0.5052887E+02  0.7816164E-02  0.1300439E+00
        -11   -1    0    0    0    0  0.00000000000E+00  0.00000000000E+00  0.45593999997E+02  0.45594000000E+02  0.51100000000E-03 0. -1.
         11   -1    0    0    0    0 -0.00000000000E+00 -0.00000000000E+00 -0.45593999997E+02  0.45594000000E+02  0.51100000000E-03 0.  1.
    9900012    2    1    2    0    0  0.35416932157E+02  0.19732507046E+02 -0.30714153455E+01  0.50528874210E+02  0.30000043649E+02 0.  0.
         12    1    1    2    0    0 -0.35416932157E+02 -0.19732507046E+02  0.30714153455E+01  0.40659125790E+02  0.00000000000E+00 0. -1.
         11    1    3    3    0    0  0.18806032966E+02  0.40868314137E+01  0.23487784249E+01  0.19387775202E+02  0.51100000000E-03 0. -1.
        -11    1    3    3    0    0  0.52945943392E+01  0.64633637940E+00 -0.10413093208E+02  0.11699700439E+02  0.51100000000E-03 0.  1.
         12    1    3    3    0    0  0.11316304852E+02  0.14999339253E+02  0.49928994381E+01  0.19441398569E+02  0.00000000000E+00 0. -1.
</event>
<event>
 7    1  0.6245487E-013  0.5052887E+02  0.7816164E-02  0.1300439E+00
        -11   -1    0    0    0    0  0.00000000000E+00  0.00000000000E+00  0.45593999997E+02  0.45594000000E+02  0.51100000000E-03 0. -1.
         11   -1    0    0    0    0 -0.00000000000E+00 -0.00000000000E+00 -0.45593999997E+02  0.45594000000E+02  0.51100000000E-03 0.  1.
    9900012    2    1    2    0    0  0.38857459859E+02  0.11820221936E+02 -0.18829019434E+01  0.50528866302E+02  0.30000019612E+02 0.  0.
         12    1    1    2    0    0 -0.38857459859E+02 -0.11820221936E+02  0.18829019434E+01  0.40659133698E+02  0.00000000000E+00 0. -1.
         11    1    3    3    0    0  0.17539318953E+02  0.44551274814E+01  0.84619303626E+01  0.19976990162E+02  0.51100000000E-03 0. -1.
        -11    1    3    3    0    0  0.12192790622E+02 -0.51603076856E+01 -0.43577129571E+01  0.13938528654E+02  0.51100000000E-03 0.  1.
        -12    1    3    3    0    0  0.91253502843E+01  0.12525402140E+02 -0.59871193490E+01  0.16613347486E+02  0.00000000000E+00 0.  1.
</event>
<event>
 7    1  0.6245487E-013  0.5052886E+02  0.7816164E-02  0.1300439E+00
        -11   -1    0    0    0    0  0.00000000000E+00  0.00000000000E+00  0.45593999997E+02  0.45594000000E+02  0.51100000000E-03 0.  1.
         11   -1    0    0    0    0 -0.00000000000E+00 -0.00000000000E+00 -0.45593999997E+02  0.45594000000E+02  0.51100000000E-03 0. -1.
    9900012    2    1    2    0    0 -0.34239709626E+02  0.14735589350E+02  0.16237933961E+02  0.50528858247E+02  0.29999995127E+02 0.  0.
         12    1    1    2    0    0  0.34239709626E+02 -0.14735589350E+02 -0.16237933961E+02  0.40659141753E+02  0.00000000000E+00 0. -1.
         11    1    3    3    0    0  0.14509850600E+01  0.15176880262E+00 -0.30351398219E+01  0.33675607513E+01  0.51100000000E-03 0. -1.
        -11    1    3    3    0    0 -0.13713852735E+02  0.89767126336E+01 -0.14293732026E+01  0.16452788049E+02  0.51100000000E-03 0.  1.
         12    1    3    3    0    0 -0.21976841951E+02  0.56071079139E+01  0.20702446986E+02  0.30708509447E+02  0.00000000000E+00 0. -1.
</event>
<event>
 7    1  0.6245487E-013  0.5052886E+02  0.7816164E-02  0.1300439E+00
        -11   -1    0    0    0    0  0.00000000000E+00  0.00000000000E+00  0.45593999997E+02  0.45594000000E+02  0.51100000000E-03 0. -1.
         11   -1    0    0    0    0 -0.00000000000E+00 -0.00000000000E+00 -0.45593999997E+02  0.45594000000E+02  0.51100000000E-03 0.  1.
    9900012    2    1    2    0    0 -0.31732867478E+02  0.19120494156E+02  0.16751041750E+02  0.50528861116E+02  0.30000003847E+02 0.  0.
         12    1    1    2    0    0  0.31732867478E+02 -0.19120494156E+02 -0.16751041750E+02  0.40659138884E+02  0.00000000000E+00 0. -1.
         11    1    3    3    0    0 -0.42753465992E+01  0.80460928574E+01  0.14251090435E+02  0.16914838978E+02  0.51100000000E-03 0. -1.
        -11    1    3    3    0    0 -0.21338610979E+02  0.14355859602E+02  0.50647441066E+01  0.26212185269E+02  0.51100000000E-03 0.  1.
         12    1    3    3    0    0 -0.61189098995E+01 -0.32814583040E+01 -0.25647927921E+01  0.74018368684E+01  0.00000000000E+00 0. -1.
</event>
<event>
 7    1  0.6245487E-013  0.5052886E+02  0.7816164E-02  0.1300439E+00
        -11   -1    0    0    0    0  0.00000000000E+00  0.00000000000E+00  0.45593999997E+02  0.45594000000E+02  0.51100000000E-03 0.  1.
         11   -1    0    0    0    0 -0.00000000000E+00 -0.00000000000E+00 -0.45593999997E+02  0.45594000000E+02  0.51100000000E-03 0. -1.
    9900012    2    1    2    0    0  0.15703154487E+02  0.18481234058E+02  0.32634651869E+02  0.50528861104E+02  0.30000003811E+02 0.  0.
         12    1    1    2    0    0 -0.15703154487E+02 -0.18481234058E+02 -0.32634651869E+02  0.40659138896E+02  0.00000000000E+00 0. -1.
         11    1    3    3    0    0  0.18695497765E+02  0.92280958371E+01  0.19465659075E+02  0.28523521398E+02  0.51100000000E-03 0. -1.
        -11    1    3    3    0    0  0.18587171232E+01  0.17693976406E+01 -0.27480858010E+01  0.37599964342E+01  0.51100000000E-03 0.  1.
        -12    1    3    3    0    0 -0.48510604012E+01  0.74837405802E+01  0.15917078595E+02  0.18245343272E+02  0.00000000000E+00 0.  1.
</event>
<event>
 7    1  0.6245487E-013  0.5052886E+02  0.7816164E-02  0.1300439E+00
        -11   -1    0    0    0    0  0.00000000000E+00  0.00000000000E+00  0.45593999997E+02  0.45594000000E+02  0.51100000000E-03 0. -1.
         11   -1    0    0    0    0 -0.00000000000E+00 -0.00000000000E+00 -0.45593999997E+02  0.45594000000E+02  0.51100000000E-03 0.  1.
    9900012    2    1    2    0    0 -0.18278095429E+02  0.35138203390E+02  0.91860350810E+01  0.50528863874E+02  0.30000012232E+02 0.  0.
         12    1    1    2    0    0  0.18278095429E+02 -0.35138203390E+02 -0.91860350810E+01  0.40659136126E+02  0.00000000000E+00 0. -1.
         11    1    3    3    0    0  0.14900037023E+00  0.92768305850E+01 -0.68230589916E+00  0.93030816622E+01  0.51100000000E-03 0. -1.
        -11    1    3    3    0    0 -0.18779757265E+02  0.20399740006E+02  0.16779833629E+02  0.32409743784E+02  0.51100000000E-03 0.  1.
         12    1    3    3    0    0  0.35266146578E+00  0.54616327988E+01 -0.69114926485E+01  0.88160384283E+01  0.00000000000E+00 0. -1.
</event>
<event>
 7    1  0.6245487E-013  0.5052886E+02  0.7816164E-02  0.1300439E+00
        -11   -1    0    0    0    0  0.00000000000E+00  0.00000000000E+00  0.45593999997E+02  0.45594000000E+02  0.51100000000E-03 0.  1.
         11   -1    0    0    0    0 -0.00000000000E+00 -0.00000000000E+00 -0.45593999997E+02  0.45594000000E+02  0.51100000000E-03 0. -1.
    9900012    2    1    2    0    0 -0.29468764710E+02  0.19136579991E+02  0.20458470837E+02  0.50528858146E+02  0.29999994822E+02 0.  0.
         12    1    1    2    0    0  0.29468764710E+02 -0.19136579991E+02 -0.20458470837E+02  0.40659141854E+02  0.00000000000E+00 0. -1.
         11    1    3    3    0    0 -0.17606895928E+02  0.35722637476E+01  0.14281993170E+02  0.22950799151E+02  0.51100000000E-03 0. -1.
        -11    1    3    3    0    0 -0.11787713769E+02  0.16043057664E+02  0.10990112955E+02  0.22740107259E+02  0.51100000000E-03 0.  1.
         12    1    3    3    0    0 -0.74155012740E-01 -0.47874142052E+00 -0.48136352885E+01  0.48379517364E+01  0.00000000000E+00 0. -1.
</event>
<event>
 7    1  0.6245487E-013  0.5052886E+02  0.7816164E-02  0.1300439E+00
        -11   -1    0    0    0    0  0.00000000000E+00  0.00000000000E+00  0.45593999997E+02  0.45594000000E+02  0.51100000000E-03 0. -1.
         11   -1    0    0    0    0 -0.00000000000E+00 -0.00000000000E+00 -0.45593999997E+02  0.45594000000E+02  0.51100000000E-03 0.  1.
    9900012    2    1    2    0    0 -0.21941098243E+02 -0.31591190938E+02 -0.13181439828E+02  0.50528862123E+02  0.30000006909E+02 0.  0.
         12    1    1    2    0    0  0.21941098243E+02  0.31591190938E+02  0.13181439828E+02  0.40659137877E+02  0.00000000000E+00 0. -1.
         11    1    3    3    0    0  0.20584168415E-02 -0.11255915701E+02 -0.71114380073E+01  0.13314210202E+02  0.51100000000E-03 0. -1.
        -11    1    3    3    0    0 -0.16184417647E+02 -0.22448362470E+02 -0.10551786218E+02  0.29617639082E+02  0.51100000000E-03 0.  1.
         12    1    3    3    0    0 -0.57587390133E+01  0.21130872339E+01  0.44817843977E+01  0.75970128385E+01  0.00000000000E+00 0. -1.
</event>
<event>
 7    1  0.6245487E-013  0.5052895E+02  0.7816164E-02  0.1300438E+00
        -11   -1    0    0    0    0  0.00000000000E+00  0.00000000000E+00  0.45593999997E+02  0.45594000000E+02  0.51100000000E-03 0. -1.
         11   -1    0    0    0    0 -0.00000000000E+00 -0.00000000000E+00 -0.45593999997E+02  0.45594000000E+02  0.51100000000E-03 0.  1.
    9900012    2    1    2    0    0  0.17774781629E+02  0.36483628158E+02  0.24820061490E+01  0.50528950084E+02  0.30000274275E+02 0.  0.
         12    1    1    2    0    0 -0.17774781629E+02 -0.36483628158E+02 -0.24820061490E+01  0.40659049916E+02  0.00000000000E+00 0. -1.
         11    1    3    3    0    0 -0.49209888106E+00  0.84201427140E+01  0.92345384503E+01  0.12506704813E+02  0.51100000000E-03 0. -1.
        -11    1    3    3    0    0  0.18432534665E+02  0.20544797454E+02  0.45537674635E+00  0.27605332906E+02  0.51100000000E-03 0.  1.
        -12    1    3    3    0    0 -0.16565415464E+00  0.75186879900E+01 -0.72079090477E+01  0.10416912366E+02  0.00000000000E+00 0.  1.
</event>
<event>
 7    1  0.6245487E-013  0.5052883E+02  0.7816164E-02  0.1300439E+00
        -11   -1    0    0    0    0  0.00000000000E+00  0.00000000000E+00  0.45593999997E+02  0.45594000000E+02  0.51100000000E-03 0.  1.
         11   -1    0    0    0    0 -0.00000000000E+00 -0.00000000000E+00 -0.45593999997E+02  0.45594000000E+02  0.51100000000E-03 0. -1.
    9900012    2    1    2    0    0  0.12183380356E+02 -0.35200587586E+02  0.16298828319E+02  0.50528832179E+02  0.29999915892E+02 0.  0.
         12    1    1    2    0    0 -0.12183380356E+02  0.35200587586E+02 -0.16298828319E+02  0.40659167821E+02  0.00000000000E+00 0. -1.
         11    1    3    3    0    0  0.57020078339E+01 -0.24192923047E+01 -0.35078677946E+01  0.71183569255E+01  0.51100000000E-03 0. -1.
        -11    1    3    3    0    0  0.11423398252E+02 -0.19411483435E+02  0.18406732030E+02  0.29087927067E+02  0.51100000000E-03 0.  1.
         12    1    3    3    0    0 -0.49420257301E+01 -0.13369811847E+02  0.13999640837E+01  0.14322548187E+02  0.00000000000E+00 0. -1.
</event>
<event>
 7    1  0.6245487E-013  0.5052890E+02  0.7816164E-02  0.1300439E+00
        -11   -1    0    0    0    0  0.00000000000E+00  0.00000000000E+00  0.45593999997E+02  0.45594000000E+02  0.51100000000E-03 0.  1.
         11   -1    0    0    0    0 -0.00000000000E+00 -0.00000000000E+00 -0.45593999997E+02  0.45594000000E+02  0.51100000000E-03 0. -1.
    9900012    2    1    2    0    0  0.38470700041E+02 -0.83214129562E+01  0.10194218466E+02  0.50528895664E+02  0.30000108862E+02 0.  0.
         12    1    1    2    0    0 -0.38470700041E+02  0.83214129562E+01 -0.10194218466E+02  0.40659104336E+02  0.00000000000E+00 0. -1.
         11    1    3    3    0    0  0.25602324902E+01 -0.59616125812E+01 -0.22313097365E+01  0.68610755989E+01  0.51100000000E-03 0. -1.
        -11    1    3    3    0    0  0.22647336313E+02 -0.24900144262E+00 -0.34101928716E+01  0.22904000949E+02  0.51100000000E-03 0.  1.
         12    1    3    3    0    0  0.13263131238E+02 -0.21107989324E+01  0.15835721074E+02  0.20763819116E+02  0.00000000000E+00 0. -1.
</event>
<event>
 7    1  0.6245487E-013  0.5052885E+02  0.7816164E-02  0.1300439E+00
        -11   -1    0    0    0    0  0.00000000000E+00  0.00000000000E+00  0.45593999997E+02  0.45594000000E+02  0.51100000000E-03 0.  1.
         11   -1    0    0    0    0 -0.00000000000E+00 -0.00000000000E+00 -0.45593999997E+02  0.45594000000E+02  0.51100000000E-03 0. -1.
    9900012    2    1    2    0    0 -0.11365041367E+02  0.38634680721E+02 -0.56003669731E+01  0.50528845681E+02  0.29999956933E+02 0.  0.
         12    1    1    2    0    0  0.11365041367E+02 -0.38634680721E+02  0.56003669731E+01  0.40659154319E+02  0.00000000000E+00 0. -1.
         11    1    3    3    0    0  0.33805440700E+00  0.96663617564E+01 -0.65227987769E+01  0.11666179089E+02  0.51100000000E-03 0. -1.
        -11    1    3    3    0    0 -0.96154952933E+01  0.32967033094E+02  0.77798387517E+00  0.34349501887E+02  0.51100000000E-03 0.  1.
         12    1    3    3    0    0 -0.20876004806E+01 -0.39987141291E+01  0.14444792862E+00  0.45131647053E+01  0.00000000000E+00 0. -1.
</event>
<event>
 7    1  0.6245487E-013  0.5052890E+02  0.7816164E-02  0.1300439E+00
        -11   -1    0    0    0    0  0.00000000000E+00  0.00000000000E+00  0.45593999997E+02  0.45594000000E+02  0.51100000000E-03 0. -1.
         11   -1    0    0    0    0 -0.00000000000E+00 -0.00000000000E+00 -0.45593999997E+02  0.45594000000E+02  0.51100000000E-03 0.  1.
    9900012    2    1    2    0    0  0.35956948623E+02  0.18877591771E+02  0.19739790259E+01  0.50528902389E+02  0.30000129302E+02 0.  0.
         12    1    1    2    0    0 -0.35956948623E+02 -0.18877591771E+02 -0.19739790259E+01  0.40659097611E+02  0.00000000000E+00 0. -1.
         11    1    3    3    0    0 -0.21408038004E+01 -0.21772076155E+01 -0.37129927326E+01  0.48072434103E+01  0.51100000000E-03 0. -1.
        -11    1    3    3    0    0  0.60719415295E+01  0.56916090941E+01 -0.35066388481E+01  0.90310245427E+01  0.51100000000E-03 0.  1.
        -12    1    3    3    0    0  0.32025810894E+02  0.15363190292E+02  0.91936106065E+01  0.36690634436E+02  0.00000000000E+00 0.  1.
</event>
<event>
 7    1  0.6245487E-013  0.5052887E+02  0.7816164E-02  0.1300439E+00
        -11   -1    0    0    0    0  0.00000000000E+00  0.00000000000E+00  0.45593999997E+02  0.45594000000E+02  0.51100000000E-03 0.  1.
         11   -1    0    0    0    0 -0.00000000000E+00 -0.00000000000E+00 -0.45593999997E+02  0.45594000000E+02  0.51100000000E-03 0. -1.
    9900012    2    1    2    0    0 -0.34795138887E+02  0.19808604500E+01  0.20941330957E+02  0.50528870145E+02  0.30000031294E+02 0.  0.
         12    1    1    2    0    0  0.34795138887E+02 -0.19808604500E+01 -0.20941330957E+02  0.40659129855E+02  0.00000000000E+00 0. -1.
         11    1    3    3    0    0 -0.21704419686E+02 -0.84444970483E+01  0.12439057157E+02  0.26403058678E+02  0.51100000000E-03 0. -1.
        -11    1    3    3    0    0 -0.13166952608E+01 -0.28937861774E+01 -0.17245868605E+01  0.36168888497E+01  0.51100000000E-03 0.  1.
        -12    1    3    3    0    0 -0.11774023940E+02  0.13319143676E+02  0.10226860660E+02  0.20508922618E+02  0.00000000000E+00 0.  1.
</event>
<event>
 7    1  0.6245487E-013  0.5052885E+02  0.7816164E-02  0.1300439E+00
        -11   -1    0    0    0    0  0.00000000000E+00  0.00000000000E+00  0.45593999997E+02  0.45594000000E+02  0.51100000000E-03 0.  1.
         11   -1    0    0    0    0 -0.00000000000E+00 -0.00000000000E+00 -0.45593999997E+02  0.45594000000E+02  0.51100000000E-03 0. -1.
    9900012    2    1    2    0    0  0.15892949982E+02  0.37221418009E+02 -0.38918769131E+01  0.50528849448E+02  0.29999968382E+02 0.  0.
         12    1    1    2    0    0 -0.15892949982E+02 -0.37221418009E+02  0.38918769131E+01  0.40659150552E+02  0.00000000000E+00 0. -1.
         11    1    3    3    0    0 -0.11012918087E+01 -0.59096343795E+00 -0.60418063394E+01  0.61697249158E+01  0.51100000000E-03 0. -1.
        -11    1    3    3    0    0 -0.12165375881E+01  0.53670143990E+01  0.44561031981E+01  0.70810778301E+01  0.51100000000E-03 0.  1.
        -12    1    3    3    0    0  0.18210779379E+02  0.32445367048E+02 -0.23061737718E+01  0.37278046702E+02  0.00000000000E+00 0.  1.
</event>
<event>
 7    1  0.6245487E-013  0.5052886E+02  0.7816164E-02  0.1300439E+00
        -11   -1    0    0    0    0  0.00000000000E+00  0.00000000000E+00  0.45593999997E+02  0.45594000000E+02  0.51100000000E-03 0.  1.
         11   -1    0    0    0    0 -0.00000000000E+00 -0.00000000000E+00 -0.45593999997E+02  0.45594000000E+02  0.51100000000E-03 0. -1.
    9900012    2    1    2    0    0  0.21776399753E+02 -0.13832506038E+02  0.31426357449E+02  0.50528858937E+02  0.29999997224E+02 0.  0.
         12    1    1    2    0    0 -0.21776399753E+02  0.13832506038E+02 -0.31426357449E+02  0.40659141063E+02  0.00000000000E+00 0. -1.
         11    1    3    3    0    0 -0.48586112810E+01  0.20171881856E+01  0.66174071963E+01  0.84537110206E+01  0.51100000000E-03 0. -1.
        -11    1    3    3    0    0  0.16867785477E+02 -0.83940249420E+01  0.63146789737E+01  0.19871009346E+02  0.51100000000E-03 0.  1.
         12    1    3    3    0    0  0.97672255569E+01 -0.74556692815E+01  0.18494271279E+02  0.22204138570E+02  0.00000000000E+00 0. -1.
</event>
<event>
 7    1  0.6245487E-013  0.5052885E+02  0.7816164E-02  0.1300439E+00
        -11   -1    0    0    0    0  0.00000000000E+00  0.00000000000E+00  0.45593999997E+02  0.45594000000E+02  0.51100000000E-03 0.  1.
         11   -1    0    0    0    0 -0.00000000000E+00 -0.00000000000E+00 -0.45593999997E+02  0.45594000000E+02  0.51100000000E-03 0. -1.
    9900012    2    1    2    0    0 -0.22170893938E+02 -0.18777183847E+02  0.28443539278E+02  0.50528854683E+02  0.29999984294E+02 0.  0.
         12    1    1    2    0    0  0.22170893938E+02  0.18777183847E+02 -0.28443539278E+02  0.40659145317E+02  0.00000000000E+00 0. -1.
         11    1    3    3    0    0 -0.13696120140E+02 -0.13727958891E+01  0.22991107818E+01  0.13955435718E+02  0.51100000000E-03 0. -1.
        -11    1    3    3    0    0 -0.11998078168E+02 -0.18172689396E+02  0.20712205929E+02  0.30053219367E+02  0.51100000000E-03 0.  1.
         12    1    3    3    0    0  0.35233043695E+01  0.76830143742E+00  0.54322225667E+01  0.65201995976E+01  0.00000000000E+00 0. -1.
</event>
<event>
 7    1  0.6245487E-013  0.5052886E+02  0.7816164E-02  0.1300439E+00
        -11   -1    0    0    0    0  0.00000000000E+00  0.00000000000E+00  0.45593999997E+02  0.45594000000E+02  0.51100000000E-03 0. -1.
         11   -1    0    0    0    0 -0.00000000000E+00 -0.00000000000E+00 -0.45593999997E+02  0.45594000000E+02  0.51100000000E-03 0.  1.
    9900012    2    1    2    0    0 -0.28468665999E+02 -0.28210211755E+02  0.68472626289E+01  0.50528855929E+02  0.29999988083E+02 0.  0.
         12    1    1    2    0    0  0.28468665999E+02  0.28210211755E+02 -0.68472626289E+01  0.40659144071E+02  0.00000000000E+00 0. -1.
         11    1    3    3    0    0 -0.50251785867E+00  0.51982272687E+00  0.36716057142E+01  0.37421155310E+01  0.51100000000E-03 0. -1.
        -11    1    3    3    0    0 -0.27778603710E+02 -0.14413712721E+02 -0.24778856510E+01  0.31393404658E+02  0.51100000000E-03 0.  1.
         12    1    3    3    0    0 -0.18754443092E+00 -0.14316321760E+02  0.56535425656E+01  0.15393335740E+02  0.00000000000E+00 0. -1.
</event>
<event>
 7    1  0.6245487E-013  0.5052887E+02  0.7816164E-02  0.1300439E+00
        -11   -1    0    0    0    0  0.00000000000E+00  0.00000000000E+00  0.45593999997E+02  0.45594000000E+02  0.51100000000E-03 0.  1.
         11   -1    0    0    0    0 -0.00000000000E+00 -0.00000000000E+00 -0.45593999997E+02  0.45594000000E+02  0.51100000000E-03 0. -1.
    9900012    2    1    2    0    0 -0.21748476721E+02  0.12723077477E+02  0.31910692252E+02  0.50528865477E+02  0.30000017104E+02 0.  0.
         12    1    1    2    0    0  0.21748476721E+02 -0.12723077477E+02 -0.31910692252E+02  0.40659134523E+02  0.00000000000E+00 0. -1.
         11    1    3    3    0    0 -0.18483008411E+01  0.47991312677E+01  0.22883646971E+02  0.23454406322E+02  0.51100000000E-03 0. -1.
        -11    1    3    3    0    0 -0.81562358378E+01  0.71957032343E+01  0.10618903074E+02  0.15200770732E+02  0.51100000000E-03 0.  1.
         12    1    3    3    0    0 -0.11743940042E+02  0.72824297541E+00 -0.15918577943E+01  0.11873688424E+02  0.00000000000E+00 0. -1.
</event>
<event>
 7    1  0.6245487E-013  0.5052883E+02  0.7816164E-02  0.1300439E+00
        -11   -1    0    0    0    0  0.00000000000E+00  0.00000000000E+00  0.45593999997E+02  0.45594000000E+02  0.51100000000E-03 0.  1.
         11   -1    0    0    0    0 -0.00000000000E+00 -0.00000000000E+00 -0.45593999997E+02  0.45594000000E+02  0.51100000000E-03 0. -1.
    9900012    2    1    2    0    0  0.18644776413E+02 -0.31672599280E+02  0.17389280377E+02  0.50528827546E+02  0.29999901808E+02 0.  0.
         12    1    1    2    0    0 -0.18644776413E+02  0.31672599280E+02 -0.17389280377E+02  0.40659172454E+02  0.00000000000E+00 0. -1.
         11    1    3    3    0    0  0.12316032995E+02 -0.20251010098E+02  0.11016856113E+02  0.26137314276E+02  0.51100000000E-03 0. -1.
        -11    1    3    3    0    0  0.87221087183E+01 -0.12206722566E+02 -0.24635186514E+01  0.15203558159E+02  0.51100000000E-03 0.  1.
         12    1    3    3    0    0 -0.23933652998E+01  0.78513338432E+00  0.88359429157E+01  0.91879551098E+01  0.00000000000E+00 0. -1.
</event>
<event>
 7    1  0.6245487E-013  0.5052887E+02  0.7816164E-02  0.1300439E+00
        -11   -1    0    0    0    0  0.00000000000E+00  0.00000000000E+00  0.45593999997E+02  0.45594000000E+02  0.51100000000E-03 0. -1.
         11   -1    0    0    0    0 -0.00000000000E+00 -0.00000000000E+00 -0.45593999997E+02  0.45594000000E+02  0.51100000000E-03 0.  1.
    9900012    2    1    2    0    0  0.27761202793E+02 -0.27191621473E+02 -0.11962297619E+02  0.50528865440E+02  0.30000016991E+02 0.  0.
         12    1    1    2    0    0 -0.27761202793E+02  0.27191621473E+02  0.11962297619E+02  0.40659134560E+02  0.00000000000E+00 0. -1.
         11    1    3    3    0    0  0.85593253146E+01  0.16195560310E+01 -0.56226711733E+01  0.10368193814E+02  0.51100000000E-03 0. -1.
        -11    1    3    3    0    0  0.39661421256E+01 -0.53290265530E+01  0.65631245711E+01  0.93382767019E+01  0.51100000000E-03 0.  1.
         12    1    3    3    0    0  0.15235735353E+02 -0.23482150951E+02 -0.12902751017E+02  0.30822394924E+02  0.00000000000E+00 0. -1.
</event>
<event>
 7    1  0.6245487E-013  0.5052883E+02  0.7816164E-02  0.1300439E+00
        -11   -1    0    0    0    0  0.00000000000E+00  0.00000000000E+00  0.45593999997E+02  0.45594000000E+02  0.51100000000E-03 0.  1.
         11   -1    0    0    0    0 -0.00000000000E+00 -0.00000000000E+00 -0.45593999997E+02  0.45594000000E+02  0.51100000000E-03 0. -1.
    9900012    2    1    2    0    0 -0.33364342720E+01  0.20339630940E+02  0.35047622456E+02  0.50528828584E+02  0.29999904962E+02 0.  0.
         12    1    1    2    0    0  0.33364342720E+01 -0.20339630940E+02 -0.35047622456E+02  0.40659171416E+02  0.00000000000E+00 0. -1.
         11    1    3    3    0    0 -0.13827677745E+01  0.14500714560E+02  0.23533906069E+02  0.27677201892E+02  0.51100000000E-03 0. -1.
        -11    1    3    3    0    0 -0.33972168951E+01 -0.34448406060E+01  0.12500990179E+02  0.13404580006E+02  0.51100000000E-03 0.  1.
         12    1    3    3    0    0  0.14435503976E+01  0.92837569861E+01 -0.98727379142E+00  0.94470466849E+01  0.00000000000E+00 0. -1.
</event>
<event>
 7    1  0.6245487E-013  0.5052886E+02  0.7816164E-02  0.1300439E+00
        -11   -1    0    0    0    0  0.00000000000E+00  0.00000000000E+00  0.45593999997E+02  0.45594000000E+02  0.51100000000E-03 0.  1.
         11   -1    0    0    0    0 -0.00000000000E+00 -0.00000000000E+00 -0.45593999997E+02  0.45594000000E+02  0.51100000000E-03 0. -1.
    9900012    2    1    2    0    0  0.11847157804E+02  0.21879291674E+02  0.32157540665E+02  0.50528856209E+02  0.29999988934E+02 0.  0.
         12    1    1    2    0    0 -0.11847157804E+02 -0.21879291674E+02 -0.32157540665E+02  0.40659143791E+02  0.00000000000E+00 0. -1.
         11    1    3    3    0    0 -0.24349303419E+01  0.20770569111E+00  0.10420009814E+02  0.10702739472E+02  0.51100000000E-03 0. -1.
        -11    1    3    3    0    0  0.11372667042E+02  0.99620177793E+00  0.12694565597E+02  0.17072843044E+02  0.51100000000E-03 0.  1.
         12    1    3    3    0    0  0.29094211033E+01  0.20675384205E+02  0.90429652537E+01  0.22753273693E+02  0.00000000000E+00 0. -1.
</event>
<event>
 7    1  0.6245487E-013  0.5052886E+02  0.7816164E-02  0.1300439E+00
        -11   -1    0    0    0    0  0.00000000000E+00  0.00000000000E+00  0.45593999997E+02  0.45594000000E+02  0.51100000000E-03 0. -1.
         11   -1    0    0    0    0 -0.00000000000E+00 -0.00000000000E+00 -0.45593999997E+02  0.45594000000E+02  0.51100000000E-03 0.  1.
    9900012    2    1    2    0    0 -0.15126650607E+02  0.12630930139E+02 -0.35564164328E+02  0.50528859095E+02  0.29999997705E+02 0.  0.
         12    1    1    2    0    0  0.15126650607E+02 -0.12630930139E+02  0.35564164328E+02  0.40659140905E+02  0.00000000000E+00 0. -1.
         11    1    3    3    0    0 -0.12019485452E+01 -0.36146878814E+01 -0.21024121069E+01  0.43509522767E+01  0.51100000000E-03 0. -1.
        -11    1    3    3    0    0 -0.41437649133E+01  0.14155183167E+02 -0.33022268245E+02  0.36166423634E+02  0.51100000000E-03 0.  1.
         12    1    3    3    0    0 -0.97809371485E+01  0.20904348539E+01 -0.43948397595E+00  0.10011483184E+02  0.00000000000E+00 0. -1.
</event>
<event>
 7    1  0.6245487E-013  0.5052888E+02  0.7816164E-02  0.1300439E+00
        -11   -1    0    0    0    0  0.00000000000E+00  0.00000000000E+00  0.45593999997E+02  0.45594000000E+02  0.51100000000E-03 0.  1.
         11   -1    0    0    0    0 -0.00000000000E+00 -0.00000000000E+00 -0.45593999997E+02  0.45594000000E+02  0.51100000000E-03 0. -1.
    9900012    2    1    2    0    0  0.14375659403E+02 -0.37875452084E+02  0.34574881466E+01  0.50528884440E+02  0.30000074744E+02 0.  0.
         12    1    1    2    0    0 -0.14375659403E+02  0.37875452084E+02 -0.34574881466E+01  0.40659115560E+02  0.00000000000E+00 0. -1.
         11    1    3    3    0    0 -0.17684810311E+01 -0.35656972910E+01  0.37398532652E+01  0.54615222269E+01  0.51100000000E-03 0. -1.
        -11    1    3    3    0    0  0.15877889793E+02 -0.25222137515E+02  0.99111781460E+01  0.31408518870E+02  0.51100000000E-03 0.  1.
         12    1    3    3    0    0  0.26625064091E+00 -0.90876172779E+01 -0.10193543265E+02  0.13658843343E+02  0.00000000000E+00 0. -1.
</event>
<event>
 7    1  0.6245487E-013  0.5052887E+02  0.7816164E-02  0.1300439E+00
        -11   -1    0    0    0    0  0.00000000000E+00  0.00000000000E+00  0.45593999997E+02  0.45594000000E+02  0.51100000000E-03 0. -1.
         11   -1    0    0    0    0 -0.00000000000E+00 -0.00000000000E+00 -0.45593999997E+02  0.45594000000E+02  0.51100000000E-03 0.  1.
    9900012    2    1    2    0    0  0.33036578109E+02 -0.14342823451E+01 -0.23657820526E+02  0.50528866573E+02  0.30000020435E+02 0.  0.
         12    1    1    2    0    0 -0.33036578109E+02  0.14342823451E+01  0.23657820526E+02  0.40659133427E+02  0.00000000000E+00 0. -1.
         11    1    3    3    0    0 -0.12631907366E+01 -0.32906345626E+01 -0.71960191979E+01  0.80129032953E+01  0.51100000000E-03 0. -1.
        -11    1    3    3    0    0  0.15665322435E+02 -0.85239016519E+01 -0.83911123646E+01  0.19709642141E+02  0.51100000000E-03 0.  1.
         12    1    3    3    0    0  0.18634446410E+02  0.10380253869E+02 -0.80706889639E+01  0.22806321136E+02  0.00000000000E+00 0. -1.
</event>
<event>
 7    1  0.6245487E-013  0.5052886E+02  0.7816164E-02  0.1300439E+00
        -11   -1    0    0    0    0  0.00000000000E+00  0.00000000000E+00  0.45593999997E+02  0.45594000000E+02  0.51100000000E-03 0.  1.
         11   -1    0    0    0    0 -0.00000000000E+00 -0.00000000000E+00 -0.45593999997E+02  0.45594000000E+02  0.51100000000E-03 0. -1.
    9900012    2    1    2    0    0  0.15779382879E+01 -0.13317519979E+02  0.38383844365E+02  0.50528859135E+02  0.29999997828E+02 0.  0.
         12    1    1    2    0    0 -0.15779382879E+01  0.13317519979E+02 -0.38383844365E+02  0.40659140865E+02  0.00000000000E+00 0. -1.
         11    1    3    3    0    0 -0.27566329070E+01  0.36435198130E+01  0.16619318219E+02  0.17235892780E+02  0.51100000000E-03 0. -1.
        -11    1    3    3    0    0  0.63022063139E+01 -0.82004709485E+00  0.29689000791E+00  0.63622657598E+01  0.51100000000E-03 0.  1.
         12    1    3    3    0    0 -0.19676351190E+01 -0.16140992697E+02  0.21467636138E+02  0.26930700596E+02  0.00000000000E+00 0. -1.
</event>
<event>
 7    1  0.6245487E-013  0.5052885E+02  0.7816164E-02  0.1300439E+00
        -11   -1    0    0    0    0  0.00000000000E+00  0.00000000000E+00  0.45593999997E+02  0.45594000000E+02  0.51100000000E-03 0. -1.
         11   -1    0    0    0    0 -0.00000000000E+00 -0.00000000000E+00 -0.45593999997E+02  0.45594000000E+02  0.51100000000E-03 0.  1.
    9900012    2    1    2    0    0 -0.11683953196E+00  0.33289558299E+02 -0.23344329824E+02  0.50528854926E+02  0.29999985032E+02 0.  0.
         12    1    1    2    0    0  0.11683953196E+00 -0.33289558299E+02  0.23344329824E+02  0.40659145074E+02  0.00000000000E+00 0. -1.
         11    1    3    3    0    0 -0.41828443282E+01  0.14764949279E+02 -0.60928119677E+01  0.16511277110E+02  0.51100000000E-03 0.  1.
        -11    1    3    3    0    0 -0.74690823551E+01  0.14830526697E+02 -0.13307050656E+02  0.21279316501E+02  0.51100000000E-03 0. -1.
         12    1    3    3    0    0  0.11535087151E+02  0.36940823234E+01 -0.39444672006E+01  0.12738261314E+02  0.00000000000E+00 0. -1.
</event>
<event>
 7    1  0.6245487E-013  0.5052885E+02  0.7816164E-02  0.1300439E+00
        -11   -1    0    0    0    0  0.00000000000E+00  0.00000000000E+00  0.45593999997E+02  0.45594000000E+02  0.51100000000E-03 0.  1.
         11   -1    0    0    0    0 -0.00000000000E+00 -0.00000000000E+00 -0.45593999997E+02  0.45594000000E+02  0.51100000000E-03 0. -1.
    9900012    2    1    2    0    0 -0.19781531511E+02 -0.18791441255E+02  0.30145299844E+02  0.50528851508E+02  0.29999974645E+02 0.  0.
         12    1    1    2    0    0  0.19781531511E+02  0.18791441255E+02 -0.30145299844E+02  0.40659148492E+02  0.00000000000E+00 0. -1.
         11    1    3    3    0    0  0.17501803518E+01  0.23133607996E+01  0.23131941563E+01  0.37102071261E+01  0.51100000000E-03 0. -1.
        -11    1    3    3    0    0  0.13581467216E+01 -0.13325509603E+02  0.11378683885E+02  0.17575215956E+02  0.51100000000E-03 0.  1.
        -12    1    3    3    0    0 -0.22889858585E+02 -0.77792924515E+01  0.16453421803E+02  0.29243428426E+02  0.00000000000E+00 0.  1.
</event>
<event>
 7    1  0.6245487E-013  0.5052889E+02  0.7816164E-02  0.1300439E+00
        -11   -1    0    0    0    0  0.00000000000E+00  0.00000000000E+00  0.45593999997E+02  0.45594000000E+02  0.51100000000E-03 0.  1.
         11   -1    0    0    0    0 -0.00000000000E+00 -0.00000000000E+00 -0.45593999997E+02  0.45594000000E+02  0.51100000000E-03 0. -1.
    9900012    2    1    2    0    0  0.89628645085E+01  0.11627428911E+02  0.37916130773E+02  0.50528892581E+02  0.30000099490E+02 0.  0.
         12    1    1    2    0    0 -0.89628645085E+01 -0.11627428911E+02 -0.37916130773E+02  0.40659107419E+02  0.00000000000E+00 0. -1.
         11    1    3    3    0    0 -0.24742537273E+01  0.55532064424E+00  0.45371079837E+01  0.51976592465E+01  0.51100000000E-03 0. -1.
        -11    1    3    3    0    0  0.10108973051E+02  0.31432683977E+01  0.35476890509E+02  0.37022712391E+02  0.51100000000E-03 0.  1.
         12    1    3    3    0    0  0.13281451850E+01  0.79288398693E+01 -0.20978677194E+01  0.83085209437E+01  0.00000000000E+00 0. -1.
</event>
<event>
 7    1  0.6245487E-013  0.5052887E+02  0.7816164E-02  0.1300439E+00
        -11   -1    0    0    0    0  0.00000000000E+00  0.00000000000E+00  0.45593999997E+02  0.45594000000E+02  0.51100000000E-03 0.  1.
         11   -1    0    0    0    0 -0.00000000000E+00 -0.00000000000E+00 -0.45593999997E+02  0.45594000000E+02  0.51100000000E-03 0. -1.
    9900012    2    1    2    0    0 -0.17793952886E+02 -0.35204063341E+02  0.98597337028E+01  0.50528865925E+02  0.30000018465E+02 0.  0.
         12    1    1    2    0    0  0.17793952886E+02  0.35204063341E+02 -0.98597337028E+01  0.40659134075E+02  0.00000000000E+00 0. -1.
         11    1    3    3    0    0  0.18277859348E+01 -0.55670092090E+01 -0.45182563200E+01  0.73991238259E+01  0.51100000000E-03 0.  1.
        -11    1    3    3    0    0 -0.28419441963E+01  0.85903444880E+00  0.69229035745E+01  0.75326742371E+01  0.51100000000E-03 0. -1.
        -12    1    3    3    0    0 -0.16779794625E+02 -0.30496088581E+02  0.74550864483E+01  0.35597067862E+02  0.00000000000E+00 0.  1.
</event>
<event>
 7    1  0.6715474E-013  0.5052886E+02  0.7816164E-02  0.1300439E+00
        -11   -1    0    0    0    0  0.00000000000E+00  0.00000000000E+00  0.45593999997E+02  0.45594000000E+02  0.51100000000E-03 0. -1.
         11   -1    0    0    0    0 -0.00000000000E+00 -0.00000000000E+00 -0.45593999997E+02  0.45594000000E+02  0.51100000000E-03 0.  1.
    9900012    2    1    2    0    0  0.95896963718E+00  0.12897352435E+02 -0.38547430476E+02  0.50528859344E+02  0.29999998462E+02 0.  0.
         12    1    1    2    0    0 -0.95896963718E+00 -0.12897352435E+02  0.38547430476E+02  0.40659140656E+02  0.00000000000E+00 0. -1.
         11    1    3    3    0    0  0.46871837399E+01 -0.16958758886E+01  0.11056961357E+01  0.51057076539E+01  0.51100000000E-03 0. -1.
        -11    1    3    3    0    0  0.25146363925E+01  0.97765388266E+01 -0.82260046196E+01  0.13021952998E+02  0.51100000000E-03 0.  1.
        -12    1    3    3    0    0 -0.62428504952E+01  0.48166894970E+01 -0.31427121992E+02  0.32401198692E+02  0.00000000000E+00 0.  1.
</event>
<event>
 7    1  0.6245487E-013  0.5052885E+02  0.7816164E-02  0.1300439E+00
        -11   -1    0    0    0    0  0.00000000000E+00  0.00000000000E+00  0.45593999997E+02  0.45594000000E+02  0.51100000000E-03 0. -1.
         11   -1    0    0    0    0 -0.00000000000E+00 -0.00000000000E+00 -0.45593999997E+02  0.45594000000E+02  0.51100000000E-03 0.  1.
    9900012    2    1    2    0    0 -0.99394860169E+01  0.26915826002E+02 -0.28808178654E+02  0.50528853071E+02  0.29999979396E+02 0.  0.
         12    1    1    2    0    0  0.99394860169E+01 -0.26915826002E+02  0.28808178654E+02  0.40659146929E+02  0.00000000000E+00 0. -1.
         11    1    3    3    0    0 -0.24769523870E+01 -0.19048686184E+01 -0.36498450686E+01  0.48047046597E+01  0.51100000000E-03 0. -1.
        -11    1    3    3    0    0 -0.44260127213E+01  0.13418768830E+02 -0.26434545916E+02  0.29973958089E+02  0.51100000000E-03 0.  1.
         12    1    3    3    0    0 -0.30365209085E+01  0.15401925790E+02  0.12762123307E+01  0.15750190322E+02  0.00000000000E+00 0. -1.
</event>
<event>
 7    1  0.6245487E-013  0.5052886E+02  0.7816164E-02  0.1300439E+00
        -11   -1    0    0    0    0  0.00000000000E+00  0.00000000000E+00  0.45593999997E+02  0.45594000000E+02  0.51100000000E-03 0.  1.
         11   -1    0    0    0    0 -0.00000000000E+00 -0.00000000000E+00 -0.45593999997E+02  0.45594000000E+02  0.51100000000E-03 0. -1.
    9900012    2    1    2    0    0 -0.35561754391E+02 -0.82423821843E+01  0.17905032287E+02  0.50528863012E+02  0.30000009611E+02 0.  0.
         12    1    1    2    0    0  0.35561754391E+02  0.82423821843E+01 -0.17905032287E+02  0.40659136988E+02  0.00000000000E+00 0. -1.
         11    1    3    3    0    0 -0.13537398815E+02 -0.56297456349E+01 -0.29022643974E+01  0.14945846964E+02  0.51100000000E-03 0. -1.
        -11    1    3    3    0    0 -0.14852977385E+02 -0.99874317386E+01  0.16785723325E+02  0.24538138433E+02  0.51100000000E-03 0.  1.
         12    1    3    3    0    0 -0.71713781912E+01  0.73747951892E+01  0.40215733593E+01  0.11044877615E+02  0.00000000000E+00 0. -1.
</event>
<event>
 7    1  0.6245487E-013  0.5052885E+02  0.7816164E-02  0.1300439E+00
        -11   -1    0    0    0    0  0.00000000000E+00  0.00000000000E+00  0.45593999997E+02  0.45594000000E+02  0.51100000000E-03 0.  1.
         11   -1    0    0    0    0 -0.00000000000E+00 -0.00000000000E+00 -0.45593999997E+02  0.45594000000E+02  0.51100000000E-03 0. -1.
    9900012    2    1    2    0    0  0.20784031690E+02  0.79945829479E+00  0.34936388853E+02  0.50528851301E+02  0.29999974013E+02 0.  0.
         12    1    1    2    0    0 -0.20784031690E+02 -0.79945829479E+00 -0.34936388853E+02  0.40659148699E+02  0.00000000000E+00 0. -1.
         11    1    3    3    0    0 -0.29308138824E+01  0.11421141129E+01  0.16026407484E+01  0.35302340276E+01  0.51100000000E-03 0. -1.
        -11    1    3    3    0    0  0.69190117444E+01  0.69865775837E+01  0.25006050146E+02  0.26869825716E+02  0.51100000000E-03 0.  1.
         12    1    3    3    0    0  0.16795833828E+02 -0.73292334018E+01  0.83276979587E+01  0.20128791557E+02  0.00000000000E+00 0. -1.
</event>
<event>
 7    1  0.6245487E-013  0.5052886E+02  0.7816164E-02  0.1300439E+00
        -11   -1    0    0    0    0  0.00000000000E+00  0.00000000000E+00  0.45593999997E+02  0.45594000000E+02  0.51100000000E-03 0.  1.
         11   -1    0    0    0    0 -0.00000000000E+00 -0.00000000000E+00 -0.45593999997E+02  0.45594000000E+02  0.51100000000E-03 0. -1.
    9900012    2    1    2    0    0  0.18570455561E+02 -0.35892630137E+02 -0.44747236807E+01  0.50528857487E+02  0.29999992818E+02 0.  0.
         12    1    1    2    0    0 -0.18570455561E+02  0.35892630137E+02  0.44747236807E+01  0.40659142513E+02  0.00000000000E+00 0. -1.
         11    1    3    3    0    0  0.88840528164E+00  0.33870813388E+01  0.47295844051E+00  0.35334507054E+01  0.51100000000E-03 0. -1.
        -11    1    3    3    0    0  0.20694089799E+02 -0.26724994762E+02 -0.29224939458E+01  0.33926562879E+02  0.51100000000E-03 0.  1.
        -12    1    3    3    0    0 -0.30120395196E+01 -0.12554716713E+02 -0.20251881754E+01  0.13068843903E+02  0.00000000000E+00 0.  1.
</event>
<event>
 7    1  0.6245487E-013  0.5052887E+02  0.7816164E-02  0.1300439E+00
        -11   -1    0    0    0    0  0.00000000000E+00  0.00000000000E+00  0.45593999997E+02  0.45594000000E+02  0.51100000000E-03 0.  1.
         11   -1    0    0    0    0 -0.00000000000E+00 -0.00000000000E+00 -0.45593999997E+02  0.45594000000E+02  0.51100000000E-03 0. -1.
    9900012    2    1    2    0    0  0.84659730810E+01  0.24736238092E+02  0.31138575256E+02  0.50528867642E+02  0.30000023683E+02 0.  0.
         12    1    1    2    0    0 -0.84659730810E+01 -0.24736238092E+02 -0.31138575256E+02  0.40659132358E+02  0.00000000000E+00 0. -1.
         11    1    3    3    0    0 -0.35700468870E+01  0.81645910704E+01  0.11286411001E+02  0.14380154925E+02  0.51100000000E-03 0. -1.
        -11    1    3    3    0    0  0.14708059969E+02  0.17648789217E+02  0.22557231661E+02  0.32196824212E+02  0.51100000000E-03 0.  1.
         12    1    3    3    0    0 -0.26720400011E+01 -0.10771421951E+01 -0.27050674064E+01  0.39518885041E+01  0.00000000000E+00 0. -1.
</event>
<event>
 7    1  0.6245487E-013  0.5052885E+02  0.7816164E-02  0.1300439E+00
        -11   -1    0    0    0    0  0.00000000000E+00  0.00000000000E+00  0.45593999997E+02  0.45594000000E+02  0.51100000000E-03 0. -1.
         11   -1    0    0    0    0 -0.00000000000E+00 -0.00000000000E+00 -0.45593999997E+02  0.45594000000E+02  0.51100000000E-03 0.  1.
    9900012    2    1    2    0    0  0.37291418838E+02  0.12927461305E+02 -0.97671693195E+01  0.50528846403E+02  0.29999959126E+02 0.  0.
         12    1    1    2    0    0 -0.37291418838E+02 -0.12927461305E+02  0.97671693195E+01  0.40659153597E+02  0.00000000000E+00 0. -1.
         11    1    3    3    0    0  0.11603116122E+01 -0.41229883742E+01  0.67681255170E+00  0.43362923866E+01  0.51100000000E-03 0. -1.
        -11    1    3    3    0    0  0.11621056591E+02  0.62738086566E+01 -0.13926270478E+02  0.19192463131E+02  0.51100000000E-03 0.  1.
         12    1    3    3    0    0  0.24510050635E+02  0.10776641022E+02  0.34822886072E+01  0.27000090885E+02  0.00000000000E+00 0. -1.
</event>
<event>
 7    1  0.6245487E-013  0.5052886E+02  0.7816164E-02  0.1300439E+00
        -11   -1    0    0    0    0  0.00000000000E+00  0.00000000000E+00  0.45593999997E+02  0.45594000000E+02  0.51100000000E-03 0.  1.
         11   -1    0    0    0    0 -0.00000000000E+00 -0.00000000000E+00 -0.45593999997E+02  0.45594000000E+02  0.51100000000E-03 0. -1.
    9900012    2    1    2    0    0 -0.31830547505E+02  0.14020988321E+02  0.21056917325E+02  0.50528860373E+02  0.30000001590E+02 0.  0.
         12    1    1    2    0    0  0.31830547505E+02 -0.14020988321E+02 -0.21056917325E+02  0.40659139627E+02  0.00000000000E+00 0. -1.
         11    1    3    3    0    0 -0.22328380941E+02  0.14126496741E+02  0.98860465213E+01  0.28210785557E+02  0.51100000000E-03 0. -1.
        -11    1    3    3    0    0 -0.13404593076E+02 -0.28725271961E+01  0.10921861318E+02  0.17527737530E+02  0.51100000000E-03 0.  1.
        -12    1    3    3    0    0  0.39024265122E+01  0.27670187760E+01  0.24900948549E+00  0.47903372860E+01  0.00000000000E+00 0.  1.
</event>
<event>
 7    1  0.6245487E-013  0.5052887E+02  0.7816164E-02  0.1300439E+00
        -11   -1    0    0    0    0  0.00000000000E+00  0.00000000000E+00  0.45593999997E+02  0.45594000000E+02  0.51100000000E-03 0. -1.
         11   -1    0    0    0    0 -0.00000000000E+00 -0.00000000000E+00 -0.45593999997E+02  0.45594000000E+02  0.51100000000E-03 0.  1.
    9900012    2    1    2    0    0 -0.81753771321E+01 -0.64962921510E+01 -0.39295368202E+02  0.50528873532E+02  0.30000041588E+02 0.  0.
         12    1    1    2    0    0  0.81753771321E+01  0.64962921510E+01  0.39295368202E+02  0.40659126468E+02  0.00000000000E+00 0. -1.
         11    1    3    3    0    0 -0.50471466125E+01  0.50490729238E+01 -0.45456997732E+00  0.71535627797E+01  0.51100000000E-03 0. -1.
        -11    1    3    3    0    0 -0.83334537688E+01 -0.24537339954E+01 -0.14994439671E+02  0.17329180117E+02  0.51100000000E-03 0.  1.
        -12    1    3    3    0    0  0.52052232491E+01 -0.90916310795E+01 -0.23846358554E+02  0.26046130635E+02  0.00000000000E+00 0.  1.
</event>
<event>
 7    1  0.6245487E-013  0.5052885E+02  0.7816164E-02  0.1300439E+00
        -11   -1    0    0    0    0  0.00000000000E+00  0.00000000000E+00  0.45593999997E+02  0.45594000000E+02  0.51100000000E-03 0. -1.
         11   -1    0    0    0    0 -0.00000000000E+00 -0.00000000000E+00 -0.45593999997E+02  0.45594000000E+02  0.51100000000E-03 0.  1.
    9900012    2    1    2    0    0 -0.12222816675E+02 -0.38393459762E+02 -0.54507878812E+01  0.50528854799E+02  0.29999984647E+02 0.  0.
         12    1    1    2    0    0  0.12222816675E+02  0.38393459762E+02  0.54507878812E+01  0.40659145201E+02  0.00000000000E+00 0. -1.
         11    1    3    3    0    0  0.20800479347E+01 -0.11172183761E+02 -0.72357853346E+01  0.13472226210E+02  0.51100000000E-03 0. -1.
        -11    1    3    3    0    0  0.10476548130E+01  0.46782574325E+00  0.50968181768E+01  0.52243657339E+01  0.51100000000E-03 0.  1.
        -12    1    3    3    0    0 -0.15350519423E+02 -0.27689101744E+02 -0.33118207233E+01  0.31832262855E+02  0.00000000000E+00 0.  1.
</event>
<event>
 7    1  0.6245487E-013  0.5052889E+02  0.7816164E-02  0.1300439E+00
        -11   -1    0    0    0    0  0.00000000000E+00  0.00000000000E+00  0.45593999997E+02  0.45594000000E+02  0.51100000000E-03 0. -1.
         11   -1    0    0    0    0 -0.00000000000E+00 -0.00000000000E+00 -0.45593999997E+02  0.45594000000E+02  0.51100000000E-03 0.  1.
    9900012    2    1    2    0    0  0.46552135527E+01  0.40102166145E+02  0.48278950352E+01  0.50528888927E+02  0.30000088382E+02 0.  0.
         12    1    1    2    0    0 -0.46552135527E+01 -0.40102166145E+02 -0.48278950352E+01  0.40659111073E+02  0.00000000000E+00 0. -1.
         11    1    3    3    0    0 -0.11176895706E+01 -0.18230702197E+01  0.25623942518E+01  0.33374660395E+01  0.51100000000E-03 0. -1.
        -11    1    3    3    0    0 -0.11231513044E+01  0.20520694399E+02 -0.85240022618E+01  0.22249022052E+02  0.51100000000E-03 0.  1.
         12    1    3    3    0    0  0.68960544277E+01  0.21404541966E+02  0.10789503045E+02  0.24942400835E+02  0.00000000000E+00 0. -1.
</event>
<event>
 7    1  0.6245487E-013  0.5052896E+02  0.7816164E-02  0.1300438E+00
        -11   -1    0    0    0    0  0.00000000000E+00  0.00000000000E+00  0.45593999997E+02  0.45594000000E+02  0.51100000000E-03 0.  1.
         11   -1    0    0    0    0 -0.00000000000E+00 -0.00000000000E+00 -0.45593999997E+02  0.45594000000E+02  0.51100000000E-03 0. -1.
    9900012    2    1    2    0    0  0.21361135014E+02 -0.32587772157E+02  0.11614509507E+02  0.50528956549E+02  0.30000293926E+02 0.  0.
         12    1    1    2    0    0 -0.21361135014E+02  0.32587772157E+02 -0.11614509507E+02  0.40659043451E+02  0.00000000000E+00 0. -1.
         11    1    3    3    0    0 -0.29490478560E+01 -0.72737387878E+01 -0.40662232204E+00  0.78593575554E+01  0.51100000000E-03 0. -1.
        -11    1    3    3    0    0  0.72279434423E+01 -0.10218362872E+01 -0.46091307092E+01  0.86331571258E+01  0.51100000000E-03 0.  1.
        -12    1    3    3    0    0  0.17082239428E+02 -0.24292197082E+02  0.16630262538E+02  0.34036441868E+02  0.00000000000E+00 0.  1.
</event>
<event>
 7    1  0.6245487E-013  0.5052887E+02  0.7816164E-02  0.1300439E+00
        -11   -1    0    0    0    0  0.00000000000E+00  0.00000000000E+00  0.45593999997E+02  0.45594000000E+02  0.51100000000E-03 0.  1.
         11   -1    0    0    0    0 -0.00000000000E+00 -0.00000000000E+00 -0.45593999997E+02  0.45594000000E+02  0.51100000000E-03 0. -1.
    9900012    2    1    2    0    0 -0.43607796297E+01 -0.12085596973E+02  0.38575730593E+02  0.50528867644E+02  0.30000023689E+02 0.  0.
         12    1    1    2    0    0  0.43607796297E+01  0.12085596973E+02 -0.38575730593E+02  0.40659132356E+02  0.00000000000E+00 0. -1.
         11    1    3    3    0    0 -0.64842771649E+01 -0.93148576464E+01  0.29502706578E+02  0.31610474830E+02  0.51100000000E-03 0. -1.
        -11    1    3    3    0    0  0.57408873013E+01 -0.72504273385E+01  0.93537579760E+01  0.13153679034E+02  0.51100000000E-03 0.  1.
         12    1    3    3    0    0 -0.36173897661E+01  0.44796880115E+01 -0.28073396055E+00  0.57647137792E+01  0.00000000000E+00 0. -1.
</event>
<event>
 7    1  0.6245487E-013  0.5052886E+02  0.7816164E-02  0.1300439E+00
        -11   -1    0    0    0    0  0.00000000000E+00  0.00000000000E+00  0.45593999997E+02  0.45594000000E+02  0.51100000000E-03 0.  1.
         11   -1    0    0    0    0 -0.00000000000E+00 -0.00000000000E+00 -0.45593999997E+02  0.45594000000E+02  0.51100000000E-03 0. -1.
    9900012    2    1    2    0    0  0.83894242496E+01  0.34574835883E+02  0.19681566462E+02  0.50528858666E+02  0.29999996402E+02 0.  0.
         12    1    1    2    0    0 -0.83894242496E+01 -0.34574835883E+02 -0.19681566462E+02  0.40659141334E+02  0.00000000000E+00 0. -1.
         11    1    3    3    0    0  0.71262701414E+01  0.73775677012E+01  0.12184750834E+02  0.15927347063E+02  0.51100000000E-03 0. -1.
        -11    1    3    3    0    0 -0.71155115450E+01  0.71175834078E+01  0.79712720013E+01  0.12838678892E+02  0.51100000000E-03 0.  1.
         12    1    3    3    0    0  0.83786656532E+01  0.20079684774E+02 -0.47445637348E+00  0.21762832711E+02  0.00000000000E+00 0. -1.
</event>
<event>
 7    1  0.6245487E-013  0.5052886E+02  0.7816164E-02  0.1300439E+00
        -11   -1    0    0    0    0  0.00000000000E+00  0.00000000000E+00  0.45593999997E+02  0.45594000000E+02  0.51100000000E-03 0. -1.
         11   -1    0    0    0    0 -0.00000000000E+00 -0.00000000000E+00 -0.45593999997E+02  0.45594000000E+02  0.51100000000E-03 0.  1.
    9900012    2    1    2    0    0  0.29905086624E+02  0.23819919451E+02 -0.13837024169E+02  0.50528855807E+02  0.29999987711E+02 0.  0.
         12    1    1    2    0    0 -0.29905086624E+02 -0.23819919451E+02  0.13837024169E+02  0.40659144193E+02  0.00000000000E+00 0. -1.
         11    1    3    3    0    0  0.16487424518E+02  0.23461982714E+02 -0.10872964084E+01  0.28696376319E+02  0.51100000000E-03 0. -1.
        -11    1    3    3    0    0  0.93518609130E+01  0.46773702072E+01 -0.38615404734E+01  0.11146595430E+02  0.51100000000E-03 0.  1.
         12    1    3    3    0    0  0.40658011925E+01 -0.43194334699E+01 -0.88881872876E+01  0.10685884058E+02  0.00000000000E+00 0. -1.
</event>
<event>
 7    1  0.6245487E-013  0.5052886E+02  0.7816164E-02  0.1300439E+00
        -11   -1    0    0    0    0  0.00000000000E+00  0.00000000000E+00  0.45593999997E+02  0.45594000000E+02  0.51100000000E-03 0. -1.
         11   -1    0    0    0    0 -0.00000000000E+00 -0.00000000000E+00 -0.45593999997E+02  0.45594000000E+02  0.51100000000E-03 0.  1.
    9900012    2    1    2    0    0 -0.33721958704E+02  0.22021331553E+02  0.55728261068E+01  0.50528856710E+02  0.29999990457E+02 0.  0.
         12    1    1    2    0    0  0.33721958704E+02 -0.22021331553E+02 -0.55728261068E+01  0.40659143290E+02  0.00000000000E+00 0. -1.
         11    1    3    3    0    0 -0.28416369641E+02  0.11625366437E+02  0.84809894620E+00  0.30714141376E+02  0.51100000000E-03 0.  1.
        -11    1    3    3    0    0 -0.95977573841E+01  0.28140138044E+01  0.21476654103E+00  0.10004086436E+02  0.51100000000E-03 0. -1.
         12    1    3    3    0    0  0.42921683209E+01  0.75819513117E+01  0.45099606196E+01  0.98106288982E+01  0.00000000000E+00 0. -1.
</event>
<event>
 7    1  0.6245487E-013  0.5052887E+02  0.7816164E-02  0.1300439E+00
        -11   -1    0    0    0    0  0.00000000000E+00  0.00000000000E+00  0.45593999997E+02  0.45594000000E+02  0.51100000000E-03 0.  1.
         11   -1    0    0    0    0 -0.00000000000E+00 -0.00000000000E+00 -0.45593999997E+02  0.45594000000E+02  0.51100000000E-03 0. -1.
    9900012    2    1    2    0    0 -0.56058530617E+01  0.39535364619E+02  0.76612308587E+01  0.50528866925E+02  0.30000021505E+02 0.  0.
         12    1    1    2    0    0  0.56058530617E+01 -0.39535364619E+02 -0.76612308587E+01  0.40659133075E+02  0.00000000000E+00 0. -1.
         11    1    3    3    0    0 -0.15087032817E+02  0.29619465048E+02  0.66796862939E+01  0.33905006683E+02  0.51100000000E-03 0.  1.
        -11    1    3    3    0    0  0.83157771132E+01  0.11614357309E+02 -0.12629890985E+00  0.14285005999E+02  0.51100000000E-03 0. -1.
        -12    1    3    3    0    0  0.11654026424E+01 -0.16984577379E+01  0.11078434747E+01  0.23388542431E+01  0.00000000000E+00 0.  1.
</event>
<event>
 7    1  0.6245487E-013  0.5052886E+02  0.7816164E-02  0.1300439E+00
        -11   -1    0    0    0    0  0.00000000000E+00  0.00000000000E+00  0.45593999997E+02  0.45594000000E+02  0.51100000000E-03 0.  1.
         11   -1    0    0    0    0 -0.00000000000E+00 -0.00000000000E+00 -0.45593999997E+02  0.45594000000E+02  0.51100000000E-03 0. -1.
    9900012    2    1    2    0    0  0.24209835702E+02 -0.19588350105E+02  0.26140888635E+02  0.50528860029E+02  0.30000000545E+02 0.  0.
         12    1    1    2    0    0 -0.24209835702E+02  0.19588350105E+02 -0.26140888635E+02  0.40659139971E+02  0.00000000000E+00 0. -1.
         11    1    3    3    0    0 -0.35958211850E+01 -0.13115273535E+01 -0.32311783332E+01  0.50090465835E+01  0.51100000000E-03 0. -1.
        -11    1    3    3    0    0  0.54202689331E+01 -0.30801940672E+00  0.82702770949E+01  0.98930114096E+01  0.51100000000E-03 0.  1.
        -12    1    3    3    0    0  0.22385387953E+02 -0.17968803345E+02  0.21101789873E+02  0.35626802036E+02  0.00000000000E+00 0.  1.
</event>
<event>
 7    1  0.6245487E-013  0.5052886E+02  0.7816164E-02  0.1300439E+00
        -11   -1    0    0    0    0  0.00000000000E+00  0.00000000000E+00  0.45593999997E+02  0.45594000000E+02  0.51100000000E-03 0.  1.
         11   -1    0    0    0    0 -0.00000000000E+00 -0.00000000000E+00 -0.45593999997E+02  0.45594000000E+02  0.51100000000E-03 0. -1.
    9900012    2    1    2    0    0 -0.18695423353E+02 -0.35252804608E+02  0.78029929730E+01  0.50528858514E+02  0.29999995938E+02 0.  0.
         12    1    1    2    0    0  0.18695423353E+02  0.35252804608E+02 -0.78029929730E+01  0.40659141486E+02  0.00000000000E+00 0. -1.
         11    1    3    3    0    0 -0.18045727989E+01 -0.17486769628E+01  0.44899483917E+01  0.51452882260E+01  0.51100000000E-03 0. -1.
        -11    1    3    3    0    0 -0.92013206200E+01 -0.33311747289E+02  0.91240931735E+01  0.35743333436E+02  0.51100000000E-03 0.  1.
        -12    1    3    3    0    0 -0.76895299345E+01 -0.19238035562E+00 -0.58110485923E+01  0.96402368517E+01  0.00000000000E+00 0.  1.
</event>
<event>
 7    1  0.6245487E-013  0.5052886E+02  0.7816164E-02  0.1300439E+00
        -11   -1    0    0    0    0  0.00000000000E+00  0.00000000000E+00  0.45593999997E+02  0.45594000000E+02  0.51100000000E-03 0.  1.
         11   -1    0    0    0    0 -0.00000000000E+00 -0.00000000000E+00 -0.45593999997E+02  0.45594000000E+02  0.51100000000E-03 0. -1.
    9900012    2    1    2    0    0 -0.24075121763E+01 -0.39824242783E+02  0.78357885667E+01  0.50528855757E+02  0.29999987558E+02 0.  0.
         12    1    1    2    0    0  0.24075121763E+01  0.39824242783E+02 -0.78357885667E+01  0.40659144243E+02  0.00000000000E+00 0. -1.
         11    1    3    3    0    0 -0.37425686195E+01 -0.10976810108E+02 -0.12029944164E+01  0.11659518680E+02  0.51100000000E-03 0. -1.
        -11    1    3    3    0    0 -0.43658678955E+01 -0.26537777307E+02 -0.12041181016E+01  0.26921447353E+02  0.51100000000E-03 0.  1.
        -12    1    3    3    0    0  0.57009243387E+01 -0.23096553683E+01  0.10242901085E+02  0.11947889724E+02  0.00000000000E+00 0.  1.
</event>
<event>
 7    1  0.6245487E-013  0.5052886E+02  0.7816164E-02  0.1300439E+00
        -11   -1    0    0    0    0  0.00000000000E+00  0.00000000000E+00  0.45593999997E+02  0.45594000000E+02  0.51100000000E-03 0. -1.
         11   -1    0    0    0    0 -0.00000000000E+00 -0.00000000000E+00 -0.45593999997E+02  0.45594000000E+02  0.51100000000E-03 0.  1.
    9900012    2    1    2    0    0 -0.21602916116E+02  0.28439381896E+02  0.19434030501E+02  0.50528856270E+02  0.29999989118E+02 0.  0.
         12    1    1    2    0    0  0.21602916116E+02 -0.28439381896E+02 -0.19434030501E+02  0.40659143730E+02  0.00000000000E+00 0. -1.
         11    1    3    3    0    0  0.23763716006E+01  0.21686132481E+01  0.24885224571E+01  0.40672803794E+01  0.51100000000E-03 0. -1.
        -11    1    3    3    0    0 -0.18133225028E+02  0.30665971031E+02  0.16112773007E+02  0.39100346334E+02  0.51100000000E-03 0.  1.
         12    1    3    3    0    0 -0.58460626881E+01 -0.43952023832E+01  0.83273503767E+00  0.73612295566E+01  0.00000000000E+00 0. -1.
</event>
<event>
 7    1  0.6245487E-013  0.5052889E+02  0.7816164E-02  0.1300439E+00
        -11   -1    0    0    0    0  0.00000000000E+00  0.00000000000E+00  0.45593999997E+02  0.45594000000E+02  0.51100000000E-03 0.  1.
         11   -1    0    0    0    0 -0.00000000000E+00 -0.00000000000E+00 -0.45593999997E+02  0.45594000000E+02  0.51100000000E-03 0. -1.
    9900012    2    1    2    0    0 -0.98832856397E+01  0.28112176640E+02 -0.27662063989E+02  0.50528885467E+02  0.30000077867E+02 0.  0.
         12    1    1    2    0    0  0.98832856397E+01 -0.28112176640E+02  0.27662063989E+02  0.40659114533E+02  0.00000000000E+00 0. -1.
         11    1    3    3    0    0 -0.88005094095E+01  0.63376320845E+00 -0.12079526402E+02  0.14958796075E+02  0.51100000000E-03 0. -1.
        -11    1    3    3    0    0 -0.81805279599E+01  0.14611901574E+02 -0.50501953886E+01  0.17490945630E+02  0.51100000000E-03 0.  1.
        -12    1    3    3    0    0  0.70977517296E+01  0.12866511857E+02 -0.10532342198E+02  0.18079143762E+02  0.00000000000E+00 0.  1.
</event>
<event>
 7    1  0.6245487E-013  0.5052886E+02  0.7816164E-02  0.1300439E+00
        -11   -1    0    0    0    0  0.00000000000E+00  0.00000000000E+00  0.45593999997E+02  0.45594000000E+02  0.51100000000E-03 0. -1.
         11   -1    0    0    0    0 -0.00000000000E+00 -0.00000000000E+00 -0.45593999997E+02  0.45594000000E+02  0.51100000000E-03 0.  1.
    9900012    2    1    2    0    0  0.25367983203E+02  0.64687721446E+01 -0.31109260854E+02  0.50528859629E+02  0.29999999327E+02 0.  0.
         12    1    1    2    0    0 -0.25367983203E+02 -0.64687721446E+01  0.31109260854E+02  0.40659140371E+02  0.00000000000E+00 0. -1.
         11    1    3    3    0    0  0.40895096428E+01  0.14779069406E+01 -0.85683223366E+01  0.96085610769E+01  0.51100000000E-03 0. -1.
        -11    1    3    3    0    0 -0.48311067098E+01  0.63031354356E+01 -0.41831283381E+01  0.89759496052E+01  0.51100000000E-03 0.  1.
         12    1    3    3    0    0  0.26109580270E+02 -0.13122702316E+01 -0.18357810179E+02  0.31944348947E+02  0.00000000000E+00 0. -1.
</event>
<event>
 7    1  0.6245487E-013  0.5052886E+02  0.7816164E-02  0.1300439E+00
        -11   -1    0    0    0    0  0.00000000000E+00  0.00000000000E+00  0.45593999997E+02  0.45594000000E+02  0.51100000000E-03 0.  1.
         11   -1    0    0    0    0 -0.00000000000E+00 -0.00000000000E+00 -0.45593999997E+02  0.45594000000E+02  0.51100000000E-03 0. -1.
    9900012    2    1    2    0    0 -0.37531008245E+02  0.15230671314E+02  0.35518558864E+01  0.50528860698E+02  0.30000002577E+02 0.  0.
         12    1    1    2    0    0  0.37531008245E+02 -0.15230671314E+02 -0.35518558864E+01  0.40659139302E+02  0.00000000000E+00 0. -1.
         11    1    3    3    0    0 -0.17994789311E+02  0.48241812807E+01 -0.44910037041E+01  0.19163879615E+02  0.51100000000E-03 0. -1.
        -11    1    3    3    0    0 -0.20092334037E+02  0.22969568203E+01  0.10614168987E+02  0.22839406324E+02  0.51100000000E-03 0.  1.
         12    1    3    3    0    0  0.55611510385E+00  0.81095332130E+01 -0.25713093966E+01  0.85255747581E+01  0.00000000000E+00 0. -1.
</event>
<event>
 7    1  0.6245487E-013  0.5052886E+02  0.7816164E-02  0.1300439E+00
        -11   -1    0    0    0    0  0.00000000000E+00  0.00000000000E+00  0.45593999997E+02  0.45594000000E+02  0.51100000000E-03 0. -1.
         11   -1    0    0    0    0 -0.00000000000E+00 -0.00000000000E+00 -0.45593999997E+02  0.45594000000E+02  0.51100000000E-03 0.  1.
    9900012    2    1    2    0    0  0.39891487922E+01 -0.35994106608E+02 -0.18484500988E+02  0.50528858403E+02  0.29999995603E+02 0.  0.
         12    1    1    2    0    0 -0.39891487922E+01  0.35994106608E+02  0.18484500988E+02  0.40659141597E+02  0.00000000000E+00 0. -1.
         11    1    3    3    0    0  0.92185932110E+01 -0.65423045291E+01 -0.10174674670E+02  0.15208820278E+02  0.51100000000E-03 0. -1.
        -11    1    3    3    0    0 -0.24266184062E+01 -0.49511410736E+01 -0.91076589370E+01  0.10646676777E+02  0.51100000000E-03 0.  1.
        -12    1    3    3    0    0 -0.28028260125E+01 -0.24500661005E+02  0.79783261861E+00  0.24673361349E+02  0.00000000000E+00 0.  1.
</event>
<event>
 7    1  0.6245487E-013  0.5052886E+02  0.7816164E-02  0.1300439E+00
        -11   -1    0    0    0    0  0.00000000000E+00  0.00000000000E+00  0.45593999997E+02  0.45594000000E+02  0.51100000000E-03 0.  1.
         11   -1    0    0    0    0 -0.00000000000E+00 -0.00000000000E+00 -0.45593999997E+02  0.45594000000E+02  0.51100000000E-03 0. -1.
    9900012    2    1    2    0    0 -0.63596177153E+00 -0.22821930408E+02  0.33644024789E+02  0.50528863771E+02  0.30000011919E+02 0.  0.
         12    1    1    2    0    0  0.63596177153E+00  0.22821930408E+02 -0.33644024789E+02  0.40659136229E+02  0.00000000000E+00 0. -1.
         11    1    3    3    0    0  0.17885972686E+01 -0.85666037382E+01  0.15773095465E+02  0.18038190614E+02  0.51100000000E-03 0. -1.
        -11    1    3    3    0    0 -0.91458032464E+01 -0.50216632294E+00  0.13950850000E+02  0.16689041435E+02  0.51100000000E-03 0.  1.
         12    1    3    3    0    0  0.67212442063E+01 -0.13753160346E+02  0.39200793238E+01  0.15801631723E+02  0.00000000000E+00 0. -1.
</event>
<event>
 7    1  0.6245487E-013  0.5052887E+02  0.7816164E-02  0.1300439E+00
        -11   -1    0    0    0    0  0.00000000000E+00  0.00000000000E+00  0.45593999997E+02  0.45594000000E+02  0.51100000000E-03 0. -1.
         11   -1    0    0    0    0 -0.00000000000E+00 -0.00000000000E+00 -0.45593999997E+02  0.45594000000E+02  0.51100000000E-03 0.  1.
    9900012    2    1    2    0    0 -0.34273298306E+02 -0.18280289314E+02 -0.12014032958E+02  0.50528868897E+02  0.30000027499E+02 0.  0.
         12    1    1    2    0    0  0.34273298306E+02  0.18280289314E+02  0.12014032958E+02  0.40659131103E+02  0.00000000000E+00 0. -1.
         11    1    3    3    0    0 -0.24791800919E+02 -0.19720589468E+02 -0.64245231266E+01  0.32323513724E+02  0.51100000000E-03 0. -1.
        -11    1    3    3    0    0 -0.11035342845E+02 -0.79197727978E+00  0.96817649365E+00  0.11106006739E+02  0.51100000000E-03 0.  1.
         12    1    3    3    0    0  0.15538454587E+01  0.22322774333E+01 -0.65576863248E+01  0.70993484337E+01  0.00000000000E+00 0. -1.
</event>
<event>
 7    1  0.6245487E-013  0.5052886E+02  0.7816164E-02  0.1300439E+00
        -11   -1    0    0    0    0  0.00000000000E+00  0.00000000000E+00  0.45593999997E+02  0.45594000000E+02  0.51100000000E-03 0.  1.
         11   -1    0    0    0    0 -0.00000000000E+00 -0.00000000000E+00 -0.45593999997E+02  0.45594000000E+02  0.51100000000E-03 0. -1.
    9900012    2    1    2    0    0 -0.33284000121E+02 -0.22821654021E+02 -0.49510312205E+01  0.50528864908E+02  0.30000015374E+02 0.  0.
         12    1    1    2    0    0  0.33284000121E+02  0.22821654021E+02  0.49510312205E+01  0.40659135092E+02  0.00000000000E+00 0. -1.
         11    1    3    3    0    0 -0.15339314774E+02 -0.35150340715E+01 -0.47057613494E+00  0.15743934846E+02  0.51100000000E-03 0. -1.
        -11    1    3    3    0    0 -0.12989519748E+02 -0.14894453737E+02  0.74607538721E+01  0.21124280438E+02  0.51100000000E-03 0.  1.
        -12    1    3    3    0    0 -0.49551655987E+01 -0.44121662125E+01 -0.11941208958E+02  0.13660649625E+02  0.00000000000E+00 0.  1.
</event>
<event>
 7    1  0.6245487E-013  0.5052886E+02  0.7816164E-02  0.1300439E+00
        -11   -1    0    0    0    0  0.00000000000E+00  0.00000000000E+00  0.45593999997E+02  0.45594000000E+02  0.51100000000E-03 0. -1.
         11   -1    0    0    0    0 -0.00000000000E+00 -0.00000000000E+00 -0.45593999997E+02  0.45594000000E+02  0.51100000000E-03 0.  1.
    9900012    2    1    2    0    0 -0.32733091019E+02  0.95197746206E+01 -0.22160430760E+02  0.50528855297E+02  0.29999986162E+02 0.  0.
         12    1    1    2    0    0  0.32733091019E+02 -0.95197746206E+01  0.22160430760E+02  0.40659144703E+02  0.00000000000E+00 0. -1.
         11    1    3    3    0    0 -0.29300466760E+02  0.15086132508E+01 -0.18227927648E+02  0.34540564744E+02  0.51100000000E-03 0. -1.
        -11    1    3    3    0    0 -0.66300721822E+01  0.98863213642E+00  0.10759116740E+01  0.67891705556E+01  0.51100000000E-03 0.  1.
         12    1    3    3    0    0  0.31974479230E+01  0.70225292333E+01 -0.50084147865E+01  0.91991199974E+01  0.00000000000E+00 0. -1.
</event>
<event>
 7    1  0.6245487E-013  0.5052886E+02  0.7816164E-02  0.1300439E+00
        -11   -1    0    0    0    0  0.00000000000E+00  0.00000000000E+00  0.45593999997E+02  0.45594000000E+02  0.51100000000E-03 0.  1.
         11   -1    0    0    0    0 -0.00000000000E+00 -0.00000000000E+00 -0.45593999997E+02  0.45594000000E+02  0.51100000000E-03 0. -1.
    9900012    2    1    2    0    0 -0.11363947429E+02  0.35343346507E+02  0.16579339194E+02  0.50528856729E+02  0.29999990512E+02 0.  0.
         12    1    1    2    0    0  0.11363947429E+02 -0.35343346507E+02 -0.16579339194E+02  0.40659143271E+02  0.00000000000E+00 0. -1.
         11    1    3    3    0    0 -0.11232830693E+02  0.52532765594E+01 -0.47726870930E-01  0.12400632166E+02  0.51100000000E-03 0.  1.
        -11    1    3    3    0    0  0.57749852864E+01  0.91432382411E+01  0.12374655476E+00  0.10815016138E+02  0.51100000000E-03 0. -1.
        -12    1    3    3    0    0 -0.59061020223E+01  0.20946831706E+02  0.16503319510E+02  0.27313208425E+02  0.00000000000E+00 0.  1.
</event>
<event>
 7    1  0.6245487E-013  0.5052884E+02  0.7816164E-02  0.1300439E+00
        -11   -1    0    0    0    0  0.00000000000E+00  0.00000000000E+00  0.45593999997E+02  0.45594000000E+02  0.51100000000E-03 0. -1.
         11   -1    0    0    0    0 -0.00000000000E+00 -0.00000000000E+00 -0.45593999997E+02  0.45594000000E+02  0.51100000000E-03 0.  1.
    9900012    2    1    2    0    0 -0.30566795966E+02  0.25893288050E+02 -0.69552815829E+01  0.50528839611E+02  0.29999938482E+02 0.  0.
         12    1    1    2    0    0  0.30566795966E+02 -0.25893288050E+02  0.69552815829E+01  0.40659160389E+02  0.00000000000E+00 0. -1.
         11    1    3    3    0    0  0.16728724271E+01  0.50036036537E+01 -0.64425850825E+01  0.83271516431E+01  0.51100000000E-03 0. -1.
        -11    1    3    3    0    0 -0.59518607562E+01  0.13226651663E+02  0.22623530994E+01  0.14679482365E+02  0.51100000000E-03 0.  1.
         12    1    3    3    0    0 -0.26287807636E+02  0.76630327326E+01 -0.27750495998E+01  0.27522205603E+02  0.00000000000E+00 0. -1.
</event>
<event>
 7    1  0.6245487E-013  0.5052885E+02  0.7816164E-02  0.1300439E+00
        -11   -1    0    0    0    0  0.00000000000E+00  0.00000000000E+00  0.45593999997E+02  0.45594000000E+02  0.51100000000E-03 0.  1.
         11   -1    0    0    0    0 -0.00000000000E+00 -0.00000000000E+00 -0.45593999997E+02  0.45594000000E+02  0.51100000000E-03 0. -1.
    9900012    2    1    2    0    0 -0.28066547660E+02 -0.20308854593E+02  0.21283471251E+02  0.50528845792E+02  0.29999957270E+02 0.  0.
         12    1    1    2    0    0  0.28066547660E+02  0.20308854593E+02 -0.21283471251E+02  0.40659154208E+02  0.00000000000E+00 0. -1.
         11    1    3    3    0    0  0.19748505896E+01 -0.52187393311E+01  0.39584303483E+01  0.68413775032E+01  0.51100000000E-03 0. -1.
        -11    1    3    3    0    0 -0.13948118809E+02 -0.18590449638E+02  0.70981613664E+01  0.24301002676E+02  0.51100000000E-03 0.  1.
        -12    1    3    3    0    0 -0.16093279441E+02  0.35003343758E+01  0.10226879536E+02  0.19386465612E+02  0.00000000000E+00 0.  1.
</event>
<event>
 7    1  0.6245487E-013  0.5052885E+02  0.7816164E-02  0.1300439E+00
        -11   -1    0    0    0    0  0.00000000000E+00  0.00000000000E+00  0.45593999997E+02  0.45594000000E+02  0.51100000000E-03 0.  1.
         11   -1    0    0    0    0 -0.00000000000E+00 -0.00000000000E+00 -0.45593999997E+02  0.45594000000E+02  0.51100000000E-03 0. -1.
    9900012    2    1    2    0    0  0.11051680644E+02  0.40567948743E+01  0.38917463969E+02  0.50528853041E+02  0.29999979303E+02 0.  0.
         12    1    1    2    0    0 -0.11051680644E+02 -0.40567948743E+01 -0.38917463969E+02  0.40659146959E+02  0.00000000000E+00 0. -1.
         11    1    3    3    0    0  0.45438082843E+01 -0.61518288934E+01  0.13801930373E+01  0.77714944212E+01  0.51100000000E-03 0. -1.
        -11    1    3    3    0    0 -0.38816195389E+01  0.25828410358E+01  0.22236510179E+01  0.51655263209E+01  0.51100000000E-03 0.  1.
        -12    1    3    3    0    0  0.10389491898E+02  0.76257827319E+01  0.35313619913E+02  0.37591832299E+02  0.00000000000E+00 0.  1.
</event>
<event>
 7    1  0.6245487E-013  0.5052888E+02  0.7816164E-02  0.1300439E+00
        -11   -1    0    0    0    0  0.00000000000E+00  0.00000000000E+00  0.45593999997E+02  0.45594000000E+02  0.51100000000E-03 0.  1.
         11   -1    0    0    0    0 -0.00000000000E+00 -0.00000000000E+00 -0.45593999997E+02  0.45594000000E+02  0.51100000000E-03 0. -1.
    9900012    2    1    2    0    0  0.33213281402E+02  0.70304896712E+01 -0.22374406246E+02  0.50528881694E+02  0.30000066398E+02 0.  0.
         12    1    1    2    0    0 -0.33213281402E+02 -0.70304896712E+01  0.22374406246E+02  0.40659118306E+02  0.00000000000E+00 0. -1.
         11    1    3    3    0    0 -0.19495269821E+01 -0.31684136640E+01 -0.31954607578E+01  0.49041278854E+01  0.51100000000E-03 0. -1.
        -11    1    3    3    0    0  0.21336843273E+02 -0.26664027943E+01 -0.15177483811E+02  0.26319699843E+02  0.51100000000E-03 0.  1.
         12    1    3    3    0    0  0.13825965111E+02  0.12865306129E+02 -0.40014616770E+01  0.19305053966E+02  0.00000000000E+00 0. -1.
</event>
<event>
 7    1  0.6245487E-013  0.5052886E+02  0.7816164E-02  0.1300439E+00
        -11   -1    0    0    0    0  0.00000000000E+00  0.00000000000E+00  0.45593999997E+02  0.45594000000E+02  0.51100000000E-03 0.  1.
         11   -1    0    0    0    0 -0.00000000000E+00 -0.00000000000E+00 -0.45593999997E+02  0.45594000000E+02  0.51100000000E-03 0. -1.
    9900012    2    1    2    0    0  0.21084921977E+02 -0.14413101357E+02  0.31636286732E+02  0.50528855103E+02  0.29999985572E+02 0.  0.
         12    1    1    2    0    0 -0.21084921977E+02  0.14413101357E+02 -0.31636286732E+02  0.40659144897E+02  0.00000000000E+00 0. -1.
         11    1    3    3    0    0  0.16958608007E+02 -0.33284823767E+01  0.20516855607E+02  0.26825632233E+02  0.51100000000E-03 0. -1.
        -11    1    3    3    0    0  0.64784144712E+01 -0.14688738714E+02  0.10878929688E+02  0.19392782433E+02  0.51100000000E-03 0.  1.
         12    1    3    3    0    0 -0.23521005006E+01  0.36041197338E+01  0.24050143709E+00  0.43104404371E+01  0.00000000000E+00 0. -1.
</event>
<event>
 7    1  0.6245487E-013  0.5052886E+02  0.7816164E-02  0.1300439E+00
        -11   -1    0    0    0    0  0.00000000000E+00  0.00000000000E+00  0.45593999997E+02  0.45594000000E+02  0.51100000000E-03 0. -1.
         11   -1    0    0    0    0 -0.00000000000E+00 -0.00000000000E+00 -0.45593999997E+02  0.45594000000E+02  0.51100000000E-03 0.  1.
    9900012    2    1    2    0    0 -0.28122598784E+02 -0.28776005399E+02 -0.58503480831E+01  0.50528860538E+02  0.30000002091E+02 0.  0.
         12    1    1    2    0    0  0.28122598784E+02  0.28776005399E+02  0.58503480831E+01  0.40659139462E+02  0.00000000000E+00 0. -1.
         11    1    3    3    0    0  0.10271655437E+01 -0.14957589951E+01 -0.17845524762E+01  0.25449934827E+01  0.51100000000E-03 0.  1.
        -11    1    3    3    0    0 -0.29177747310E+02 -0.22768150544E+02  0.54914162558E+01  0.37415040693E+02  0.51100000000E-03 0. -1.
         12    1    3    3    0    0  0.27982982061E-01 -0.45120958599E+01 -0.95572118627E+01  0.10568826363E+02  0.00000000000E+00 0. -1.
</event>
<event>
 7    1  0.6245487E-013  0.5052883E+02  0.7816164E-02  0.1300439E+00
        -11   -1    0    0    0    0  0.00000000000E+00  0.00000000000E+00  0.45593999997E+02  0.45594000000E+02  0.51100000000E-03 0.  1.
         11   -1    0    0    0    0 -0.00000000000E+00 -0.00000000000E+00 -0.45593999997E+02  0.45594000000E+02  0.51100000000E-03 0. -1.
    9900012    2    1    2    0    0  0.25439692485E+02 -0.14168194542E+02  0.28376962968E+02  0.50528834765E+02  0.29999923752E+02 0.  0.
         12    1    1    2    0    0 -0.25439692485E+02  0.14168194542E+02 -0.28376962968E+02  0.40659165235E+02  0.00000000000E+00 0. -1.
         11    1    3    3    0    0  0.65917024026E-01  0.85019894943E+00 -0.41558493376E+01  0.42424364799E+01  0.51100000000E-03 0. -1.
        -11    1    3    3    0    0  0.10713768508E+02 -0.50910250969E+01  0.36532632743E+01  0.12411676156E+02  0.51100000000E-03 0.  1.
        -12    1    3    3    0    0  0.14660006953E+02 -0.99273683948E+01  0.28879549031E+02  0.33874722129E+02  0.00000000000E+00 0.  1.
</event>
<event>
 7    1  0.6245487E-013  0.5052886E+02  0.7816164E-02  0.1300439E+00
        -11   -1    0    0    0    0  0.00000000000E+00  0.00000000000E+00  0.45593999997E+02  0.45594000000E+02  0.51100000000E-03 0.  1.
         11   -1    0    0    0    0 -0.00000000000E+00 -0.00000000000E+00 -0.45593999997E+02  0.45594000000E+02  0.51100000000E-03 0. -1.
    9900012    2    1    2    0    0 -0.13799643090E+02 -0.24832062545E+02  0.29087872834E+02  0.50528858031E+02  0.29999994471E+02 0.  0.
         12    1    1    2    0    0  0.13799643090E+02  0.24832062545E+02 -0.29087872834E+02  0.40659141969E+02  0.00000000000E+00 0. -1.
         11    1    3    3    0    0 -0.16197285509E+02 -0.19154600551E+02  0.27374122853E+02  0.37129413979E+02  0.51100000000E-03 0. -1.
        -11    1    3    3    0    0  0.12082715255E+00 -0.90558595420E+01  0.21314184968E+01  0.93040924498E+01  0.51100000000E-03 0.  1.
         12    1    3    3    0    0  0.22768152668E+01  0.33783975487E+01 -0.41766851581E+00  0.40953516022E+01  0.00000000000E+00 0. -1.
</event>
<event>
 7    1  0.6245487E-013  0.5052886E+02  0.7816164E-02  0.1300439E+00
        -11   -1    0    0    0    0  0.00000000000E+00  0.00000000000E+00  0.45593999997E+02  0.45594000000E+02  0.51100000000E-03 0.  1.
         11   -1    0    0    0    0 -0.00000000000E+00 -0.00000000000E+00 -0.45593999997E+02  0.45594000000E+02  0.51100000000E-03 0. -1.
    9900012    2    1    2    0    0 -0.32879372697E+02  0.35349279425E+01  0.23656221261E+02  0.50528859959E+02  0.30000000333E+02 0.  0.
         12    1    1    2    0    0  0.32879372697E+02 -0.35349279425E+01 -0.23656221261E+02  0.40659140041E+02  0.00000000000E+00 0. -1.
         11    1    3    3    0    0 -0.56836601152E+01 -0.41873648319E+01  0.52013160047E+01  0.87687915349E+01  0.51100000000E-03 0. -1.
        -11    1    3    3    0    0 -0.14784499197E+02  0.42148181609E+01  0.23357141578E+02  0.27962513685E+02  0.51100000000E-03 0.  1.
         12    1    3    3    0    0 -0.12411213384E+02  0.35074746135E+01 -0.49022363216E+01  0.13797554739E+02  0.00000000000E+00 0. -1.
</event>
<event>
 7    1  0.6245487E-013  0.5052886E+02  0.7816164E-02  0.1300439E+00
        -11   -1    0    0    0    0  0.00000000000E+00  0.00000000000E+00  0.45593999997E+02  0.45594000000E+02  0.51100000000E-03 0.  1.
         11   -1    0    0    0    0 -0.00000000000E+00 -0.00000000000E+00 -0.45593999997E+02  0.45594000000E+02  0.51100000000E-03 0. -1.
    9900012    2    1    2    0    0 -0.33494145572E+01  0.12502981534E+02  0.38543776097E+02  0.50528858335E+02  0.29999995395E+02 0.  0.
         12    1    1    2    0    0  0.33494145572E+01 -0.12502981534E+02 -0.38543776097E+02  0.40659141665E+02  0.00000000000E+00 0. -1.
         11    1    3    3    0    0  0.12973505436E+00 -0.15076434562E+01 -0.13333282034E+00  0.15190779695E+01  0.51100000000E-03 0. -1.
        -11    1    3    3    0    0  0.10599150797E+02  0.84951487336E+01  0.25765949054E+02  0.29127198296E+02  0.51100000000E-03 0.  1.
        -12    1    3    3    0    0 -0.14078300409E+02  0.55154762564E+01  0.12911159864E+02  0.19882582070E+02  0.00000000000E+00 0.  1.
</event>
<event>
 7    1  0.6245487E-013  0.5052886E+02  0.7816164E-02  0.1300439E+00
        -11   -1    0    0    0    0  0.00000000000E+00  0.00000000000E+00  0.45593999997E+02  0.45594000000E+02  0.51100000000E-03 0.  1.
         11   -1    0    0    0    0 -0.00000000000E+00 -0.00000000000E+00 -0.45593999997E+02  0.45594000000E+02  0.51100000000E-03 0. -1.
    9900012    2    1    2    0    0  0.13698871456E+02  0.20122770454E+02  0.32566557198E+02  0.50528860589E+02  0.30000002246E+02 0.  0.
         12    1    1    2    0    0 -0.13698871456E+02 -0.20122770454E+02 -0.32566557198E+02  0.40659139411E+02  0.00000000000E+00 0. -1.
         11    1    3    3    0    0  0.54870510719E+01 -0.21342507088E+01  0.84625582604E+01  0.10309105108E+02  0.51100000000E-03 0.  1.
        -11    1    3    3    0    0  0.87260688857E+00  0.16956317442E+02  0.29810775432E+01  0.17238473469E+02  0.51100000000E-03 0. -1.
         12    1    3    3    0    0  0.73392134958E+01  0.53007037208E+01  0.21122921394E+02  0.22981282012E+02  0.00000000000E+00 0. -1.
</event>
<event>
 7    1  0.6245487E-013  0.5052886E+02  0.7816164E-02  0.1300439E+00
        -11   -1    0    0    0    0  0.00000000000E+00  0.00000000000E+00  0.45593999997E+02  0.45594000000E+02  0.51100000000E-03 0. -1.
         11   -1    0    0    0    0 -0.00000000000E+00 -0.00000000000E+00 -0.45593999997E+02  0.45594000000E+02  0.51100000000E-03 0.  1.
    9900012    2    1    2    0    0 -0.22794573258E+02 -0.33648306940E+02 -0.11680414978E+01  0.50528862640E+02  0.30000008479E+02 0.  0.
         12    1    1    2    0    0  0.22794573258E+02  0.33648306940E+02  0.11680414978E+01  0.40659137360E+02  0.00000000000E+00 0. -1.
         11    1    3    3    0    0 -0.14276441579E+01 -0.18372492843E+01  0.25680637261E+01  0.34653433216E+01  0.51100000000E-03 0. -1.
        -11    1    3    3    0    0 -0.18066119230E+02 -0.12845699123E+02 -0.13001934047E+02  0.25699162228E+02  0.51100000000E-03 0.  1.
        -12    1    3    3    0    0 -0.33008098698E+01 -0.18965358533E+02  0.92658288234E+01  0.21364357090E+02  0.00000000000E+00 0.  1.
</event>
<event>
 7    1  0.6245487E-013  0.5052886E+02  0.7816164E-02  0.1300439E+00
        -11   -1    0    0    0    0  0.00000000000E+00  0.00000000000E+00  0.45593999997E+02  0.45594000000E+02  0.51100000000E-03 0.  1.
         11   -1    0    0    0    0 -0.00000000000E+00 -0.00000000000E+00 -0.45593999997E+02  0.45594000000E+02  0.51100000000E-03 0. -1.
    9900012    2    1    2    0    0  0.17878465301E+02  0.19810959447E+02  0.30676566381E+02  0.50528863749E+02  0.30000011851E+02 0.  0.
         12    1    1    2    0    0 -0.17878465301E+02 -0.19810959447E+02 -0.30676566381E+02  0.40659136251E+02  0.00000000000E+00 0. -1.
         11    1    3    3    0    0 -0.19068524606E+01  0.18645117814E+01 -0.32367184240E+01  0.41939047327E+01  0.51100000000E-03 0. -1.
        -11    1    3    3    0    0  0.19520366086E+01  0.12316287378E+02  0.17263160372E+02  0.21295964124E+02  0.51100000000E-03 0.  1.
         12    1    3    3    0    0  0.17833281153E+02  0.56301602884E+01  0.16650124434E+02  0.25038994892E+02  0.00000000000E+00 0. -1.
</event>
<event>
 7    1  0.6245487E-013  0.5052886E+02  0.7816164E-02  0.1300439E+00
        -11   -1    0    0    0    0  0.00000000000E+00  0.00000000000E+00  0.45593999997E+02  0.45594000000E+02  0.51100000000E-03 0.  1.
         11   -1    0    0    0    0 -0.00000000000E+00 -0.00000000000E+00 -0.45593999997E+02  0.45594000000E+02  0.51100000000E-03 0. -1.
    9900012    2    1    2    0    0 -0.32980078476E+02  0.21294961865E+02  0.10583229682E+02  0.50528859237E+02  0.29999998136E+02 0.  0.
         12    1    1    2    0    0  0.32980078476E+02 -0.21294961865E+02 -0.10583229682E+02  0.40659140763E+02  0.00000000000E+00 0. -1.
         11    1    3    3    0    0 -0.19781973850E+02  0.11040984320E+02  0.93409482373E+01  0.24504757464E+02  0.51100000000E-03 0. -1.
        -11    1    3    3    0    0 -0.12790985050E+02 -0.21114955172E+01 -0.22738453104E+01  0.13161993945E+02  0.51100000000E-03 0.  1.
         12    1    3    3    0    0 -0.40711957612E+00  0.12365473062E+02  0.35161267549E+01  0.12862107827E+02  0.00000000000E+00 0. -1.
</event>
<event>
 7    1  0.6245487E-013  0.5052886E+02  0.7816164E-02  0.1300439E+00
        -11   -1    0    0    0    0  0.00000000000E+00  0.00000000000E+00  0.45593999997E+02  0.45594000000E+02  0.51100000000E-03 0.  1.
         11   -1    0    0    0    0 -0.00000000000E+00 -0.00000000000E+00 -0.45593999997E+02  0.45594000000E+02  0.51100000000E-03 0. -1.
    9900012    2    1    2    0    0  0.73190194502E+01  0.94400538592E+01  0.38864935812E+02  0.50528857139E+02  0.29999991758E+02 0.  0.
         12    1    1    2    0    0 -0.73190194502E+01 -0.94400538592E+01 -0.38864935812E+02  0.40659142861E+02  0.00000000000E+00 0. -1.
         11    1    3    3    0    0 -0.38259896888E+01  0.58480357741E+01  0.10476433168E+02  0.12593386030E+02  0.51100000000E-03 0. -1.
        -11    1    3    3    0    0  0.11145876009E+02  0.18107563145E+01  0.31986239818E+02  0.33920921692E+02  0.51100000000E-03 0.  1.
         12    1    3    3    0    0 -0.86687031111E-03  0.17812617706E+01 -0.35977371743E+01  0.40145494171E+01  0.00000000000E+00 0. -1.
</event>
<event>
 7    1  0.6245487E-013  0.5052885E+02  0.7816164E-02  0.1300439E+00
        -11   -1    0    0    0    0  0.00000000000E+00  0.00000000000E+00  0.45593999997E+02  0.45594000000E+02  0.51100000000E-03 0.  1.
         11   -1    0    0    0    0 -0.00000000000E+00 -0.00000000000E+00 -0.45593999997E+02  0.45594000000E+02  0.51100000000E-03 0. -1.
    9900012    2    1    2    0    0 -0.26559713820E+02 -0.88164957284E+01  0.29496056084E+02  0.50528851956E+02  0.29999976005E+02 0.  0.
         12    1    1    2    0    0  0.26559713820E+02  0.88164957284E+01 -0.29496056084E+02  0.40659148044E+02  0.00000000000E+00 0. -1.
         11    1    3    3    0    0  0.28883107394E+01 -0.26875301121E+00  0.59996372247E+01  0.66640989036E+01  0.51100000000E-03 0. -1.
        -11    1    3    3    0    0 -0.23567079599E+02 -0.72865655288E+01  0.27264249942E+02  0.36767385047E+02  0.51100000000E-03 0.  1.
         12    1    3    3    0    0 -0.58809449605E+01 -0.12611771884E+01 -0.37678310825E+01  0.70973680047E+01  0.00000000000E+00 0. -1.
</event>
<event>
 7    1  0.6245487E-013  0.5052883E+02  0.7816164E-02  0.1300439E+00
        -11   -1    0    0    0    0  0.00000000000E+00  0.00000000000E+00  0.45593999997E+02  0.45594000000E+02  0.51100000000E-03 0. -1.
         11   -1    0    0    0    0 -0.00000000000E+00 -0.00000000000E+00 -0.45593999997E+02  0.45594000000E+02  0.51100000000E-03 0.  1.
    9900012    2    1    2    0    0 -0.74655357602E+01 -0.22418650246E+02 -0.33088332625E+02  0.50528833027E+02  0.29999918470E+02 0.  0.
         12    1    1    2    0    0  0.74655357602E+01  0.22418650246E+02  0.33088332625E+02  0.40659166973E+02  0.00000000000E+00 0. -1.
         11    1    3    3    0    0 -0.59292949406E+01 -0.27229549688E+01 -0.26298225276E+01  0.70346989304E+01  0.51100000000E-03 0. -1.
        -11    1    3    3    0    0  0.55922880772E+01 -0.43591836791E+01  0.15812236267E+01  0.72647392731E+01  0.51100000000E-03 0.  1.
         12    1    3    3    0    0 -0.71285288968E+01 -0.15336511598E+02 -0.32039733724E+02  0.36229394824E+02  0.00000000000E+00 0. -1.
</event>
<event>
 7    1  0.6245487E-013  0.5052886E+02  0.7816164E-02  0.1300439E+00
        -11   -1    0    0    0    0  0.00000000000E+00  0.00000000000E+00  0.45593999997E+02  0.45594000000E+02  0.51100000000E-03 0.  1.
         11   -1    0    0    0    0 -0.00000000000E+00 -0.00000000000E+00 -0.45593999997E+02  0.45594000000E+02  0.51100000000E-03 0. -1.
    9900012    2    1    2    0    0  0.82528066694E+01  0.15473224688E+02  0.36682912760E+02  0.50528860945E+02  0.30000003328E+02 0.  0.
         12    1    1    2    0    0 -0.82528066694E+01 -0.15473224688E+02 -0.36682912760E+02  0.40659139055E+02  0.00000000000E+00 0. -1.
         11    1    3    3    0    0  0.32443524600E+01  0.71558172929E+01 -0.98862323980E+00  0.79188963995E+01  0.51100000000E-03 0. -1.
        -11    1    3    3    0    0  0.70747813381E+01  0.39262619430E+01  0.48539989929E+01  0.94355376271E+01  0.51100000000E-03 0.  1.
         12    1    3    3    0    0 -0.20663271287E+01  0.43911454520E+01  0.32817537007E+02  0.33174426918E+02  0.00000000000E+00 0. -1.
</event>
<event>
 7    1  0.6245487E-013  0.5052885E+02  0.7816164E-02  0.1300439E+00
        -11   -1    0    0    0    0  0.00000000000E+00  0.00000000000E+00  0.45593999997E+02  0.45594000000E+02  0.51100000000E-03 0.  1.
         11   -1    0    0    0    0 -0.00000000000E+00 -0.00000000000E+00 -0.45593999997E+02  0.45594000000E+02  0.51100000000E-03 0. -1.
    9900012    2    1    2    0    0  0.34146313966E+02 -0.96375151128E+01  0.19857331926E+02  0.50528854827E+02  0.29999984732E+02 0.  0.
         12    1    1    2    0    0 -0.34146313966E+02  0.96375151128E+01 -0.19857331926E+02  0.40659145173E+02  0.00000000000E+00 0. -1.
         11    1    3    3    0    0  0.13066831967E+02 -0.54631379352E+01 -0.29327747799E+01  0.14463372426E+02  0.51100000000E-03 0. -1.
        -11    1    3    3    0    0  0.21105470999E+02 -0.62875668721E+01  0.12017906083E+02  0.25087934753E+02  0.51100000000E-03 0.  1.
         12    1    3    3    0    0 -0.25989000860E-01  0.21131896945E+01  0.10772200623E+02  0.10977547648E+02  0.00000000000E+00 0. -1.
</event>
<event>
 7    1  0.6245487E-013  0.5052886E+02  0.7816164E-02  0.1300439E+00
        -11   -1    0    0    0    0  0.00000000000E+00  0.00000000000E+00  0.45593999997E+02  0.45594000000E+02  0.51100000000E-03 0. -1.
         11   -1    0    0    0    0 -0.00000000000E+00 -0.00000000000E+00 -0.45593999997E+02  0.45594000000E+02  0.51100000000E-03 0.  1.
    9900012    2    1    2    0    0  0.35600642331E+02  0.10412797626E+02 -0.16653334440E+02  0.50528860354E+02  0.30000001533E+02 0.  0.
         12    1    1    2    0    0 -0.35600642331E+02 -0.10412797626E+02  0.16653334440E+02  0.40659139646E+02  0.00000000000E+00 0. -1.
         11    1    3    3    0    0  0.91949570190E+01 -0.46592306228E+01 -0.22622880600E+01  0.10553369704E+02  0.51100000000E-03 0. -1.
        -11    1    3    3    0    0  0.24672326452E+02  0.42215598811E+01 -0.14614870322E+02  0.28985163363E+02  0.51100000000E-03 0.  1.
        -12    1    3    3    0    0  0.17333588602E+01  0.10850468367E+02  0.22382394279E+00  0.10990327288E+02  0.00000000000E+00 0.  1.
</event>
<event>
 7    1  0.6245487E-013  0.5052886E+02  0.7816164E-02  0.1300439E+00
        -11   -1    0    0    0    0  0.00000000000E+00  0.00000000000E+00  0.45593999997E+02  0.45594000000E+02  0.51100000000E-03 0. -1.
         11   -1    0    0    0    0 -0.00000000000E+00 -0.00000000000E+00 -0.45593999997E+02  0.45594000000E+02  0.51100000000E-03 0.  1.
    9900012    2    1    2    0    0  0.10277366148E+02 -0.29162259695E+02 -0.26402722025E+02  0.50528863563E+02  0.30000011287E+02 0.  0.
         12    1    1    2    0    0 -0.10277366148E+02  0.29162259695E+02  0.26402722025E+02  0.40659136437E+02  0.00000000000E+00 0. -1.
         11    1    3    3    0    0  0.79547828713E+01 -0.36842560276E+01 -0.92287284412E+01  0.12728776136E+02  0.51100000000E-03 0. -1.
        -11    1    3    3    0    0  0.11657329949E+02 -0.14087967637E+02 -0.13183139729E+02  0.22542390003E+02  0.51100000000E-03 0.  1.
         12    1    3    3    0    0 -0.93347466726E+01 -0.11390036030E+02 -0.39908538547E+01  0.15257697425E+02  0.00000000000E+00 0. -1.
</event>
<event>
 7    1  0.6245487E-013  0.5052885E+02  0.7816164E-02  0.1300439E+00
        -11   -1    0    0    0    0  0.00000000000E+00  0.00000000000E+00  0.45593999997E+02  0.45594000000E+02  0.51100000000E-03 0.  1.
         11   -1    0    0    0    0 -0.00000000000E+00 -0.00000000000E+00 -0.45593999997E+02  0.45594000000E+02  0.51100000000E-03 0. -1.
    9900012    2    1    2    0    0  0.25617355881E+02  0.11304440699E+02  0.29480959692E+02  0.50528852367E+02  0.29999977254E+02 0.  0.
         12    1    1    2    0    0 -0.25617355881E+02 -0.11304440699E+02 -0.29480959692E+02  0.40659147633E+02  0.00000000000E+00 0. -1.
         11    1    3    3    0    0  0.94104445010E+01  0.29615431656E+01 -0.26645976365E+01  0.10218966898E+02  0.51100000000E-03 0. -1.
        -11    1    3    3    0    0  0.10057828614E+02  0.10994508785E+02  0.12161935337E+02  0.19234131414E+02  0.51100000000E-03 0.  1.
         12    1    3    3    0    0  0.61490827663E+01 -0.26516112515E+01  0.19983621991E+02  0.21075754055E+02  0.00000000000E+00 0. -1.
</event>
<event>
 7    1  0.6245487E-013  0.5052887E+02  0.7816164E-02  0.1300439E+00
        -11   -1    0    0    0    0  0.00000000000E+00  0.00000000000E+00  0.45593999997E+02  0.45594000000E+02  0.51100000000E-03 0.  1.
         11   -1    0    0    0    0 -0.00000000000E+00 -0.00000000000E+00 -0.45593999997E+02  0.45594000000E+02  0.51100000000E-03 0. -1.
    9900012    2    1    2    0    0 -0.15762034531E+00  0.34476280246E+02  0.21552876224E+02  0.50528865512E+02  0.30000017211E+02 0.  0.
         12    1    1    2    0    0  0.15762034531E+00 -0.34476280246E+02 -0.21552876224E+02  0.40659134488E+02  0.00000000000E+00 0. -1.
         11    1    3    3    0    0  0.31122192564E+01  0.47873330397E+01  0.73940909090E+01  0.93422185247E+01  0.51100000000E-03 0. -1.
        -11    1    3    3    0    0 -0.63053583561E+01 -0.12873486666E+01  0.64716973618E+01  0.91267561374E+01  0.51100000000E-03 0.  1.
        -12    1    3    3    0    0  0.30355187544E+01  0.30976295873E+02  0.76870879528E+01  0.32059890850E+02  0.00000000000E+00 0.  1.
</event>
<event>
 7    1  0.6245487E-013  0.5052886E+02  0.7816164E-02  0.1300439E+00
        -11   -1    0    0    0    0  0.00000000000E+00  0.00000000000E+00  0.45593999997E+02  0.45594000000E+02  0.51100000000E-03 0.  1.
         11   -1    0    0    0    0 -0.00000000000E+00 -0.00000000000E+00 -0.45593999997E+02  0.45594000000E+02  0.51100000000E-03 0. -1.
    9900012    2    1    2    0    0  0.15107459409E+02 -0.26019550075E+02  0.27347998427E+02  0.50528864079E+02  0.30000012853E+02 0.  0.
         12    1    1    2    0    0 -0.15107459409E+02  0.26019550075E+02 -0.27347998427E+02  0.40659135921E+02  0.00000000000E+00 0. -1.
         11    1    3    3    0    0 -0.29524819697E+01 -0.85181075931E+01  0.10129021353E+02  0.13559955036E+02  0.51100000000E-03 0. -1.
        -11    1    3    3    0    0  0.10180144354E+02 -0.21288117358E+02  0.14959117679E+02  0.27939120991E+02  0.51100000000E-03 0.  1.
        -12    1    3    3    0    0  0.78797970248E+01  0.37866748767E+01  0.22598593953E+01  0.90297880519E+01  0.00000000000E+00 0.  1.
</event>
<event>
 7    1  0.6245487E-013  0.5052887E+02  0.7816164E-02  0.1300439E+00
        -11   -1    0    0    0    0  0.00000000000E+00  0.00000000000E+00  0.45593999997E+02  0.45594000000E+02  0.51100000000E-03 0.  1.
         11   -1    0    0    0    0 -0.00000000000E+00 -0.00000000000E+00 -0.45593999997E+02  0.45594000000E+02  0.51100000000E-03 0. -1.
    9900012    2    1    2    0    0 -0.19431028958E+02  0.24245654212E+02  0.26224958399E+02  0.50528867230E+02  0.30000022432E+02 0.  0.
         12    1    1    2    0    0  0.19431028958E+02 -0.24245654212E+02 -0.26224958399E+02  0.40659132770E+02  0.00000000000E+00 0. -1.
         11    1    3    3    0    0  0.18695667687E+01  0.71923419984E+01 -0.44375686210E+00  0.74445942628E+01  0.51100000000E-03 0. -1.
        -11    1    3    3    0    0 -0.13140862857E+02  0.13545405625E+02  0.47887378511E+01  0.19470292773E+02  0.51100000000E-03 0.  1.
         12    1    3    3    0    0 -0.81597328697E+01  0.35079065889E+01  0.21879977410E+02  0.23613980194E+02  0.00000000000E+00 0. -1.
</event>
<event>
 7    1  0.6245487E-013  0.5052900E+02  0.7816164E-02  0.1300438E+00
        -11   -1    0    0    0    0  0.00000000000E+00  0.00000000000E+00  0.45593999997E+02  0.45594000000E+02  0.51100000000E-03 0.  1.
         11   -1    0    0    0    0 -0.00000000000E+00 -0.00000000000E+00 -0.45593999997E+02  0.45594000000E+02  0.51100000000E-03 0. -1.
    9900012    2    1    2    0    0  0.22734397218E+02 -0.33620678671E+02  0.24394726532E+01  0.50529004956E+02  0.30000441061E+02 0.  0.
         12    1    1    2    0    0 -0.22734397218E+02  0.33620678671E+02 -0.24394726532E+01  0.40658995044E+02  0.00000000000E+00 0. -1.
         11    1    3    3    0    0  0.12362768809E+02 -0.74438235760E+01 -0.69154069092E+01  0.16002231564E+02  0.51100000000E-03 0. -1.
        -11    1    3    3    0    0  0.53474436488E+01 -0.10619652450E+02 -0.48771874848E+01  0.12851425203E+02  0.51100000000E-03 0.  1.
         12    1    3    3    0    0  0.50241847602E+01 -0.15557202645E+02  0.14232067047E+02  0.21675348188E+02  0.00000000000E+00 0. -1.
</event>
<event>
 7    1  0.6245487E-013  0.5052895E+02  0.7816164E-02  0.1300438E+00
        -11   -1    0    0    0    0  0.00000000000E+00  0.00000000000E+00  0.45593999997E+02  0.45594000000E+02  0.51100000000E-03 0.  1.
         11   -1    0    0    0    0 -0.00000000000E+00 -0.00000000000E+00 -0.45593999997E+02  0.45594000000E+02  0.51100000000E-03 0. -1.
    9900012    2    1    2    0    0 -0.34001203955E+01  0.85480634032E+01  0.39604652212E+02  0.50528945861E+02  0.30000261438E+02 0.  0.
         12    1    1    2    0    0  0.34001203955E+01 -0.85480634032E+01 -0.39604652212E+02  0.40659054139E+02  0.00000000000E+00 0. -1.
         11    1    3    3    0    0 -0.36103189254E+01 -0.59146814249E+00 -0.95750009650E+00  0.37816721173E+01  0.51100000000E-03 0. -1.
        -11    1    3    3    0    0 -0.64589783993E+01  0.48588494062E+01  0.34322286299E+01  0.87810599100E+01  0.51100000000E-03 0.  1.
        -12    1    3    3    0    0  0.66691769293E+01  0.42806821395E+01  0.37129923679E+02  0.37966213834E+02  0.00000000000E+00 0.  1.
</event>
<event>
 7    1  0.6245487E-013  0.5052881E+02  0.7816164E-02  0.1300439E+00
        -11   -1    0    0    0    0  0.00000000000E+00  0.00000000000E+00  0.45593999997E+02  0.45594000000E+02  0.51100000000E-03 0. -1.
         11   -1    0    0    0    0 -0.00000000000E+00 -0.00000000000E+00 -0.45593999997E+02  0.45594000000E+02  0.51100000000E-03 0.  1.
    9900012    2    1    2    0    0  0.27135460267E+01  0.33998328093E+02 -0.22134130646E+02  0.50528814265E+02  0.29999861441E+02 0.  0.
         12    1    1    2    0    0 -0.27135460267E+01 -0.33998328093E+02  0.22134130646E+02  0.40659185735E+02  0.00000000000E+00 0. -1.
         11    1    3    3    0    0 -0.32511018480E+01  0.46801415607E+01  0.27951201434E+01  0.63471320399E+01  0.51100000000E-03 0. -1.
        -11    1    3    3    0    0  0.10772361429E+02  0.11713413311E+02 -0.39908679104E+01  0.16406548970E+02  0.51100000000E-03 0.  1.
        -12    1    3    3    0    0 -0.48077135546E+01  0.17604773221E+02 -0.20938382879E+02  0.27775133256E+02  0.00000000000E+00 0.  1.
</event>
<event>
 7    1  0.6245487E-013  0.5052888E+02  0.7816164E-02  0.1300439E+00
        -11   -1    0    0    0    0  0.00000000000E+00  0.00000000000E+00  0.45593999997E+02  0.45594000000E+02  0.51100000000E-03 0.  1.
         11   -1    0    0    0    0 -0.00000000000E+00 -0.00000000000E+00 -0.45593999997E+02  0.45594000000E+02  0.51100000000E-03 0. -1.
    9900012    2    1    2    0    0 -0.78819014457E+01 -0.14875985215E+01  0.39860089817E+02  0.50528879498E+02  0.30000059723E+02 0.  0.
         12    1    1    2    0    0  0.78819014457E+01  0.14875985215E+01 -0.39860089817E+02  0.40659120502E+02  0.00000000000E+00 0. -1.
         11    1    3    3    0    0 -0.88733419813E+00  0.43895045103E+01 -0.46720434771E+00  0.45025983597E+01  0.51100000000E-03 0. -1.
        -11    1    3    3    0    0 -0.83973143552E+01  0.59271806906E+01  0.17773532945E+02  0.20531557002E+02  0.51100000000E-03 0.  1.
         12    1    3    3    0    0  0.14027471076E+01 -0.11804283722E+02  0.22553761220E+02  0.25494724137E+02  0.00000000000E+00 0. -1.
</event>
<event>
 7    1  0.6245487E-013  0.5052886E+02  0.7816164E-02  0.1300439E+00
        -11   -1    0    0    0    0  0.00000000000E+00  0.00000000000E+00  0.45593999997E+02  0.45594000000E+02  0.51100000000E-03 0.  1.
         11   -1    0    0    0    0 -0.00000000000E+00 -0.00000000000E+00 -0.45593999997E+02  0.45594000000E+02  0.51100000000E-03 0. -1.
    9900012    2    1    2    0    0 -0.36014674397E+02  0.83557768833E+01  0.16920097265E+02  0.50528862396E+02  0.30000007738E+02 0.  0.
         12    1    1    2    0    0  0.36014674397E+02 -0.83557768833E+01 -0.16920097265E+02  0.40659137604E+02  0.00000000000E+00 0. -1.
         11    1    3    3    0    0  0.20705087671E+01  0.39281645583E+01  0.85653270639E+01  0.96479174605E+01  0.51100000000E-03 0. -1.
        -11    1    3    3    0    0 -0.22507336107E+02  0.31881297079E-01 -0.33462026259E+00  0.22509845980E+02  0.51100000000E-03 0.  1.
        -12    1    3    3    0    0 -0.15577847057E+02  0.43957310278E+01  0.86893904632E+01  0.18371098956E+02  0.00000000000E+00 0.  1.
</event>
<event>
 7    1  0.6245487E-013  0.5052886E+02  0.7816164E-02  0.1300439E+00
        -11   -1    0    0    0    0  0.00000000000E+00  0.00000000000E+00  0.45593999997E+02  0.45594000000E+02  0.51100000000E-03 0. -1.
         11   -1    0    0    0    0 -0.00000000000E+00 -0.00000000000E+00 -0.45593999997E+02  0.45594000000E+02  0.51100000000E-03 0.  1.
    9900012    2    1    2    0    0 -0.27693631253E+02 -0.19492322558E+01 -0.29705707554E+02  0.50528858596E+02  0.29999996189E+02 0.  0.
         12    1    1    2    0    0  0.27693631253E+02  0.19492322558E+01  0.29705707554E+02  0.40659141404E+02  0.00000000000E+00 0. -1.
         11    1    3    3    0    0 -0.13022932368E+02 -0.35035501925E+01  0.35828025119E+00  0.13490737430E+02  0.51100000000E-03 0. -1.
        -11    1    3    3    0    0 -0.55110890499E+01  0.60299542414E+01 -0.40911606730E+01  0.91361943162E+01  0.51100000000E-03 0.  1.
         12    1    3    3    0    0 -0.91596098353E+01 -0.44756363048E+01 -0.25972827133E+02  0.27901926850E+02  0.00000000000E+00 0. -1.
</event>
<event>
 7    1  0.6245487E-013  0.5052888E+02  0.7816164E-02  0.1300439E+00
        -11   -1    0    0    0    0  0.00000000000E+00  0.00000000000E+00  0.45593999997E+02  0.45594000000E+02  0.51100000000E-03 0.  1.
         11   -1    0    0    0    0 -0.00000000000E+00 -0.00000000000E+00 -0.45593999997E+02  0.45594000000E+02  0.51100000000E-03 0. -1.
    9900012    2    1    2    0    0  0.26983107975E+02 -0.17378309849E+02  0.24961379016E+02  0.50528877880E+02  0.30000054803E+02 0.  0.
         12    1    1    2    0    0 -0.26983107975E+02  0.17378309849E+02 -0.24961379016E+02  0.40659122120E+02  0.00000000000E+00 0. -1.
         11    1    3    3    0    0  0.90060500450E+01 -0.46223715154E+00  0.11839612003E+02  0.14882842916E+02  0.51100000000E-03 0. -1.
        -11    1    3    3    0    0  0.21616783700E+02 -0.94172955618E+01  0.51976158737E+01  0.24145103112E+02  0.51100000000E-03 0.  1.
         12    1    3    3    0    0 -0.36397257698E+01 -0.74987771356E+01  0.79241511388E+01  0.11500931853E+02  0.00000000000E+00 0. -1.
</event>
<event>
 7    1  0.6245487E-013  0.5052886E+02  0.7816164E-02  0.1300439E+00
        -11   -1    0    0    0    0  0.00000000000E+00  0.00000000000E+00  0.45593999997E+02  0.45594000000E+02  0.51100000000E-03 0.  1.
         11   -1    0    0    0    0 -0.00000000000E+00 -0.00000000000E+00 -0.45593999997E+02  0.45594000000E+02  0.51100000000E-03 0. -1.
    9900012    2    1    2    0    0  0.13479382367E+02  0.32879053052E+02  0.19759557243E+02  0.50528856120E+02  0.29999988662E+02 0.  0.
         12    1    1    2    0    0 -0.13479382367E+02 -0.32879053052E+02 -0.19759557243E+02  0.40659143880E+02  0.00000000000E+00 0. -1.
         11    1    3    3    0    0  0.38590181761E+01 -0.17314026370E+00  0.11402229409E+01  0.40276677433E+01  0.51100000000E-03 0. -1.
        -11    1    3    3    0    0  0.14239324282E+02  0.29646481526E+02  0.22252043018E+02  0.39709263927E+02  0.51100000000E-03 0.  1.
         12    1    3    3    0    0 -0.46189600905E+01  0.34057117896E+01 -0.36327087159E+01  0.67919244494E+01  0.00000000000E+00 0. -1.
</event>
<event>
 7    1  0.6245487E-013  0.5052886E+02  0.7816164E-02  0.1300439E+00
        -11   -1    0    0    0    0  0.00000000000E+00  0.00000000000E+00  0.45593999997E+02  0.45594000000E+02  0.51100000000E-03 0.  1.
         11   -1    0    0    0    0 -0.00000000000E+00 -0.00000000000E+00 -0.45593999997E+02  0.45594000000E+02  0.51100000000E-03 0. -1.
    9900012    2    1    2    0    0 -0.37129419668E+01 -0.33863937355E+02  0.22194894130E+02  0.50528861831E+02  0.30000006021E+02 0.  0.
         12    1    1    2    0    0  0.37129419668E+01  0.33863937355E+02 -0.22194894130E+02  0.40659138169E+02  0.00000000000E+00 0. -1.
         11    1    3    3    0    0  0.30170508787E+01  0.26446665308E+01  0.13462692551E+01  0.42319378814E+01  0.51100000000E-03 0. -1.
        -11    1    3    3    0    0  0.22648525112E+00 -0.89212262022E+01  0.14688148710E+02  0.17186660098E+02  0.51100000000E-03 0.  1.
        -12    1    3    3    0    0 -0.69564780966E+01 -0.27587377683E+02  0.61604761647E+01  0.29110263852E+02  0.00000000000E+00 0.  1.
</event>
<event>
 7    1  0.6245487E-013  0.5052886E+02  0.7816164E-02  0.1300439E+00
        -11   -1    0    0    0    0  0.00000000000E+00  0.00000000000E+00  0.45593999997E+02  0.45594000000E+02  0.51100000000E-03 0.  1.
         11   -1    0    0    0    0 -0.00000000000E+00 -0.00000000000E+00 -0.45593999997E+02  0.45594000000E+02  0.51100000000E-03 0. -1.
    9900012    2    1    2    0    0  0.23254087222E+02  0.43467871668E+01  0.33068391591E+02  0.50528860147E+02  0.30000000903E+02 0.  0.
         12    1    1    2    0    0 -0.23254087222E+02 -0.43467871668E+01 -0.33068391591E+02  0.40659139853E+02  0.00000000000E+00 0. -1.
         11    1    3    3    0    0  0.14173269430E+02  0.57756515785E+01  0.20987029807E+02  0.25974894377E+02  0.51100000000E-03 0. -1.
        -11    1    3    3    0    0  0.12737067561E+02 -0.55019671706E+01  0.12989056104E+02  0.19005791527E+02  0.51100000000E-03 0.  1.
         12    1    3    3    0    0 -0.36562497696E+01  0.40731027588E+01 -0.90769432080E+00  0.55481742440E+01  0.00000000000E+00 0. -1.
</event>
<event>
 7    1  0.6245487E-013  0.5052875E+02  0.7816164E-02  0.1300439E+00
        -11   -1    0    0    0    0  0.00000000000E+00  0.00000000000E+00  0.45593999997E+02  0.45594000000E+02  0.51100000000E-03 0. -1.
         11   -1    0    0    0    0 -0.00000000000E+00 -0.00000000000E+00 -0.45593999997E+02  0.45594000000E+02  0.51100000000E-03 0.  1.
    9900012    2    1    2    0    0 -0.11820678897E+00 -0.39471715760E+02  0.97542117639E+01  0.50528745641E+02  0.29999652849E+02 0.  0.
         12    1    1    2    0    0  0.11820678897E+00  0.39471715760E+02 -0.97542117639E+01  0.40659254359E+02  0.00000000000E+00 0. -1.
         11    1    3    3    0    0 -0.20458740149E+01 -0.40107807633E+01  0.61886502458E+01  0.76531924673E+01  0.51100000000E-03 0. -1.
        -11    1    3    3    0    0  0.71901580412E+01 -0.30760829437E+02  0.10194551872E+02  0.33194214683E+02  0.51100000000E-03 0.  1.
         12    1    3    3    0    0 -0.52624908153E+01 -0.47001055601E+01 -0.66289903542E+01  0.96813384907E+01  0.00000000000E+00 0. -1.
</event>
<event>
 7    1  0.6245487E-013  0.5052886E+02  0.7816164E-02  0.1300439E+00
        -11   -1    0    0    0    0  0.00000000000E+00  0.00000000000E+00  0.45593999997E+02  0.45594000000E+02  0.51100000000E-03 0.  1.
         11   -1    0    0    0    0 -0.00000000000E+00 -0.00000000000E+00 -0.45593999997E+02  0.45594000000E+02  0.51100000000E-03 0. -1.
    9900012    2    1    2    0    0  0.27403553648E+01 -0.38352552301E+02 -0.13218841509E+02  0.50528860973E+02  0.30000003414E+02 0.  0.
         12    1    1    2    0    0 -0.27403553648E+01  0.38352552301E+02  0.13218841509E+02  0.40659139027E+02  0.00000000000E+00 0. -1.
         11    1    3    3    0    0 -0.59287747750E+01 -0.20774817583E+01 -0.40864697321E+01  0.74943669460E+01  0.51100000000E-03 0. -1.
        -11    1    3    3    0    0  0.34698625697E+01 -0.21757233596E+02 -0.14870224534E+02  0.26580834035E+02  0.51100000000E-03 0.  1.
         12    1    3    3    0    0  0.51992675701E+01 -0.14517836947E+02  0.57378527575E+01  0.16453659993E+02  0.00000000000E+00 0. -1.
</event>
<event>
 7    1  0.6245487E-013  0.5052886E+02  0.7816164E-02  0.1300439E+00
        -11   -1    0    0    0    0  0.00000000000E+00  0.00000000000E+00  0.45593999997E+02  0.45594000000E+02  0.51100000000E-03 0.  1.
         11   -1    0    0    0    0 -0.00000000000E+00 -0.00000000000E+00 -0.45593999997E+02  0.45594000000E+02  0.51100000000E-03 0. -1.
    9900012    2    1    2    0    0  0.23629488237E+02  0.26015294423E+02 -0.20445477283E+02  0.50528858352E+02  0.29999995447E+02 0.  0.
         12    1    1    2    0    0 -0.23629488237E+02 -0.26015294423E+02  0.20445477283E+02  0.40659141648E+02  0.00000000000E+00 0. -1.
         11    1    3    3    0    0 -0.15920300001E+01  0.44628159137E+01 -0.11699374717E+02  0.12622466258E+02  0.51100000000E-03 0. -1.
        -11    1    3    3    0    0  0.54345518832E+01 -0.17144018344E+01 -0.40811893396E+01  0.70092534915E+01  0.51100000000E-03 0.  1.
        -12    1    3    3    0    0  0.19786966354E+02  0.23266880343E+02 -0.46649132258E+01  0.30897138602E+02  0.00000000000E+00 0.  1.
</event>
<event>
 7    1  0.6245487E-013  0.5052887E+02  0.7816164E-02  0.1300439E+00
        -11   -1    0    0    0    0  0.00000000000E+00  0.00000000000E+00  0.45593999997E+02  0.45594000000E+02  0.51100000000E-03 0.  1.
         11   -1    0    0    0    0 -0.00000000000E+00 -0.00000000000E+00 -0.45593999997E+02  0.45594000000E+02  0.51100000000E-03 0. -1.
    9900012    2    1    2    0    0  0.34114345549E+02 -0.72717142245E+01  0.20892547242E+02  0.50528869042E+02  0.30000027939E+02 0.  0.
         12    1    1    2    0    0 -0.34114345549E+02  0.72717142245E+01 -0.20892547242E+02  0.40659130958E+02  0.00000000000E+00 0. -1.
         11    1    3    3    0    0 -0.74401875664E-01  0.47195827407E+00 -0.44704843486E+01  0.44959438190E+01  0.51100000000E-03 0. -1.
        -11    1    3    3    0    0  0.16455877099E+02  0.36050989390E+01  0.75747536973E+01  0.18470774843E+02  0.51100000000E-03 0.  1.
        -12    1    3    3    0    0  0.17732870325E+02 -0.11348771438E+02  0.17788277894E+02  0.27562150379E+02  0.00000000000E+00 0.  1.
</event>
<event>
 7    1  0.6245487E-013  0.5052886E+02  0.7816164E-02  0.1300439E+00
        -11   -1    0    0    0    0  0.00000000000E+00  0.00000000000E+00  0.45593999997E+02  0.45594000000E+02  0.51100000000E-03 0.  1.
         11   -1    0    0    0    0 -0.00000000000E+00 -0.00000000000E+00 -0.45593999997E+02  0.45594000000E+02  0.51100000000E-03 0. -1.
    9900012    2    1    2    0    0  0.77950503182E+01 -0.13004414282E+02  0.37726494707E+02  0.50528855848E+02  0.29999987837E+02 0.  0.
         12    1    1    2    0    0 -0.77950503182E+01  0.13004414282E+02 -0.37726494707E+02  0.40659144152E+02  0.00000000000E+00 0. -1.
         11    1    3    3    0    0 -0.41141439021E+01  0.27082465683E+00  0.97248563715E+00  0.42361839688E+01  0.51100000000E-03 0. -1.
        -11    1    3    3    0    0 -0.21087724517E+01 -0.13584905814E+02  0.14428785702E+02  0.19929536982E+02  0.51100000000E-03 0.  1.
         12    1    3    3    0    0  0.14017966672E+02  0.30966687577E+00  0.22325223368E+02  0.26363134897E+02  0.00000000000E+00 0. -1.
</event>
<event>
 7    1  0.6245487E-013  0.5052886E+02  0.7816164E-02  0.1300439E+00
        -11   -1    0    0    0    0  0.00000000000E+00  0.00000000000E+00  0.45593999997E+02  0.45594000000E+02  0.51100000000E-03 0. -1.
         11   -1    0    0    0    0 -0.00000000000E+00 -0.00000000000E+00 -0.45593999997E+02  0.45594000000E+02  0.51100000000E-03 0.  1.
    9900012    2    1    2    0    0  0.18859473683E+02 -0.75856430436E+01  0.35212833277E+02  0.50528863814E+02  0.30000012050E+02 0.  0.
         12    1    1    2    0    0 -0.18859473683E+02  0.75856430436E+01 -0.35212833277E+02  0.40659136186E+02  0.00000000000E+00 0. -1.
         11    1    3    3    0    0  0.62086184717E+01 -0.37281724917E+01  0.16756084748E+02  0.18254111586E+02  0.51100000000E-03 0. -1.
        -11    1    3    3    0    0  0.16467418815E+02 -0.34482296879E+01  0.21553664859E+02  0.27342762105E+02  0.51100000000E-03 0.  1.
         12    1    3    3    0    0 -0.38165636040E+01 -0.40924086402E+00 -0.30969163297E+01  0.49319901238E+01  0.00000000000E+00 0. -1.
</event>
<event>
 7    1  0.6245487E-013  0.5052886E+02  0.7816164E-02  0.1300439E+00
        -11   -1    0    0    0    0  0.00000000000E+00  0.00000000000E+00  0.45593999997E+02  0.45594000000E+02  0.51100000000E-03 0.  1.
         11   -1    0    0    0    0 -0.00000000000E+00 -0.00000000000E+00 -0.45593999997E+02  0.45594000000E+02  0.51100000000E-03 0. -1.
    9900012    2    1    2    0    0 -0.24331628811E+02  0.22287192506E+02  0.23757498332E+02  0.50528857886E+02  0.29999994031E+02 0.  0.
         12    1    1    2    0    0  0.24331628811E+02 -0.22287192506E+02 -0.23757498332E+02  0.40659142114E+02  0.00000000000E+00 0. -1.
         11    1    3    3    0    0 -0.11136091023E+02  0.25061850722E+02  0.15282426330E+02  0.31395245495E+02  0.51100000000E-03 0.  1.
        -11    1    3    3    0    0  0.14707652767E+01 -0.92452121057E+00 -0.53978399719E+00  0.18191363315E+01  0.51100000000E-03 0. -1.
        -12    1    3    3    0    0 -0.14666303065E+02 -0.18501370050E+01  0.90148559990E+01  0.17314476060E+02  0.00000000000E+00 0.  1.
</event>
<event>
 7    1  0.6245487E-013  0.5052885E+02  0.7816164E-02  0.1300439E+00
        -11   -1    0    0    0    0  0.00000000000E+00  0.00000000000E+00  0.45593999997E+02  0.45594000000E+02  0.51100000000E-03 0.  1.
         11   -1    0    0    0    0 -0.00000000000E+00 -0.00000000000E+00 -0.45593999997E+02  0.45594000000E+02  0.51100000000E-03 0. -1.
    9900012    2    1    2    0    0 -0.10809898281E+02  0.12570905584E+02  0.37125254622E+02  0.50528854672E+02  0.29999984262E+02 0.  0.
         12    1    1    2    0    0  0.10809898281E+02 -0.12570905584E+02 -0.37125254622E+02  0.40659145328E+02  0.00000000000E+00 0. -1.
         11    1    3    3    0    0 -0.49636611538E+01 -0.76010567659E+00 -0.81227256508E+00  0.50867946361E+01  0.51100000000E-03 0. -1.
        -11    1    3    3    0    0  0.64882972477E+01  0.61624444316E+01  0.69572275112E+01  0.11334757935E+02  0.51100000000E-03 0.  1.
        -12    1    3    3    0    0 -0.12334534375E+02  0.71685668293E+01  0.30980299675E+02  0.34107302101E+02  0.00000000000E+00 0.  1.
</event>
<event>
 7    1  0.6245487E-013  0.5052887E+02  0.7816164E-02  0.1300439E+00
        -11   -1    0    0    0    0  0.00000000000E+00  0.00000000000E+00  0.45593999997E+02  0.45594000000E+02  0.51100000000E-03 0.  1.
         11   -1    0    0    0    0 -0.00000000000E+00 -0.00000000000E+00 -0.45593999997E+02  0.45594000000E+02  0.51100000000E-03 0. -1.
    9900012    2    1    2    0    0  0.11774415473E+02  0.34684806545E+02  0.17649144613E+02  0.50528868549E+02  0.30000026442E+02 0.  0.
         12    1    1    2    0    0 -0.11774415473E+02 -0.34684806545E+02 -0.17649144613E+02  0.40659131451E+02  0.00000000000E+00 0. -1.
         11    1    3    3    0    0  0.10092530686E+02  0.18742626156E+02  0.11028600461E+02  0.23974470573E+02  0.51100000000E-03 0. -1.
        -11    1    3    3    0    0  0.47965055598E+01  0.31065586152E+01  0.11201036093E+02  0.12574592710E+02  0.51100000000E-03 0.  1.
         12    1    3    3    0    0 -0.31146207725E+01  0.12835621773E+02 -0.45804919405E+01  0.13979805266E+02  0.00000000000E+00 0. -1.
</event>
<event>
 7    1  0.6245487E-013  0.5052886E+02  0.7816164E-02  0.1300439E+00
        -11   -1    0    0    0    0  0.00000000000E+00  0.00000000000E+00  0.45593999997E+02  0.45594000000E+02  0.51100000000E-03 0.  1.
         11   -1    0    0    0    0 -0.00000000000E+00 -0.00000000000E+00 -0.45593999997E+02  0.45594000000E+02  0.51100000000E-03 0. -1.
    9900012    2    1    2    0    0  0.10525557916E+02  0.69916768565E+01  0.38645759686E+02  0.50528860112E+02  0.30000000797E+02 0.  0.
         12    1    1    2    0    0 -0.10525557916E+02 -0.69916768565E+01 -0.38645759686E+02  0.40659139888E+02  0.00000000000E+00 0. -1.
         11    1    3    3    0    0 -0.49610704810E+01 -0.20459243858E+01  0.10730093789E+02  0.11997205504E+02  0.51100000000E-03 0. -1.
        -11    1    3    3    0    0  0.91364180181E+01  0.14768299649E+01  0.27085539169E+02  0.28623095453E+02  0.51100000000E-03 0.  1.
         12    1    3    3    0    0  0.63502103788E+01  0.75607712775E+01  0.83012672789E+00  0.99085591561E+01  0.00000000000E+00 0. -1.
</event>
<event>
 7    1  0.6245487E-013  0.5052886E+02  0.7816164E-02  0.1300439E+00
        -11   -1    0    0    0    0  0.00000000000E+00  0.00000000000E+00  0.45593999997E+02  0.45594000000E+02  0.51100000000E-03 0.  1.
         11   -1    0    0    0    0 -0.00000000000E+00 -0.00000000000E+00 -0.45593999997E+02  0.45594000000E+02  0.51100000000E-03 0. -1.
    9900012    2    1    2    0    0 -0.11186462542E+02 -0.35601682677E+02  0.16141526312E+02  0.50528860495E+02  0.30000001960E+02 0.  0.
         12    1    1    2    0    0  0.11186462542E+02  0.35601682677E+02 -0.16141526312E+02  0.40659139505E+02  0.00000000000E+00 0. -1.
         11    1    3    3    0    0 -0.65739216565E+00 -0.93123484058E+01  0.43391883588E+01  0.10294685676E+02  0.51100000000E-03 0. -1.
        -11    1    3    3    0    0  0.18434991590E+01  0.40416468640E+01  0.51624036647E+01  0.68105660837E+01  0.51100000000E-03 0.  1.
         12    1    3    3    0    0 -0.12372569535E+02 -0.30330981135E+02  0.66399342888E+01  0.33423608735E+02  0.00000000000E+00 0. -1.
</event>
<event>
 7    1  0.6245487E-013  0.5052886E+02  0.7816164E-02  0.1300439E+00
        -11   -1    0    0    0    0  0.00000000000E+00  0.00000000000E+00  0.45593999997E+02  0.45594000000E+02  0.51100000000E-03 0. -1.
         11   -1    0    0    0    0 -0.00000000000E+00 -0.00000000000E+00 -0.45593999997E+02  0.45594000000E+02  0.51100000000E-03 0.  1.
    9900012    2    1    2    0    0  0.62831309542E+01  0.32456147740E+02 -0.23670375756E+02  0.50528856512E+02  0.29999989855E+02 0.  0.
         12    1    1    2    0    0 -0.62831309542E+01 -0.32456147740E+02  0.23670375756E+02  0.40659143488E+02  0.00000000000E+00 0. -1.
         11    1    3    3    0    0 -0.29388755882E+01  0.21245388401E+00 -0.38070803869E+01  0.48141445459E+01  0.51100000000E-03 0. -1.
        -11    1    3    3    0    0 -0.21873369526E+01  0.23824815919E+02 -0.20521168867E+02  0.31520226338E+02  0.51100000000E-03 0.  1.
        -12    1    3    3    0    0  0.11409343495E+02  0.84188779375E+01  0.65787349769E+00  0.14194485628E+02  0.00000000000E+00 0.  1.
</event>
<event>
 7    1  0.6245487E-013  0.5052887E+02  0.7816164E-02  0.1300439E+00
        -11   -1    0    0    0    0  0.00000000000E+00  0.00000000000E+00  0.45593999997E+02  0.45594000000E+02  0.51100000000E-03 0. -1.
         11   -1    0    0    0    0 -0.00000000000E+00 -0.00000000000E+00 -0.45593999997E+02  0.45594000000E+02  0.51100000000E-03 0.  1.
    9900012    2    1    2    0    0 -0.31533624407E+02  0.21353918604E+02  0.14240992822E+02  0.50528865915E+02  0.30000018435E+02 0.  0.
         12    1    1    2    0    0  0.31533624407E+02 -0.21353918604E+02 -0.14240992822E+02  0.40659134085E+02  0.00000000000E+00 0. -1.
         11    1    3    3    0    0 -0.20063880708E+02  0.35252066379E+00  0.12956910833E+01  0.20108764147E+02  0.51100000000E-03 0. -1.
        -11    1    3    3    0    0 -0.78861346718E+01  0.87000754242E+01 -0.62226844382E+00  0.11758811620E+02  0.51100000000E-03 0.  1.
         12    1    3    3    0    0 -0.35836090276E+01  0.12301322516E+02  0.13567570183E+02  0.18661290147E+02  0.00000000000E+00 0. -1.
</event>
<event>
 7    1  0.6245487E-013  0.5052886E+02  0.7816164E-02  0.1300439E+00
        -11   -1    0    0    0    0  0.00000000000E+00  0.00000000000E+00  0.45593999997E+02  0.45594000000E+02  0.51100000000E-03 0.  1.
         11   -1    0    0    0    0 -0.00000000000E+00 -0.00000000000E+00 -0.45593999997E+02  0.45594000000E+02  0.51100000000E-03 0. -1.
    9900012    2    1    2    0    0  0.15970845360E+02  0.26657214471E+02  0.26220044861E+02  0.50528859117E+02  0.29999997771E+02 0.  0.
         12    1    1    2    0    0 -0.15970845360E+02 -0.26657214471E+02 -0.26220044861E+02  0.40659140883E+02  0.00000000000E+00 0. -1.
         11    1    3    3    0    0 -0.10957822099E+01  0.49445375596E+01  0.16337111932E+02  0.17104105264E+02  0.51100000000E-03 0. -1.
        -11    1    3    3    0    0  0.29652624657E+01  0.14884173946E+02  0.91889063161E+01  0.17741685802E+02  0.51100000000E-03 0.  1.
        -12    1    3    3    0    0  0.14101365104E+02  0.68285029657E+01  0.69402661219E+00  0.15683068051E+02  0.00000000000E+00 0.  1.
</event>
<event>
 7    1  0.6245487E-013  0.5052886E+02  0.7816164E-02  0.1300439E+00
        -11   -1    0    0    0    0  0.00000000000E+00  0.00000000000E+00  0.45593999997E+02  0.45594000000E+02  0.51100000000E-03 0. -1.
         11   -1    0    0    0    0 -0.00000000000E+00 -0.00000000000E+00 -0.45593999997E+02  0.45594000000E+02  0.51100000000E-03 0.  1.
    9900012    2    1    2    0    0  0.29762252618E+02  0.10653236404E+02 -0.25571126039E+02  0.50528860638E+02  0.30000002395E+02 0.  0.
         12    1    1    2    0    0 -0.29762252618E+02 -0.10653236404E+02  0.25571126039E+02  0.40659139362E+02  0.00000000000E+00 0. -1.
         11    1    3    3    0    0 -0.14089221761E+01  0.58533089998E+01 -0.44209196235E+01  0.74693251719E+01  0.51100000000E-03 0. -1.
        -11    1    3    3    0    0  0.57131759009E+01 -0.65107398352E+01 -0.10886267349E+01  0.87301329031E+01  0.51100000000E-03 0.  1.
         12    1    3    3    0    0  0.25457998893E+02  0.11310667239E+02 -0.20061579681E+02  0.34329402563E+02  0.00000000000E+00 0. -1.
</event>
<event>
 7    1  0.6245487E-013  0.5052882E+02  0.7816164E-02  0.1300439E+00
        -11   -1    0    0    0    0  0.00000000000E+00  0.00000000000E+00  0.45593999997E+02  0.45594000000E+02  0.51100000000E-03 0.  1.
         11   -1    0    0    0    0 -0.00000000000E+00 -0.00000000000E+00 -0.45593999997E+02  0.45594000000E+02  0.51100000000E-03 0. -1.
    9900012    2    1    2    0    0 -0.21341194065E+02  0.33970260513E+02  0.66138773496E+01  0.50528824688E+02  0.29999893122E+02 0.  0.
         12    1    1    2    0    0  0.21341194065E+02 -0.33970260513E+02 -0.66138773496E+01  0.40659175312E+02  0.00000000000E+00 0. -1.
         11    1    3    3    0    0  0.35036617384E+01 -0.15170203906E+01  0.30171376729E+01  0.48662219885E+01  0.51100000000E-03 0. -1.
        -11    1    3    3    0    0  0.10160438859E+01  0.51316911146E+01  0.24286726789E+01  0.57675861603E+01  0.51100000000E-03 0.  1.
        -12    1    3    3    0    0 -0.25860899690E+02  0.30355589789E+02  0.11680669977E+01  0.39895016540E+02  0.00000000000E+00 0.  1.
</event>
<event>
 7    1  0.6245487E-013  0.5052887E+02  0.7816164E-02  0.1300439E+00
        -11   -1    0    0    0    0  0.00000000000E+00  0.00000000000E+00  0.45593999997E+02  0.45594000000E+02  0.51100000000E-03 0.  1.
         11   -1    0    0    0    0 -0.00000000000E+00 -0.00000000000E+00 -0.45593999997E+02  0.45594000000E+02  0.51100000000E-03 0. -1.
    9900012    2    1    2    0    0 -0.39453919550E+02 -0.50752040135E+01  0.84139829472E+01  0.50528873439E+02  0.30000041306E+02 0.  0.
         12    1    1    2    0    0  0.39453919550E+02  0.50752040135E+01 -0.84139829472E+01  0.40659126561E+02  0.00000000000E+00 0. -1.
         11    1    3    3    0    0 -0.52810522781E+01 -0.26148584293E+01 -0.46746130174E+01  0.75219016806E+01  0.51100000000E-03 0. -1.
        -11    1    3    3    0    0 -0.12193791155E+02 -0.11832995108E+02  0.67796070420E+01  0.18294026016E+02  0.51100000000E-03 0.  1.
         12    1    3    3    0    0 -0.21979076117E+02  0.93726495242E+01  0.63089889226E+01  0.24712945743E+02  0.00000000000E+00 0. -1.
</event>
<event>
 7    1  0.6245487E-013  0.5052886E+02  0.7816164E-02  0.1300439E+00
        -11   -1    0    0    0    0  0.00000000000E+00  0.00000000000E+00  0.45593999997E+02  0.45594000000E+02  0.51100000000E-03 0.  1.
         11   -1    0    0    0    0 -0.00000000000E+00 -0.00000000000E+00 -0.45593999997E+02  0.45594000000E+02  0.51100000000E-03 0. -1.
    9900012    2    1    2    0    0 -0.15881009750E+02 -0.51908564577E+01  0.37067698648E+02  0.50528859029E+02  0.29999997505E+02 0.  0.
         12    1    1    2    0    0  0.15881009750E+02  0.51908564577E+01 -0.37067698648E+02  0.40659140971E+02  0.00000000000E+00 0. -1.
         11    1    3    3    0    0 -0.21565219452E+02 -0.58810798240E+01  0.27414622815E+02  0.35372409224E+02  0.51100000000E-03 0.  1.
        -11    1    3    3    0    0  0.19727719622E+01  0.23882001081E+00  0.11003316492E+02  0.11181316483E+02  0.51100000000E-03 0. -1.
        -12    1    3    3    0    0  0.37114377403E+01  0.45140335546E+00 -0.13502406596E+01  0.39751333220E+01  0.00000000000E+00 0.  1.
</event>
<event>
 7    1  0.6245487E-013  0.5052886E+02  0.7816164E-02  0.1300439E+00
        -11   -1    0    0    0    0  0.00000000000E+00  0.00000000000E+00  0.45593999997E+02  0.45594000000E+02  0.51100000000E-03 0.  1.
         11   -1    0    0    0    0 -0.00000000000E+00 -0.00000000000E+00 -0.45593999997E+02  0.45594000000E+02  0.51100000000E-03 0. -1.
    9900012    2    1    2    0    0 -0.19394407911E+02  0.65732732340E+01  0.35125700895E+02  0.50528857823E+02  0.29999993839E+02 0.  0.
         12    1    1    2    0    0  0.19394407911E+02 -0.65732732340E+01 -0.35125700895E+02  0.40659142177E+02  0.00000000000E+00 0. -1.
         11    1    3    3    0    0  0.11620978572E+01 -0.12564892074E+01  0.37361730472E+00  0.17518066987E+01  0.51100000000E-03 0. -1.
        -11    1    3    3    0    0 -0.56768148705E+01  0.25171388118E+01  0.32174781740E+02  0.32768564130E+02  0.51100000000E-03 0.  1.
         12    1    3    3    0    0 -0.14879690897E+02  0.53126236296E+01  0.25773018505E+01  0.16008486995E+02  0.00000000000E+00 0. -1.
</event>
<event>
 7    1  0.6245487E-013  0.5052887E+02  0.7816164E-02  0.1300439E+00
        -11   -1    0    0    0    0  0.00000000000E+00  0.00000000000E+00  0.45593999997E+02  0.45594000000E+02  0.51100000000E-03 0. -1.
         11   -1    0    0    0    0 -0.00000000000E+00 -0.00000000000E+00 -0.45593999997E+02  0.45594000000E+02  0.51100000000E-03 0.  1.
    9900012    2    1    2    0    0  0.18847669674E+02 -0.45794439256E+01 -0.35734560521E+02  0.50528870958E+02  0.30000033765E+02 0.  0.
         12    1    1    2    0    0 -0.18847669674E+02  0.45794439256E+01  0.35734560521E+02  0.40659129042E+02  0.00000000000E+00 0. -1.
         11    1    3    3    0    0  0.74974775771E+01  0.24571044570E+01 -0.50521696245E+01  0.93687752939E+01  0.51100000000E-03 0. -1.
        -11    1    3    3    0    0  0.16876629571E+02 -0.11175791772E+02 -0.25327682671E+02  0.32422375871E+02  0.51100000000E-03 0.  1.
         12    1    3    3    0    0 -0.55264374742E+01  0.41392433898E+01 -0.53547082260E+01  0.87377197930E+01  0.00000000000E+00 0. -1.
</event>
<event>
 7    1  0.6245487E-013  0.5052885E+02  0.7816164E-02  0.1300439E+00
        -11   -1    0    0    0    0  0.00000000000E+00  0.00000000000E+00  0.45593999997E+02  0.45594000000E+02  0.51100000000E-03 0. -1.
         11   -1    0    0    0    0 -0.00000000000E+00 -0.00000000000E+00 -0.45593999997E+02  0.45594000000E+02  0.51100000000E-03 0.  1.
    9900012    2    1    2    0    0 -0.32259768538E+02 -0.16823316362E+02 -0.18150750267E+02  0.50528851278E+02  0.29999973943E+02 0.  0.
         12    1    1    2    0    0  0.32259768538E+02  0.16823316362E+02  0.18150750267E+02  0.40659148722E+02  0.00000000000E+00 0. -1.
         11    1    3    3    0    0  0.67759736721E+00 -0.71503649667E+00 -0.10881115675E+02  0.10925616411E+02  0.51100000000E-03 0. -1.
        -11    1    3    3    0    0 -0.10352397068E+02  0.55603282398E+00 -0.48083513440E+01  0.11428103100E+02  0.51100000000E-03 0.  1.
        -12    1    3    3    0    0 -0.22584968837E+02 -0.16664312690E+02 -0.24612832486E+01  0.28175131766E+02  0.00000000000E+00 0.  1.
</event>
<event>
 7    1  0.6245487E-013  0.5052886E+02  0.7816164E-02  0.1300439E+00
        -11   -1    0    0    0    0  0.00000000000E+00  0.00000000000E+00  0.45593999997E+02  0.45594000000E+02  0.51100000000E-03 0.  1.
         11   -1    0    0    0    0 -0.00000000000E+00 -0.00000000000E+00 -0.45593999997E+02  0.45594000000E+02  0.51100000000E-03 0. -1.
    9900012    2    1    2    0    0  0.36973142093E+02  0.11699219044E+02 -0.12218039202E+02  0.50528862719E+02  0.30000008721E+02 0.  0.
         12    1    1    2    0    0 -0.36973142093E+02 -0.11699219044E+02  0.12218039202E+02  0.40659137281E+02  0.00000000000E+00 0. -1.
         11    1    3    3    0    0 -0.41928503763E+00  0.69155073010E+01  0.14828265969E+01  0.70851122892E+01  0.51100000000E-03 0.  1.
        -11    1    3    3    0    0  0.32004355370E+01  0.13006416153E+01 -0.78551026478E+01  0.85812058655E+01  0.51100000000E-03 0. -1.
        -12    1    3    3    0    0  0.34191991594E+02  0.34830701281E+01 -0.58457631508E+01  0.34862544564E+02  0.00000000000E+00 0.  1.
</event>
<event>
 7    1  0.6245487E-013  0.5052885E+02  0.7816164E-02  0.1300439E+00
        -11   -1    0    0    0    0  0.00000000000E+00  0.00000000000E+00  0.45593999997E+02  0.45594000000E+02  0.51100000000E-03 0.  1.
         11   -1    0    0    0    0 -0.00000000000E+00 -0.00000000000E+00 -0.45593999997E+02  0.45594000000E+02  0.51100000000E-03 0. -1.
    9900012    2    1    2    0    0 -0.98540694999E+01  0.36607661082E+02 -0.14694992263E+02  0.50528851789E+02  0.29999975498E+02 0.  0.
         12    1    1    2    0    0  0.98540694999E+01 -0.36607661082E+02  0.14694992263E+02  0.40659148211E+02  0.00000000000E+00 0. -1.
         11    1    3    3    0    0 -0.46822565285E+01  0.73547448836E+01 -0.12484384746E+02  0.15227464045E+02  0.51100000000E-03 0. -1.
        -11    1    3    3    0    0 -0.88305971920E+01  0.72120595329E+01  0.40482333853E+01  0.12098819913E+02  0.51100000000E-03 0.  1.
        -12    1    3    3    0    0  0.36587842206E+01  0.22040856666E+02 -0.62588409022E+01  0.23202567832E+02  0.00000000000E+00 0.  1.
</event>
<event>
 7    1  0.6245487E-013  0.5052886E+02  0.7816164E-02  0.1300439E+00
        -11   -1    0    0    0    0  0.00000000000E+00  0.00000000000E+00  0.45593999997E+02  0.45594000000E+02  0.51100000000E-03 0.  1.
         11   -1    0    0    0    0 -0.00000000000E+00 -0.00000000000E+00 -0.45593999997E+02  0.45594000000E+02  0.51100000000E-03 0. -1.
    9900012    2    1    2    0    0 -0.52822217722E+01 -0.22807233594E+02  0.33242955781E+02  0.50528857361E+02  0.29999992435E+02 0.  0.
         12    1    1    2    0    0  0.52822217722E+01  0.22807233594E+02 -0.33242955781E+02  0.40659142639E+02  0.00000000000E+00 0. -1.
         11    1    3    3    0    0  0.10657093841E+02 -0.67576895464E+01  0.11228103862E+02  0.16891131808E+02  0.51100000000E-03 0.  1.
        -11    1    3    3    0    0 -0.91539807961E+01 -0.63021438471E+01  0.35196683930E+01  0.11657634723E+02  0.51100000000E-03 0. -1.
        -12    1    3    3    0    0 -0.67853348169E+01 -0.97474002005E+01  0.18495183526E+02  0.21980090830E+02  0.00000000000E+00 0.  1.
</event>
<event>
 7    1  0.6245487E-013  0.5052886E+02  0.7816164E-02  0.1300439E+00
        -11   -1    0    0    0    0  0.00000000000E+00  0.00000000000E+00  0.45593999997E+02  0.45594000000E+02  0.51100000000E-03 0.  1.
         11   -1    0    0    0    0 -0.00000000000E+00 -0.00000000000E+00 -0.45593999997E+02  0.45594000000E+02  0.51100000000E-03 0. -1.
    9900012    2    1    2    0    0 -0.89505235434E+01  0.11525800473E+02  0.37950093282E+02  0.50528861687E+02  0.30000005583E+02 0.  0.
         12    1    1    2    0    0  0.89505235434E+01 -0.11525800473E+02 -0.37950093282E+02  0.40659138313E+02  0.00000000000E+00 0. -1.
         11    1    3    3    0    0  0.35934012160E+01  0.84187645278E+01  0.55335361724E+01  0.10696174611E+02  0.51100000000E-03 0. -1.
        -11    1    3    3    0    0 -0.38653043362E+00 -0.16938121255E+01 -0.22158523800E+01  0.28157427658E+01  0.51100000000E-03 0.  1.
        -12    1    3    3    0    0 -0.12157394326E+02  0.48008480711E+01  0.34632409490E+02  0.37016944310E+02  0.00000000000E+00 0.  1.
</event>
<event>
 7    1  0.6245487E-013  0.5052896E+02  0.7816164E-02  0.1300438E+00
        -11   -1    0    0    0    0  0.00000000000E+00  0.00000000000E+00  0.45593999997E+02  0.45594000000E+02  0.51100000000E-03 0. -1.
         11   -1    0    0    0    0 -0.00000000000E+00 -0.00000000000E+00 -0.45593999997E+02  0.45594000000E+02  0.51100000000E-03 0.  1.
    9900012    2    1    2    0    0 -0.74268857503E+01  0.14529317564E+02 -0.37241080626E+02  0.50528956885E+02  0.30000294947E+02 0.  0.
         12    1    1    2    0    0  0.74268857503E+01 -0.14529317564E+02  0.37241080626E+02  0.40659043115E+02  0.00000000000E+00 0. -1.
         11    1    3    3    0    0 -0.48378917884E+01  0.53748575524E+01 -0.11970378745E+01  0.73298833960E+01  0.51100000000E-03 0. -1.
        -11    1    3    3    0    0 -0.75865351728E+00 -0.72405712840E+01 -0.99862722343E+01  0.12358279050E+02  0.51100000000E-03 0.  1.
        -12    1    3    3    0    0 -0.18303404446E+01  0.16395031296E+02 -0.26057770517E+02  0.30840794439E+02  0.00000000000E+00 0.  1.
</event>
<event>
 7    1  0.6245487E-013  0.5052886E+02  0.7816164E-02  0.1300439E+00
        -11   -1    0    0    0    0  0.00000000000E+00  0.00000000000E+00  0.45593999997E+02  0.45594000000E+02  0.51100000000E-03 0. -1.
         11   -1    0    0    0    0 -0.00000000000E+00 -0.00000000000E+00 -0.45593999997E+02  0.45594000000E+02  0.51100000000E-03 0.  1.
    9900012    2    1    2    0    0  0.22856657433E+02  0.16892589086E+02 -0.29075406298E+02  0.50528860727E+02  0.30000002665E+02 0.  0.
         12    1    1    2    0    0 -0.22856657433E+02 -0.16892589086E+02  0.29075406298E+02  0.40659139273E+02  0.00000000000E+00 0. -1.
         11    1    3    3    0    0 -0.30469077944E+01 -0.27260413259E+00 -0.56409199315E+01  0.64170038223E+01  0.51100000000E-03 0. -1.
        -11    1    3    3    0    0  0.52626684497E+01 -0.67804712038E+00  0.30224699130E+01  0.61066154083E+01  0.51100000000E-03 0.  1.
         12    1    3    3    0    0  0.20640896778E+02  0.17843240339E+02 -0.26456956279E+02  0.38005241496E+02  0.00000000000E+00 0. -1.
</event>
<event>
 7    1  0.6245487E-013  0.5052886E+02  0.7816164E-02  0.1300439E+00
        -11   -1    0    0    0    0  0.00000000000E+00  0.00000000000E+00  0.45593999997E+02  0.45594000000E+02  0.51100000000E-03 0.  1.
         11   -1    0    0    0    0 -0.00000000000E+00 -0.00000000000E+00 -0.45593999997E+02  0.45594000000E+02  0.51100000000E-03 0. -1.
    9900012    2    1    2    0    0 -0.67669717524E+00  0.39759232011E+02 -0.84800547553E+01  0.50528858619E+02  0.29999996260E+02 0.  0.
         12    1    1    2    0    0  0.67669717524E+00 -0.39759232011E+02  0.84800547553E+01  0.40659141381E+02  0.00000000000E+00 0. -1.
         11    1    3    3    0    0  0.58492085663E+01  0.13607766089E+02  0.77587370577E+00  0.14831942525E+02  0.51100000000E-03 0. -1.
        -11    1    3    3    0    0 -0.42226256119E+01  0.11118776970E+02  0.67027485901E+01  0.13652274803E+02  0.51100000000E-03 0.  1.
         12    1    3    3    0    0 -0.23032801296E+01  0.15032688952E+02 -0.15958677051E+02  0.22044641292E+02  0.00000000000E+00 0. -1.
</event>
<event>
 7    1  0.6245487E-013  0.5052886E+02  0.7816164E-02  0.1300439E+00
        -11   -1    0    0    0    0  0.00000000000E+00  0.00000000000E+00  0.45593999997E+02  0.45594000000E+02  0.51100000000E-03 0. -1.
         11   -1    0    0    0    0 -0.00000000000E+00 -0.00000000000E+00 -0.45593999997E+02  0.45594000000E+02  0.51100000000E-03 0.  1.
    9900012    2    1    2    0    0 -0.36557859010E+02 -0.91512788530E+01 -0.15262452694E+02  0.50528862992E+02  0.30000009549E+02 0.  0.
         12    1    1    2    0    0  0.36557859010E+02  0.91512788530E+01  0.15262452694E+02  0.40659137008E+02  0.00000000000E+00 0. -1.
         11    1    3    3    0    0 -0.21937067746E+00 -0.21594008280E+01 -0.43303434432E+01  0.48438631305E+01  0.51100000000E-03 0. -1.
        -11    1    3    3    0    0 -0.20757235453E+02 -0.15859723296E+02 -0.91056621248E+01  0.27664177734E+02  0.51100000000E-03 0.  1.
        -12    1    3    3    0    0 -0.15581252879E+02  0.88678452712E+01 -0.18264471263E+01  0.18020822127E+02  0.00000000000E+00 0.  1.
</event>
<event>
 7    1  0.6245487E-013  0.5052886E+02  0.7816164E-02  0.1300439E+00
        -11   -1    0    0    0    0  0.00000000000E+00  0.00000000000E+00  0.45593999997E+02  0.45594000000E+02  0.51100000000E-03 0.  1.
         11   -1    0    0    0    0 -0.00000000000E+00 -0.00000000000E+00 -0.45593999997E+02  0.45594000000E+02  0.51100000000E-03 0. -1.
    9900012    2    1    2    0    0 -0.36525326645E+02 -0.63957624041E+00 -0.17850971299E+02  0.50528859323E+02  0.29999998398E+02 0.  0.
         12    1    1    2    0    0  0.36525326645E+02  0.63957624041E+00  0.17850971299E+02  0.40659140677E+02  0.00000000000E+00 0. -1.
         11    1    3    3    0    0 -0.18488356784E+02 -0.64466322883E+01 -0.55253775899E+01  0.20344734017E+02  0.51100000000E-03 0. -1.
        -11    1    3    3    0    0 -0.14341064790E+02 -0.40369721872E+01 -0.13104912672E+01  0.14955957721E+02  0.51100000000E-03 0.  1.
         12    1    3    3    0    0 -0.36959050711E+01  0.98440282351E+01 -0.11015102442E+02  0.15228167585E+02  0.00000000000E+00 0. -1.
</event>
<event>
 7    1  0.6245487E-013  0.5052887E+02  0.7816164E-02  0.1300439E+00
        -11   -1    0    0    0    0  0.00000000000E+00  0.00000000000E+00  0.45593999997E+02  0.45594000000E+02  0.51100000000E-03 0.  1.
         11   -1    0    0    0    0 -0.00000000000E+00 -0.00000000000E+00 -0.45593999997E+02  0.45594000000E+02  0.51100000000E-03 0. -1.
    9900012    2    1    2    0    0 -0.39365974675E+02 -0.83445266637E+01  0.58184313522E+01  0.50528865347E+02  0.30000016709E+02 0.  0.
         12    1    1    2    0    0  0.39365974675E+02  0.83445266637E+01 -0.58184313522E+01  0.40659134653E+02  0.00000000000E+00 0. -1.
         11    1    3    3    0    0 -0.17847949660E+02  0.78647252950E+00  0.65890887061E+00  0.17877416124E+02  0.51100000000E-03 0. -1.
        -11    1    3    3    0    0  0.43086691474E+00  0.55158103255E+01 -0.82599099536E+00  0.55939316434E+01  0.51100000000E-03 0.  1.
        -12    1    3    3    0    0 -0.21948891929E+02 -0.14646809519E+02  0.59855134769E+01  0.27057517580E+02  0.00000000000E+00 0.  1.
</event>
<event>
 7    1  0.6245487E-013  0.5052886E+02  0.7816164E-02  0.1300439E+00
        -11   -1    0    0    0    0  0.00000000000E+00  0.00000000000E+00  0.45593999997E+02  0.45594000000E+02  0.51100000000E-03 0. -1.
         11   -1    0    0    0    0 -0.00000000000E+00 -0.00000000000E+00 -0.45593999997E+02  0.45594000000E+02  0.51100000000E-03 0.  1.
    9900012    2    1    2    0    0 -0.29701088829E+02  0.22619217435E+02 -0.16105339046E+02  0.50528860551E+02  0.30000002130E+02 0.  0.
         12    1    1    2    0    0  0.29701088829E+02 -0.22619217435E+02  0.16105339046E+02  0.40659139449E+02  0.00000000000E+00 0. -1.
         11    1    3    3    0    0 -0.18907931868E+02  0.32183206540E+01 -0.80906158592E+01  0.20816472819E+02  0.51100000000E-03 0.  1.
        -11    1    3    3    0    0 -0.61392300005E+01  0.70239264667E+00  0.36607009359E+01  0.71822163733E+01  0.51100000000E-03 0. -1.
         12    1    3    3    0    0 -0.46539269597E+01  0.18698504134E+02 -0.11675424122E+02  0.22530171359E+02  0.00000000000E+00 0. -1.
</event>
<event>
 7    1  0.6245487E-013  0.5052887E+02  0.7816164E-02  0.1300439E+00
        -11   -1    0    0    0    0  0.00000000000E+00  0.00000000000E+00  0.45593999997E+02  0.45594000000E+02  0.51100000000E-03 0.  1.
         11   -1    0    0    0    0 -0.00000000000E+00 -0.00000000000E+00 -0.45593999997E+02  0.45594000000E+02  0.51100000000E-03 0. -1.
    9900012    2    1    2    0    0  0.34705668836E+02 -0.63314245983E+00  0.21172635866E+02  0.50528870297E+02  0.30000031754E+02 0.  0.
         12    1    1    2    0    0 -0.34705668836E+02  0.63314245983E+00 -0.21172635866E+02  0.40659129703E+02  0.00000000000E+00 0. -1.
         11    1    3    3    0    0  0.66379081793E+01 -0.34337758080E+01 -0.17844635956E+01  0.76835507340E+01  0.51100000000E-03 0. -1.
        -11    1    3    3    0    0  0.29100285902E+02  0.14105621224E+01  0.11603005137E+02  0.31359943456E+02  0.51100000000E-03 0.  1.
        -12    1    3    3    0    0 -0.10325252455E+01  0.13900712258E+01  0.11354094324E+02  0.11485376107E+02  0.00000000000E+00 0.  1.
</event>
<event>
 7    1  0.6245487E-013  0.5052888E+02  0.7816164E-02  0.1300439E+00
        -11   -1    0    0    0    0  0.00000000000E+00  0.00000000000E+00  0.45593999997E+02  0.45594000000E+02  0.51100000000E-03 0.  1.
         11   -1    0    0    0    0 -0.00000000000E+00 -0.00000000000E+00 -0.45593999997E+02  0.45594000000E+02  0.51100000000E-03 0. -1.
    9900012    2    1    2    0    0  0.51891593646E+01  0.38066134568E+02  0.13311883412E+02  0.50528877828E+02  0.30000054646E+02 0.  0.
         12    1    1    2    0    0 -0.51891593646E+01 -0.38066134568E+02 -0.13311883412E+02  0.40659122172E+02  0.00000000000E+00 0. -1.
         11    1    3    3    0    0  0.43670606208E+01  0.10472298403E-01 -0.95873426780E-01  0.43681254687E+01  0.51100000000E-03 0. -1.
        -11    1    3    3    0    0 -0.43154174958E+01  0.10040884024E+02  0.13890747133E+02  0.17674700459E+02  0.51100000000E-03 0.  1.
        -12    1    3    3    0    0  0.51375162396E+01  0.28014778246E+02 -0.48299029411E+00  0.28486051901E+02  0.00000000000E+00 0.  1.
</event>
<event>
 7    1  0.6245487E-013  0.5052886E+02  0.7816164E-02  0.1300439E+00
        -11   -1    0    0    0    0  0.00000000000E+00  0.00000000000E+00  0.45593999997E+02  0.45594000000E+02  0.51100000000E-03 0.  1.
         11   -1    0    0    0    0 -0.00000000000E+00 -0.00000000000E+00 -0.45593999997E+02  0.45594000000E+02  0.51100000000E-03 0. -1.
    9900012    2    1    2    0    0 -0.13700780875E+02  0.12684111541E+02  0.36118797561E+02  0.50528860567E+02  0.30000002180E+02 0.  0.
         12    1    1    2    0    0  0.13700780875E+02 -0.12684111541E+02 -0.36118797561E+02  0.40659139433E+02  0.00000000000E+00 0. -1.
         11    1    3    3    0    0  0.66730089548E+01 -0.11942131290E+01  0.87637072787E+01  0.11079610058E+02  0.51100000000E-03 0. -1.
        -11    1    3    3    0    0 -0.11967145470E+01  0.83894836921E+01  0.84108797220E+01  0.11939784767E+02  0.51100000000E-03 0.  1.
         12    1    3    3    0    0 -0.19177075283E+02  0.54888409777E+01  0.18944210560E+02  0.27509465742E+02  0.00000000000E+00 0. -1.
</event>
<event>
 7    1  0.6245487E-013  0.5052886E+02  0.7816164E-02  0.1300439E+00
        -11   -1    0    0    0    0  0.00000000000E+00  0.00000000000E+00  0.45593999997E+02  0.45594000000E+02  0.51100000000E-03 0.  1.
         11   -1    0    0    0    0 -0.00000000000E+00 -0.00000000000E+00 -0.45593999997E+02  0.45594000000E+02  0.51100000000E-03 0. -1.
    9900012    2    1    2    0    0  0.38449255204E+00  0.32193578565E+02  0.24831259265E+02  0.50528858690E+02  0.29999996474E+02 0.  0.
         12    1    1    2    0    0 -0.38449255204E+00 -0.32193578565E+02 -0.24831259265E+02  0.40659141310E+02  0.00000000000E+00 0. -1.
         11    1    3    3    0    0  0.45729193553E+01  0.20495652829E+02  0.14172694907E+02  0.25334732236E+02  0.51100000000E-03 0. -1.
        -11    1    3    3    0    0 -0.76336831281E+00  0.36119697131E+01  0.14964957517E+02  0.15413598221E+02  0.51100000000E-03 0.  1.
         12    1    3    3    0    0 -0.34250584905E+01  0.80859560234E+01 -0.43063931581E+01  0.97805282325E+01  0.00000000000E+00 0. -1.
</event>
<event>
 7    1  0.6245487E-013  0.5052884E+02  0.7816164E-02  0.1300439E+00
        -11   -1    0    0    0    0  0.00000000000E+00  0.00000000000E+00  0.45593999997E+02  0.45594000000E+02  0.51100000000E-03 0. -1.
         11   -1    0    0    0    0 -0.00000000000E+00 -0.00000000000E+00 -0.45593999997E+02  0.45594000000E+02  0.51100000000E-03 0.  1.
    9900012    2    1    2    0    0  0.23956245722E+02  0.28693507436E+02 -0.15998388516E+02  0.50528837279E+02  0.29999931393E+02 0.  0.
         12    1    1    2    0    0 -0.23956245722E+02 -0.28693507436E+02  0.15998388516E+02  0.40659162721E+02  0.00000000000E+00 0. -1.
         11    1    3    3    0    0 -0.31191153564E+01  0.21058035788E+01 -0.57766976451E+00  0.38074915544E+01  0.51100000000E-03 0. -1.
        -11    1    3    3    0    0  0.74152408367E+01  0.16453771337E+02 -0.16669382199E+02  0.24567879254E+02  0.51100000000E-03 0.  1.
         12    1    3    3    0    0  0.19660120242E+02  0.10133932520E+02  0.12486634481E+01  0.22153466470E+02  0.00000000000E+00 0. -1.
</event>
<event>
 7    1  0.6245487E-013  0.5052885E+02  0.7816164E-02  0.1300439E+00
        -11   -1    0    0    0    0  0.00000000000E+00  0.00000000000E+00  0.45593999997E+02  0.45594000000E+02  0.51100000000E-03 0.  1.
         11   -1    0    0    0    0 -0.00000000000E+00 -0.00000000000E+00 -0.45593999997E+02  0.45594000000E+02  0.51100000000E-03 0. -1.
    9900012    2    1    2    0    0  0.22049252156E+02 -0.10365910094E+02  0.32550652779E+02  0.50528848398E+02  0.29999965189E+02 0.  0.
         12    1    1    2    0    0 -0.22049252156E+02  0.10365910094E+02 -0.32550652779E+02  0.40659151602E+02  0.00000000000E+00 0. -1.
         11    1    3    3    0    0 -0.24792904552E+01  0.33793880861E+01  0.96894933326E+01  0.10557150482E+02  0.51100000000E-03 0. -1.
        -11    1    3    3    0    0  0.37292363432E+01  0.37982599071E+01  0.20049437673E+01  0.56880384840E+01  0.51100000000E-03 0.  1.
        -12    1    3    3    0    0  0.20799306268E+02 -0.17543558087E+02  0.20856215679E+02  0.34283659432E+02  0.00000000000E+00 0.  1.
</event>
<event>
 7    1  0.6245487E-013  0.5052885E+02  0.7816164E-02  0.1300439E+00
        -11   -1    0    0    0    0  0.00000000000E+00  0.00000000000E+00  0.45593999997E+02  0.45594000000E+02  0.51100000000E-03 0.  1.
         11   -1    0    0    0    0 -0.00000000000E+00 -0.00000000000E+00 -0.45593999997E+02  0.45594000000E+02  0.51100000000E-03 0. -1.
    9900012    2    1    2    0    0 -0.22313652760E+02 -0.33494034464E+02  0.57807342497E+01  0.50528851797E+02  0.29999975521E+02 0.  0.
         12    1    1    2    0    0  0.22313652760E+02  0.33494034464E+02 -0.57807342497E+01  0.40659148203E+02  0.00000000000E+00 0. -1.
         11    1    3    3    0    0 -0.15952581537E+02 -0.38102769008E+01  0.59486778051E+01  0.17446771496E+02  0.51100000000E-03 0. -1.
        -11    1    3    3    0    0  0.79428114894E+00 -0.12904161945E+02  0.53980643544E+01  0.14010259708E+02  0.51100000000E-03 0.  1.
        -12    1    3    3    0    0 -0.71553523725E+01 -0.16779595618E+02 -0.55660079097E+01  0.19071820593E+02  0.00000000000E+00 0.  1.
</event>
<event>
 7    1  0.6245487E-013  0.5052874E+02  0.7816164E-02  0.1300439E+00
        -11   -1    0    0    0    0  0.00000000000E+00  0.00000000000E+00  0.45593999997E+02  0.45594000000E+02  0.51100000000E-03 0. -1.
         11   -1    0    0    0    0 -0.00000000000E+00 -0.00000000000E+00 -0.45593999997E+02  0.45594000000E+02  0.51100000000E-03 0.  1.
    9900012    2    1    2    0    0 -0.31199851907E+02 -0.25982547841E+02  0.21569050612E+01  0.50528735486E+02  0.29999621982E+02 0.  0.
         12    1    1    2    0    0  0.31199851907E+02  0.25982547841E+02 -0.21569050612E+01  0.40659264514E+02  0.00000000000E+00 0. -1.
         11    1    3    3    0    0 -0.11555326196E+02 -0.14352055914E+02  0.62156342310E+01  0.19445852556E+02  0.51100000000E-03 0. -1.
        -11    1    3    3    0    0 -0.22517603384E+02 -0.12874378023E+02  0.23605522634E-01  0.25938246454E+02  0.51100000000E-03 0.  1.
         12    1    3    3    0    0  0.28730776729E+01  0.12438860961E+01 -0.40823346925E+01  0.51446364766E+01  0.00000000000E+00 0. -1.
</event>
<event>
 7    1  0.6245487E-013  0.5052877E+02  0.7816164E-02  0.1300439E+00
        -11   -1    0    0    0    0  0.00000000000E+00  0.00000000000E+00  0.45593999997E+02  0.45594000000E+02  0.51100000000E-03 0.  1.
         11   -1    0    0    0    0 -0.00000000000E+00 -0.00000000000E+00 -0.45593999997E+02  0.45594000000E+02  0.51100000000E-03 0. -1.
    9900012    2    1    2    0    0 -0.23255493355E+02  0.25784993466E+01  0.33252167772E+02  0.50528766220E+02  0.29999715401E+02 0.  0.
         12    1    1    2    0    0  0.23255493355E+02 -0.25784993466E+01 -0.33252167772E+02  0.40659233780E+02  0.00000000000E+00 0. -1.
         11    1    3    3    0    0 -0.83343620042E+00  0.50528351938E+01 -0.20443036553E+01  0.55140672006E+01  0.51100000000E-03 0. -1.
        -11    1    3    3    0    0 -0.94405961551E+01  0.64811763044E+01  0.99905369185E+01  0.15196753937E+02  0.51100000000E-03 0.  1.
        -12    1    3    3    0    0 -0.12981460999E+02 -0.89555121516E+01  0.25305934509E+02  0.29817945082E+02  0.00000000000E+00 0.  1.
</event>
<event>
 7    1  0.6245487E-013  0.5052887E+02  0.7816164E-02  0.1300439E+00
        -11   -1    0    0    0    0  0.00000000000E+00  0.00000000000E+00  0.45593999997E+02  0.45594000000E+02  0.51100000000E-03 0.  1.
         11   -1    0    0    0    0 -0.00000000000E+00 -0.00000000000E+00 -0.45593999997E+02  0.45594000000E+02  0.51100000000E-03 0. -1.
    9900012    2    1    2    0    0 -0.35294747977E+02 -0.45681277872E+01  0.19661579788E+02  0.50528871308E+02  0.30000034828E+02 0.  0.
         12    1    1    2    0    0  0.35294747977E+02  0.45681277872E+01 -0.19661579788E+02  0.40659128692E+02  0.00000000000E+00 0. -1.
         11    1    3    3    0    0 -0.91541006348E+00  0.30576210907E+01 -0.16939795678E+01  0.36133902856E+01  0.51100000000E-03 0. -1.
        -11    1    3    3    0    0 -0.21991015873E+02  0.38016233568E+01  0.39075479425E+01  0.22656699902E+02  0.51100000000E-03 0.  1.
         12    1    3    3    0    0 -0.12388322040E+02 -0.11427372235E+02  0.17448011413E+02  0.24258781120E+02  0.00000000000E+00 0. -1.
</event>
<event>
 7    1  0.6245487E-013  0.5052886E+02  0.7816164E-02  0.1300439E+00
        -11   -1    0    0    0    0  0.00000000000E+00  0.00000000000E+00  0.45593999997E+02  0.45594000000E+02  0.51100000000E-03 0. -1.
         11   -1    0    0    0    0 -0.00000000000E+00 -0.00000000000E+00 -0.45593999997E+02  0.45594000000E+02  0.51100000000E-03 0.  1.
    9900012    2    1    2    0    0 -0.18496538346E+02  0.33648410922E+02 -0.13372653260E+02  0.50528863959E+02  0.30000012490E+02 0.  0.
         12    1    1    2    0    0  0.18496538346E+02 -0.33648410922E+02  0.13372653260E+02  0.40659136041E+02  0.00000000000E+00 0. -1.
         11    1    3    3    0    0 -0.15172152020E+02  0.33895204390E+02 -0.10942118231E+02  0.38714455042E+02  0.51100000000E-03 0.  1.
        -11    1    3    3    0    0  0.15127072953E+01  0.45197821625E+01 -0.84053397437E+00  0.48397532768E+01  0.51100000000E-03 0. -1.
         12    1    3    3    0    0 -0.48370936210E+01 -0.47665756305E+01 -0.15900010552E+01  0.69746556399E+01  0.00000000000E+00 0. -1.
</event>
<event>
 7    1  0.6245487E-013  0.5052886E+02  0.7816164E-02  0.1300439E+00
        -11   -1    0    0    0    0  0.00000000000E+00  0.00000000000E+00  0.45593999997E+02  0.45594000000E+02  0.51100000000E-03 0.  1.
         11   -1    0    0    0    0 -0.00000000000E+00 -0.00000000000E+00 -0.45593999997E+02  0.45594000000E+02  0.51100000000E-03 0. -1.
    9900012    2    1    2    0    0 -0.11523291493E+02 -0.31830373834E+02  0.22521256781E+02  0.50528856474E+02  0.29999989738E+02 0.  0.
         12    1    1    2    0    0  0.11523291493E+02  0.31830373834E+02 -0.22521256781E+02  0.40659143526E+02  0.00000000000E+00 0. -1.
         11    1    3    3    0    0 -0.64447941704E+01 -0.37378909783E+01  0.22119848319E+01  0.77717487107E+01  0.51100000000E-03 0. -1.
        -11    1    3    3    0    0 -0.94625765803E+01 -0.27458972348E+02  0.86803479966E+01  0.30313098811E+02  0.51100000000E-03 0.  1.
        -12    1    3    3    0    0  0.43840792574E+01 -0.63351050778E+00  0.11628923953E+02  0.12444008952E+02  0.00000000000E+00 0.  1.
</event>
<event>
 7    1  0.6245487E-013  0.5052887E+02  0.7816164E-02  0.1300439E+00
        -11   -1    0    0    0    0  0.00000000000E+00  0.00000000000E+00  0.45593999997E+02  0.45594000000E+02  0.51100000000E-03 0.  1.
         11   -1    0    0    0    0 -0.00000000000E+00 -0.00000000000E+00 -0.45593999997E+02  0.45594000000E+02  0.51100000000E-03 0. -1.
    9900012    2    1    2    0    0 -0.29660664977E+02  0.12104680047E+02  0.25037701586E+02  0.50528870316E+02  0.30000031812E+02 0.  0.
         12    1    1    2    0    0  0.29660664977E+02 -0.12104680047E+02 -0.25037701586E+02  0.40659129684E+02  0.00000000000E+00 0. -1.
         11    1    3    3    0    0 -0.42464421371E+01  0.87505975320E+01  0.28420856851E+01  0.10133246237E+02  0.51100000000E-03 0. -1.
        -11    1    3    3    0    0 -0.74470224272E+01  0.11688242878E+02  0.77257723295E+01  0.15866969558E+02  0.51100000000E-03 0.  1.
        -12    1    3    3    0    0 -0.17967200413E+02 -0.83341603625E+01  0.14469843572E+02  0.24528654521E+02  0.00000000000E+00 0.  1.
</event>
<event>
 7    1  0.6245487E-013  0.5052886E+02  0.7816164E-02  0.1300439E+00
        -11   -1    0    0    0    0  0.00000000000E+00  0.00000000000E+00  0.45593999997E+02  0.45594000000E+02  0.51100000000E-03 0.  1.
         11   -1    0    0    0    0 -0.00000000000E+00 -0.00000000000E+00 -0.45593999997E+02  0.45594000000E+02  0.51100000000E-03 0. -1.
    9900012    2    1    2    0    0 -0.23871875610E+01  0.28024720818E+02  0.29361230710E+02  0.50528861910E+02  0.30000006263E+02 0.  0.
         12    1    1    2    0    0  0.23871875610E+01 -0.28024720818E+02 -0.29361230710E+02  0.40659138090E+02  0.00000000000E+00 0. -1.
         11    1    3    3    0    0 -0.40999145339E+01  0.32186838421E+01  0.13778886039E+02  0.14731833749E+02  0.51100000000E-03 0. -1.
        -11    1    3    3    0    0  0.35603662273E+01  0.15738322487E+02  0.19871095508E+02  0.25597488926E+02  0.51100000000E-03 0.  1.
         12    1    3    3    0    0 -0.18476392545E+01  0.90677144887E+01 -0.42887508374E+01  0.10199539235E+02  0.00000000000E+00 0. -1.
</event>
<event>
 7    1  0.6245487E-013  0.5052886E+02  0.7816164E-02  0.1300439E+00
        -11   -1    0    0    0    0  0.00000000000E+00  0.00000000000E+00  0.45593999997E+02  0.45594000000E+02  0.51100000000E-03 0.  1.
         11   -1    0    0    0    0 -0.00000000000E+00 -0.00000000000E+00 -0.45593999997E+02  0.45594000000E+02  0.51100000000E-03 0. -1.
    9900012    2    1    2    0    0  0.26676483942E+02  0.21322916082E+02  0.22064999971E+02  0.50528858722E+02  0.29999996573E+02 0.  0.
         12    1    1    2    0    0 -0.26676483942E+02 -0.21322916082E+02 -0.22064999971E+02  0.40659141278E+02  0.00000000000E+00 0. -1.
         11    1    3    3    0    0 -0.25190774110E+01 -0.85275735256E+00  0.26985847900E+01  0.37888396950E+01  0.51100000000E-03 0. -1.
        -11    1    3    3    0    0  0.13200911946E+02  0.29044268119E+01 -0.21941419599E+01  0.13693576250E+02  0.51100000000E-03 0.  1.
         12    1    3    3    0    0  0.15994649407E+02  0.19271246623E+02  0.21560557140E+02  0.33046442777E+02  0.00000000000E+00 0. -1.
</event>
<event>
 7    1  0.6245487E-013  0.5052886E+02  0.7816164E-02  0.1300439E+00
        -11   -1    0    0    0    0  0.00000000000E+00  0.00000000000E+00  0.45593999997E+02  0.45594000000E+02  0.51100000000E-03 0.  1.
         11   -1    0    0    0    0 -0.00000000000E+00 -0.00000000000E+00 -0.45593999997E+02  0.45594000000E+02  0.51100000000E-03 0. -1.
    9900012    2    1    2    0    0 -0.31409325985E+02 -0.20548838978E+02 -0.15632181747E+02  0.50528860211E+02  0.30000001098E+02 0.  0.
         12    1    1    2    0    0  0.31409325985E+02  0.20548838978E+02  0.15632181747E+02  0.40659139789E+02  0.00000000000E+00 0. -1.
         11    1    3    3    0    0 -0.70097805726E+01 -0.12302227962E+02  0.69411742603E+00  0.14176164353E+02  0.51100000000E-03 0. -1.
        -11    1    3    3    0    0 -0.24695422748E+02 -0.77411953935E+00 -0.10384141932E+02  0.26800999416E+02  0.51100000000E-03 0.  1.
         12    1    3    3    0    0  0.29587733478E+00 -0.74724914768E+01 -0.59421572405E+01  0.95516964430E+01  0.00000000000E+00 0. -1.
</event>
<event>
 7    1  0.6245487E-013  0.5052886E+02  0.7816164E-02  0.1300439E+00
        -11   -1    0    0    0    0  0.00000000000E+00  0.00000000000E+00  0.45593999997E+02  0.45594000000E+02  0.51100000000E-03 0. -1.
         11   -1    0    0    0    0 -0.00000000000E+00 -0.00000000000E+00 -0.45593999997E+02  0.45594000000E+02  0.51100000000E-03 0.  1.
    9900012    2    1    2    0    0 -0.10011761459E+02  0.29343933587E+02 -0.26303305639E+02  0.50528859657E+02  0.29999999414E+02 0.  0.
         12    1    1    2    0    0  0.10011761459E+02 -0.29343933587E+02  0.26303305639E+02  0.40659140343E+02  0.00000000000E+00 0. -1.
         11    1    3    3    0    0 -0.30922979127E+01  0.79993893124E+01  0.37376992988E+01  0.93553691569E+01  0.51100000000E-03 0. -1.
        -11    1    3    3    0    0  0.33711870373E+01  0.35785934457E+01 -0.16025923154E+00  0.49190361223E+01  0.51100000000E-03 0.  1.
        -12    1    3    3    0    0 -0.10290650584E+02  0.17765950829E+02 -0.29880745706E+02  0.36254454378E+02  0.00000000000E+00 0.  1.
</event>
<event>
 7    1  0.6245487E-013  0.5052889E+02  0.7816164E-02  0.1300439E+00
        -11   -1    0    0    0    0  0.00000000000E+00  0.00000000000E+00  0.45593999997E+02  0.45594000000E+02  0.51100000000E-03 0. -1.
         11   -1    0    0    0    0 -0.00000000000E+00 -0.00000000000E+00 -0.45593999997E+02  0.45594000000E+02  0.51100000000E-03 0.  1.
    9900012    2    1    2    0    0 -0.23236855898E+02 -0.23554512893E+02 -0.23630425121E+02  0.50528886126E+02  0.30000079868E+02 0.  0.
         12    1    1    2    0    0  0.23236855898E+02  0.23554512893E+02  0.23630425121E+02  0.40659113874E+02  0.00000000000E+00 0. -1.
         11    1    3    3    0    0 -0.64841191256E+01 -0.20003465524E+02 -0.16259056043E+02  0.26580807691E+02  0.51100000000E-03 0. -1.
        -11    1    3    3    0    0 -0.47484135766E+01 -0.65223591039E+00 -0.10207889112E+02  0.11277138093E+02  0.51100000000E-03 0.  1.
        -12    1    3    3    0    0 -0.12004323195E+02 -0.28988114579E+01  0.28365200338E+01  0.12670940342E+02  0.00000000000E+00 0.  1.
</event>
<event>
 7    1  0.6245487E-013  0.5052886E+02  0.7816164E-02  0.1300439E+00
        -11   -1    0    0    0    0  0.00000000000E+00  0.00000000000E+00  0.45593999997E+02  0.45594000000E+02  0.51100000000E-03 0.  1.
         11   -1    0    0    0    0 -0.00000000000E+00 -0.00000000000E+00 -0.45593999997E+02  0.45594000000E+02  0.51100000000E-03 0. -1.
    9900012    2    1    2    0    0  0.31914716698E+02  0.22423376393E+02  0.11480788617E+02  0.50528862552E+02  0.30000008212E+02 0.  0.
         12    1    1    2    0    0 -0.31914716698E+02 -0.22423376393E+02 -0.11480788617E+02  0.40659137448E+02  0.00000000000E+00 0. -1.
         11    1    3    3    0    0  0.13382074887E+00  0.53917349650E+00 -0.29229612204E+01  0.29752846266E+01  0.51100000000E-03 0. -1.
        -11    1    3    3    0    0  0.11745097342E+02 -0.29980213967E+01  0.91291747778E+01  0.15174889662E+02  0.51100000000E-03 0.  1.
        -12    1    3    3    0    0  0.20035798607E+02  0.24882224293E+02  0.52745750597E+01  0.32378688263E+02  0.00000000000E+00 0.  1.
</event>
<event>
 7    1  0.6245487E-013  0.5052887E+02  0.7816164E-02  0.1300439E+00
        -11   -1    0    0    0    0  0.00000000000E+00  0.00000000000E+00  0.45593999997E+02  0.45594000000E+02  0.51100000000E-03 0.  1.
         11   -1    0    0    0    0 -0.00000000000E+00 -0.00000000000E+00 -0.45593999997E+02  0.45594000000E+02  0.51100000000E-03 0. -1.
    9900012    2    1    2    0    0 -0.30522207849E+02 -0.19982985554E+01  0.26787436714E+02  0.50528866527E+02  0.30000020295E+02 0.  0.
         12    1    1    2    0    0  0.30522207849E+02  0.19982985554E+01 -0.26787436714E+02  0.40659133473E+02  0.00000000000E+00 0. -1.
         11    1    3    3    0    0 -0.26734043810E+02  0.29803815215E+01  0.13861311990E+02  0.30260993751E+02  0.51100000000E-03 0. -1.
        -11    1    3    3    0    0 -0.31605820518E+01  0.11779469291E+01  0.13628428450E+02  0.14039618946E+02  0.51100000000E-03 0.  1.
         12    1    3    3    0    0 -0.62758198634E+00 -0.61566270060E+01 -0.70230372605E+00  0.62282538295E+01  0.00000000000E+00 0. -1.
</event>
<event>
 7    1  0.6245487E-013  0.5052886E+02  0.7816164E-02  0.1300439E+00
        -11   -1    0    0    0    0  0.00000000000E+00  0.00000000000E+00  0.45593999997E+02  0.45594000000E+02  0.51100000000E-03 0.  1.
         11   -1    0    0    0    0 -0.00000000000E+00 -0.00000000000E+00 -0.45593999997E+02  0.45594000000E+02  0.51100000000E-03 0. -1.
    9900012    2    1    2    0    0 -0.11850404987E+02  0.20019958606E+02  0.33345683707E+02  0.50528862493E+02  0.30000008034E+02 0.  0.
         12    1    1    2    0    0  0.11850404987E+02 -0.20019958606E+02 -0.33345683707E+02  0.40659137507E+02  0.00000000000E+00 0. -1.
         11    1    3    3    0    0  0.49945672163E+01  0.14277929498E+01  0.32465603925E+01  0.61257202865E+01  0.51100000000E-03 0.  1.
        -11    1    3    3    0    0 -0.45744455165E+01  0.62718398884E+01 -0.18935230787E+01  0.79904291048E+01  0.51100000000E-03 0. -1.
        -12    1    3    3    0    0 -0.12270526687E+02  0.12320325768E+02  0.31992646393E+02  0.36412713102E+02  0.00000000000E+00 0.  1.
</event>
<event>
 7    1  0.6245487E-013  0.5052887E+02  0.7816164E-02  0.1300439E+00
        -11   -1    0    0    0    0  0.00000000000E+00  0.00000000000E+00  0.45593999997E+02  0.45594000000E+02  0.51100000000E-03 0. -1.
         11   -1    0    0    0    0 -0.00000000000E+00 -0.00000000000E+00 -0.45593999997E+02  0.45594000000E+02  0.51100000000E-03 0.  1.
    9900012    2    1    2    0    0 -0.21830552677E+02  0.20915741769E+02 -0.27186833348E+02  0.50528865830E+02  0.30000018177E+02 0.  0.
         12    1    1    2    0    0  0.21830552677E+02 -0.20915741769E+02  0.27186833348E+02  0.40659134170E+02  0.00000000000E+00 0. -1.
         11    1    3    3    0    0 -0.23017422075E+02  0.87334623156E+01 -0.19326296739E+02  0.31298256004E+02  0.51100000000E-03 0. -1.
        -11    1    3    3    0    0 -0.51255957616E+01  0.91761865697E+01 -0.40172201857E+01  0.11252208235E+02  0.51100000000E-03 0.  1.
        -12    1    3    3    0    0  0.63124651595E+01  0.30060928839E+01 -0.38433164235E+01  0.79784015910E+01  0.00000000000E+00 0.  1.
</event>
<event>
 7    1  0.6245487E-013  0.5052886E+02  0.7816164E-02  0.1300439E+00
        -11   -1    0    0    0    0  0.00000000000E+00  0.00000000000E+00  0.45593999997E+02  0.45594000000E+02  0.51100000000E-03 0.  1.
         11   -1    0    0    0    0 -0.00000000000E+00 -0.00000000000E+00 -0.45593999997E+02  0.45594000000E+02  0.51100000000E-03 0. -1.
    9900012    2    1    2    0    0 -0.72610134923E+01 -0.36091137408E+01  0.39842408836E+02  0.50528861289E+02  0.30000004373E+02 0.  0.
         12    1    1    2    0    0  0.72610134923E+01  0.36091137408E+01 -0.39842408836E+02  0.40659138711E+02  0.00000000000E+00 0. -1.
         11    1    3    3    0    0  0.50145752287E+01 -0.81258100033E+01  0.55745098210E+01  0.11056668257E+02  0.51100000000E-03 0. -1.
        -11    1    3    3    0    0 -0.65156973196E+01 -0.50324320942E+01  0.17425706563E+02  0.19272647296E+02  0.51100000000E-03 0.  1.
         12    1    3    3    0    0 -0.57598914013E+01  0.95491283567E+01  0.16842192452E+02  0.20199545735E+02  0.00000000000E+00 0. -1.
</event>
<event>
 7    1  0.6245487E-013  0.5052886E+02  0.7816164E-02  0.1300439E+00
        -11   -1    0    0    0    0  0.00000000000E+00  0.00000000000E+00  0.45593999997E+02  0.45594000000E+02  0.51100000000E-03 0.  1.
         11   -1    0    0    0    0 -0.00000000000E+00 -0.00000000000E+00 -0.45593999997E+02  0.45594000000E+02  0.51100000000E-03 0. -1.
    9900012    2    1    2    0    0 -0.25353269725E+02 -0.45600488830E+01  0.31457642811E+02  0.50528860525E+02  0.30000002053E+02 0.  0.
         12    1    1    2    0    0  0.25353269725E+02  0.45600488830E+01 -0.31457642811E+02  0.40659139475E+02  0.00000000000E+00 0. -1.
         11    1    3    3    0    0 -0.18258740619E+01 -0.14334817628E+01 -0.16630612984E+01  0.28556013723E+01  0.51100000000E-03 0. -1.
        -11    1    3    3    0    0 -0.25134727249E+02  0.18517734251E+01  0.16195307586E+02  0.29957829807E+02  0.51100000000E-03 0.  1.
         12    1    3    3    0    0  0.16073315857E+01 -0.49783405453E+01  0.16925396524E+02  0.17715429346E+02  0.00000000000E+00 0. -1.
</event>
<event>
 7    1  0.6245487E-013  0.5052886E+02  0.7816164E-02  0.1300439E+00
        -11   -1    0    0    0    0  0.00000000000E+00  0.00000000000E+00  0.45593999997E+02  0.45594000000E+02  0.51100000000E-03 0. -1.
         11   -1    0    0    0    0 -0.00000000000E+00 -0.00000000000E+00 -0.45593999997E+02  0.45594000000E+02  0.51100000000E-03 0.  1.
    9900012    2    1    2    0    0 -0.12644683700E+02  0.78886450536E+01 -0.37829183340E+02  0.50528857624E+02  0.29999993233E+02 0.  0.
         12    1    1    2    0    0  0.12644683700E+02 -0.78886450536E+01  0.37829183340E+02  0.40659142376E+02  0.00000000000E+00 0. -1.
         11    1    3    3    0    0 -0.13075960733E+01 -0.49445130784E+01 -0.75806332052E+01  0.91446168387E+01  0.51100000000E-03 0. -1.
        -11    1    3    3    0    0 -0.11560055131E+02 -0.67241744406E+00 -0.47242549272E+01  0.12506222640E+02  0.51100000000E-03 0.  1.
         12    1    3    3    0    0  0.22296750443E+00  0.13505575576E+02 -0.25524295207E+02  0.28878018145E+02  0.00000000000E+00 0. -1.
</event>
<event>
 7    1  0.6245487E-013  0.5052887E+02  0.7816164E-02  0.1300439E+00
        -11   -1    0    0    0    0  0.00000000000E+00  0.00000000000E+00  0.45593999997E+02  0.45594000000E+02  0.51100000000E-03 0. -1.
         11   -1    0    0    0    0 -0.00000000000E+00 -0.00000000000E+00 -0.45593999997E+02  0.45594000000E+02  0.51100000000E-03 0.  1.
    9900012    2    1    2    0    0 -0.20394626718E+02  0.29676932720E+02  0.18881311217E+02  0.50528867595E+02  0.30000023543E+02 0.  0.
         12    1    1    2    0    0  0.20394626718E+02 -0.29676932720E+02 -0.18881311217E+02  0.40659132405E+02  0.00000000000E+00 0. -1.
         11    1    3    3    0    0  0.37730450055E+01  0.29985534946E+01  0.64859350846E+01  0.80805040596E+01  0.51100000000E-03 0. -1.
        -11    1    3    3    0    0 -0.30555720671E+01  0.14705684693E+02 -0.37209967172E+00  0.15024384892E+02  0.51100000000E-03 0.  1.
         12    1    3    3    0    0 -0.21112099656E+02  0.11972694532E+02  0.12767475805E+02  0.27423978644E+02  0.00000000000E+00 0. -1.
</event>
<event>
 7    1  0.6245487E-013  0.5052886E+02  0.7816164E-02  0.1300439E+00
        -11   -1    0    0    0    0  0.00000000000E+00  0.00000000000E+00  0.45593999997E+02  0.45594000000E+02  0.51100000000E-03 0. -1.
         11   -1    0    0    0    0 -0.00000000000E+00 -0.00000000000E+00 -0.45593999997E+02  0.45594000000E+02  0.51100000000E-03 0.  1.
    9900012    2    1    2    0    0  0.24924370753E+02  0.30513851219E+02 -0.10042227767E+02  0.50528859427E+02  0.29999998713E+02 0.  0.
         12    1    1    2    0    0 -0.24924370753E+02 -0.30513851219E+02  0.10042227767E+02  0.40659140573E+02  0.00000000000E+00 0. -1.
         11    1    3    3    0    0  0.13382337883E+02  0.64637254175E+01 -0.49486020678E+01  0.15663823805E+02  0.51100000000E-03 0. -1.
        -11    1    3    3    0    0  0.12455432659E+02  0.25010540483E+02 -0.10081887764E+02  0.29703693358E+02  0.51100000000E-03 0.  1.
        -12    1    3    3    0    0 -0.91339978883E+00 -0.96041468137E+00  0.49882620653E+01  0.51613422640E+01  0.00000000000E+00 0.  1.
</event>
<event>
 7    1  0.6245487E-013  0.5052887E+02  0.7816164E-02  0.1300439E+00
        -11   -1    0    0    0    0  0.00000000000E+00  0.00000000000E+00  0.45593999997E+02  0.45594000000E+02  0.51100000000E-03 0.  1.
         11   -1    0    0    0    0 -0.00000000000E+00 -0.00000000000E+00 -0.45593999997E+02  0.45594000000E+02  0.51100000000E-03 0. -1.
    9900012    2    1    2    0    0  0.39624413461E+02  0.62270867860E+01  0.66554050776E+01  0.50528866110E+02  0.30000019027E+02 0.  0.
         12    1    1    2    0    0 -0.39624413461E+02 -0.62270867860E+01 -0.66554050776E+01  0.40659133890E+02  0.00000000000E+00 0. -1.
         11    1    3    3    0    0  0.11354580872E+02 -0.70751973345E+01 -0.60532632735E+01  0.14684240553E+02  0.51100000000E-03 0.  1.
        -11    1    3    3    0    0  0.12070286907E+01  0.50951587774E+01  0.19843305184E+01  0.55995650808E+01  0.51100000000E-03 0. -1.
        -12    1    3    3    0    0  0.27062803898E+02  0.82071253432E+01  0.10724337833E+02  0.30245060476E+02  0.00000000000E+00 0.  1.
</event>
<event>
 7    1  0.7373620E-013  0.5052885E+02  0.7816164E-02  0.1300439E+00
        -11   -1    0    0    0    0  0.00000000000E+00  0.00000000000E+00  0.45593999997E+02  0.45594000000E+02  0.51100000000E-03 0.  1.
         11   -1    0    0    0    0 -0.00000000000E+00 -0.00000000000E+00 -0.45593999997E+02  0.45594000000E+02  0.51100000000E-03 0. -1.
    9900012    2    1    2    0    0  0.36240044873E+02  0.10846237187E+02  0.14905864268E+02  0.50528849700E+02  0.29999969148E+02 0.  0.
         12    1    1    2    0    0 -0.36240044873E+02 -0.10846237187E+02 -0.14905864268E+02  0.40659150300E+02  0.00000000000E+00 0. -1.
         11    1    3    3    0    0  0.76195740533E+01 -0.10053014298E+01 -0.64974592177E+01  0.10064070561E+02  0.51100000000E-03 0. -1.
        -11    1    3    3    0    0  0.33571369908E+01  0.80591236808E+01  0.65482754669E+01  0.10913283426E+02  0.51100000000E-03 0.  1.
        -12    1    3    3    0    0  0.25263333829E+02  0.37924149362E+01  0.14855048019E+02  0.29551495713E+02  0.00000000000E+00 0.  1.
</event>
<event>
 7    1  0.6245487E-013  0.5052888E+02  0.7816164E-02  0.1300439E+00
        -11   -1    0    0    0    0  0.00000000000E+00  0.00000000000E+00  0.45593999997E+02  0.45594000000E+02  0.51100000000E-03 0.  1.
         11   -1    0    0    0    0 -0.00000000000E+00 -0.00000000000E+00 -0.45593999997E+02  0.45594000000E+02  0.51100000000E-03 0. -1.
    9900012    2    1    2    0    0 -0.12710632165E+02 -0.36495252963E+02 -0.12637246523E+02  0.50528884681E+02  0.30000075477E+02 0.  0.
         12    1    1    2    0    0  0.12710632165E+02  0.36495252963E+02  0.12637246523E+02  0.40659115319E+02  0.00000000000E+00 0. -1.
         11    1    3    3    0    0 -0.73945914840E+01 -0.21098096462E+02 -0.95418982341E+01  0.24307560134E+02  0.51100000000E-03 0.  1.
        -11    1    3    3    0    0 -0.58854988389E+00 -0.34121307945E+01  0.83176133148E+01  0.90095348959E+01  0.51100000000E-03 0. -1.
         12    1    3    3    0    0 -0.47274907968E+01 -0.11985025707E+02 -0.11412961603E+02  0.17211789651E+02  0.00000000000E+00 0. -1.
</event>
<event>
 7    1  0.6245487E-013  0.5052887E+02  0.7816164E-02  0.1300439E+00
        -11   -1    0    0    0    0  0.00000000000E+00  0.00000000000E+00  0.45593999997E+02  0.45594000000E+02  0.51100000000E-03 0. -1.
         11   -1    0    0    0    0 -0.00000000000E+00 -0.00000000000E+00 -0.45593999997E+02  0.45594000000E+02  0.51100000000E-03 0.  1.
    9900012    2    1    2    0    0  0.12815947192E+02  0.18946828454E+02 -0.33614496351E+02  0.50528866023E+02  0.30000018762E+02 0.  0.
         12    1    1    2    0    0 -0.12815947192E+02 -0.18946828454E+02  0.33614496351E+02  0.40659133977E+02  0.00000000000E+00 0. -1.
         11    1    3    3    0    0 -0.37273743706E+01  0.14711679894E+02 -0.26801207018E+02  0.30799862709E+02  0.51100000000E-03 0.  1.
        -11    1    3    3    0    0  0.13358625417E+01 -0.83857471654E+00  0.10278752678E+01  0.18826216064E+01  0.51100000000E-03 0. -1.
        -12    1    3    3    0    0  0.15207459021E+02  0.50737232759E+01 -0.78411646011E+01  0.17846381708E+02  0.00000000000E+00 0.  1.
</event>
<event>
 7    1  0.6245487E-013  0.5052886E+02  0.7816164E-02  0.1300439E+00
        -11   -1    0    0    0    0  0.00000000000E+00  0.00000000000E+00  0.45593999997E+02  0.45594000000E+02  0.51100000000E-03 0.  1.
         11   -1    0    0    0    0 -0.00000000000E+00 -0.00000000000E+00 -0.45593999997E+02  0.45594000000E+02  0.51100000000E-03 0. -1.
    9900012    2    1    2    0    0  0.38331818806E+02  0.12827928322E+02 -0.43911217991E+01  0.50528855534E+02  0.29999986881E+02 0.  0.
         12    1    1    2    0    0 -0.38331818806E+02 -0.12827928322E+02  0.43911217991E+01  0.40659144466E+02  0.00000000000E+00 0. -1.
         11    1    3    3    0    0  0.20653934331E+02 -0.28864601163E+01  0.40745546874E+01  0.21248968246E+02  0.51100000000E-03 0. -1.
        -11    1    3    3    0    0 -0.10604979716E+01  0.21006701332E+01  0.26880743508E+01  0.35725641958E+01  0.51100000000E-03 0.  1.
        -12    1    3    3    0    0  0.18738382447E+02  0.13613718306E+02 -0.11153750837E+02  0.25707323092E+02  0.00000000000E+00 0.  1.
</event>
<event>
 7    1  0.6245487E-013  0.5052886E+02  0.7816164E-02  0.1300439E+00
        -11   -1    0    0    0    0  0.00000000000E+00  0.00000000000E+00  0.45593999997E+02  0.45594000000E+02  0.51100000000E-03 0. -1.
         11   -1    0    0    0    0 -0.00000000000E+00 -0.00000000000E+00 -0.45593999997E+02  0.45594000000E+02  0.51100000000E-03 0.  1.
    9900012    2    1    2    0    0 -0.21543410472E+02  0.19464255099E+02 -0.28463838264E+02  0.50528857731E+02  0.29999993559E+02 0.  0.
         12    1    1    2    0    0  0.21543410472E+02 -0.19464255099E+02  0.28463838264E+02  0.40659142269E+02  0.00000000000E+00 0. -1.
         11    1    3    3    0    0 -0.14614206835E+01  0.68101656308E+01 -0.15344127556E+02  0.16851004631E+02  0.51100000000E-03 0.  1.
        -11    1    3    3    0    0 -0.14203754994E+02  0.80460722902E+00 -0.14579122330E+02  0.20370195308E+02  0.51100000000E-03 0. -1.
        -12    1    3    3    0    0 -0.58782347941E+01  0.11849482239E+02  0.14594116218E+01  0.13307657792E+02  0.00000000000E+00 0.  1.
</event>
<event>
 7    1  0.6245487E-013  0.5052886E+02  0.7816164E-02  0.1300439E+00
        -11   -1    0    0    0    0  0.00000000000E+00  0.00000000000E+00  0.45593999997E+02  0.45594000000E+02  0.51100000000E-03 0.  1.
         11   -1    0    0    0    0 -0.00000000000E+00 -0.00000000000E+00 -0.45593999997E+02  0.45594000000E+02  0.51100000000E-03 0. -1.
    9900012    2    1    2    0    0  0.24255980202E+02 -0.63778300191E+01  0.32002130081E+02  0.50528860548E+02  0.30000002121E+02 0.  0.
         12    1    1    2    0    0 -0.24255980202E+02  0.63778300191E+01 -0.32002130081E+02  0.40659139452E+02  0.00000000000E+00 0. -1.
         11    1    3    3    0    0 -0.13463452869E+00  0.19488913170E+00  0.90070328645E+01  0.90101470306E+01  0.51100000000E-03 0. -1.
        -11    1    3    3    0    0  0.35140234650E+01 -0.18654307020E+01  0.19417667280E+02  0.19821049303E+02  0.51100000000E-03 0.  1.
         12    1    3    3    0    0  0.20876591265E+02 -0.47072884487E+01  0.35774299359E+01  0.21697664214E+02  0.00000000000E+00 0. -1.
</event>
<event>
 7    1  0.6245487E-013  0.5052886E+02  0.7816164E-02  0.1300439E+00
        -11   -1    0    0    0    0  0.00000000000E+00  0.00000000000E+00  0.45593999997E+02  0.45594000000E+02  0.51100000000E-03 0.  1.
         11   -1    0    0    0    0 -0.00000000000E+00 -0.00000000000E+00 -0.45593999997E+02  0.45594000000E+02  0.51100000000E-03 0. -1.
    9900012    2    1    2    0    0 -0.20592607353E+02  0.34595216181E+02  0.56816284487E+01  0.50528863733E+02  0.30000011802E+02 0.  0.
         12    1    1    2    0    0  0.20592607353E+02 -0.34595216181E+02 -0.56816284487E+01  0.40659136267E+02  0.00000000000E+00 0. -1.
         11    1    3    3    0    0 -0.77004943285E+01  0.34003630263E+01  0.31854964711E+01  0.90004149705E+01  0.51100000000E-03 0. -1.
        -11    1    3    3    0    0 -0.52955923987E+01  0.76208187542E+00 -0.69496442689E+01  0.87704973270E+01  0.51100000000E-03 0.  1.
        -12    1    3    3    0    0 -0.75965206260E+01  0.30432771279E+02  0.94457762465E+01  0.32757951435E+02  0.00000000000E+00 0.  1.
</event>
<event>
 7    1  0.6245487E-013  0.5052886E+02  0.7816164E-02  0.1300439E+00
        -11   -1    0    0    0    0  0.00000000000E+00  0.00000000000E+00  0.45593999997E+02  0.45594000000E+02  0.51100000000E-03 0. -1.
         11   -1    0    0    0    0 -0.00000000000E+00 -0.00000000000E+00 -0.45593999997E+02  0.45594000000E+02  0.51100000000E-03 0.  1.
    9900012    2    1    2    0    0 -0.11891126581E+02 -0.37851698079E+02 -0.88890699302E+01  0.50528861998E+02  0.30000006529E+02 0.  0.
         12    1    1    2    0    0  0.11891126581E+02  0.37851698079E+02  0.88890699302E+01  0.40659138002E+02  0.00000000000E+00 0. -1.
         11    1    3    3    0    0  0.53227730972E+01 -0.43822846197E+00 -0.31045917375E+01  0.61775762033E+01  0.51100000000E-03 0. -1.
        -11    1    3    3    0    0 -0.60121945469E+01 -0.29349559386E+02 -0.59682225560E+01  0.30547713502E+02  0.51100000000E-03 0.  1.
        -12    1    3    3    0    0 -0.11201705131E+02 -0.80639102310E+01  0.18374436333E+00  0.13803572293E+02  0.00000000000E+00 0.  1.
</event>
<event>
 7    1  0.6245487E-013  0.5052886E+02  0.7816164E-02  0.1300439E+00
        -11   -1    0    0    0    0  0.00000000000E+00  0.00000000000E+00  0.45593999997E+02  0.45594000000E+02  0.51100000000E-03 0.  1.
         11   -1    0    0    0    0 -0.00000000000E+00 -0.00000000000E+00 -0.45593999997E+02  0.45594000000E+02  0.51100000000E-03 0. -1.
    9900012    2    1    2    0    0 -0.23337267224E+02 -0.40840658403E+01  0.33043276486E+02  0.50528858885E+02  0.29999997068E+02 0.  0.
         12    1    1    2    0    0  0.23337267224E+02  0.40840658403E+01 -0.33043276486E+02  0.40659141115E+02  0.00000000000E+00 0. -1.
         11    1    3    3    0    0 -0.75612222672E+01 -0.13340922627E+02  0.14349656548E+02  0.21001546182E+02  0.51100000000E-03 0. -1.
        -11    1    3    3    0    0 -0.22415315307E+01  0.39532802778E+01  0.13245382353E+02  0.14003322552E+02  0.51100000000E-03 0.  1.
        -12    1    3    3    0    0 -0.13534513426E+02  0.53035765087E+01  0.54482375847E+01  0.15523990152E+02  0.00000000000E+00 0.  1.
</event>
<event>
 7    1  0.8383590E-013  0.5052891E+02  0.7816164E-02  0.1300439E+00
        -11   -1    0    0    0    0  0.00000000000E+00  0.00000000000E+00  0.45593999997E+02  0.45594000000E+02  0.51100000000E-03 0. -1.
         11   -1    0    0    0    0 -0.00000000000E+00 -0.00000000000E+00 -0.45593999997E+02  0.45594000000E+02  0.51100000000E-03 0.  1.
    9900012    2    1    2    0    0  0.32987432517E+02  0.13021866988E+02 -0.19885209610E+02  0.50528913867E+02  0.30000164190E+02 0.  0.
         12    1    1    2    0    0 -0.32987432517E+02 -0.13021866988E+02  0.19885209610E+02  0.40659086133E+02  0.00000000000E+00 0. -1.
         11    1    3    3    0    0  0.99172306688E+01 -0.49096273684E+01  0.32023923619E+01  0.11520035683E+02  0.51100000000E-03 0. -1.
        -11    1    3    3    0    0  0.11289655986E+02  0.10634144948E+02 -0.51503149679E+01  0.16342188213E+02  0.51100000000E-03 0.  1.
        -12    1    3    3    0    0  0.11780545862E+02  0.72973494085E+01 -0.17937287004E+02  0.22666689972E+02  0.00000000000E+00 0.  1.
</event>
<event>
 7    1  0.6245487E-013  0.5052889E+02  0.7816164E-02  0.1300439E+00
        -11   -1    0    0    0    0  0.00000000000E+00  0.00000000000E+00  0.45593999997E+02  0.45594000000E+02  0.51100000000E-03 0.  1.
         11   -1    0    0    0    0 -0.00000000000E+00 -0.00000000000E+00 -0.45593999997E+02  0.45594000000E+02  0.51100000000E-03 0. -1.
    9900012    2    1    2    0    0 -0.67108608515E+01  0.29703688596E+02  0.26941025284E+02  0.50528885241E+02  0.30000077179E+02 0.  0.
         12    1    1    2    0    0  0.67108608515E+01 -0.29703688596E+02 -0.26941025284E+02  0.40659114759E+02  0.00000000000E+00 0. -1.
         11    1    3    3    0    0 -0.13193300806E+02  0.18043745107E+02  0.28872996851E+02  0.36514242031E+02  0.51100000000E-03 0.  1.
        -11    1    3    3    0    0  0.11705100284E+01  0.51535732307E+01  0.39302636564E+00  0.52994226814E+01  0.51100000000E-03 0. -1.
        -12    1    3    3    0    0  0.53119299265E+01  0.65063702582E+01 -0.23249979325E+01  0.87152205289E+01  0.00000000000E+00 0.  1.
</event>
<event>
 7    1  0.6245487E-013  0.5052887E+02  0.7816164E-02  0.1300439E+00
        -11   -1    0    0    0    0  0.00000000000E+00  0.00000000000E+00  0.45593999997E+02  0.45594000000E+02  0.51100000000E-03 0.  1.
         11   -1    0    0    0    0 -0.00000000000E+00 -0.00000000000E+00 -0.45593999997E+02  0.45594000000E+02  0.51100000000E-03 0. -1.
    9900012    2    1    2    0    0  0.24758081172E+02 -0.32167175523E+02  0.23399508387E+01  0.50528866532E+02  0.30000020310E+02 0.  0.
         12    1    1    2    0    0 -0.24758081172E+02  0.32167175523E+02 -0.23399508387E+01  0.40659133468E+02  0.00000000000E+00 0. -1.
         11    1    3    3    0    0 -0.26936648670E+01  0.11126342895E+01  0.27709369975E+01  0.40214273067E+01  0.51100000000E-03 0. -1.
        -11    1    3    3    0    0  0.24687877178E+02 -0.26016615968E+02  0.60696260666E+01  0.36375760429E+02  0.51100000000E-03 0.  1.
         12    1    3    3    0    0  0.27638688614E+01 -0.72631938450E+01 -0.65006122253E+01  0.10131678796E+02  0.00000000000E+00 0. -1.
</event>
<event>
 7    1  0.6245487E-013  0.5052893E+02  0.7816164E-02  0.1300439E+00
        -11   -1    0    0    0    0  0.00000000000E+00  0.00000000000E+00  0.45593999997E+02  0.45594000000E+02  0.51100000000E-03 0. -1.
         11   -1    0    0    0    0 -0.00000000000E+00 -0.00000000000E+00 -0.45593999997E+02  0.45594000000E+02  0.51100000000E-03 0.  1.
    9900012    2    1    2    0    0  0.39671041821E+02 -0.12121893516E+00 -0.89080672769E+01  0.50528930707E+02  0.30000215375E+02 0.  0.
         12    1    1    2    0    0 -0.39671041821E+02  0.12121893516E+00  0.89080672769E+01  0.40659069293E+02  0.00000000000E+00 0. -1.
         11    1    3    3    0    0  0.10642816752E+02  0.58491423745E+01  0.74982371159E+01  0.14272546200E+02  0.51100000000E-03 0. -1.
        -11    1    3    3    0    0  0.86787520512E+01 -0.77029500265E+01 -0.35977082791E+01  0.12149060927E+02  0.51100000000E-03 0.  1.
        -12    1    3    3    0    0  0.20349473018E+02  0.17325887168E+01 -0.12808596114E+02  0.24107323580E+02  0.00000000000E+00 0.  1.
</event>
<event>
 7    1  0.6245487E-013  0.5052886E+02  0.7816164E-02  0.1300439E+00
        -11   -1    0    0    0    0  0.00000000000E+00  0.00000000000E+00  0.45593999997E+02  0.45594000000E+02  0.51100000000E-03 0.  1.
         11   -1    0    0    0    0 -0.00000000000E+00 -0.00000000000E+00 -0.45593999997E+02  0.45594000000E+02  0.51100000000E-03 0. -1.
    9900012    2    1    2    0    0 -0.33928774916E+02 -0.22107708017E+02  0.36405049747E+01  0.50528858377E+02  0.29999995522E+02 0.  0.
         12    1    1    2    0    0  0.33928774916E+02  0.22107708017E+02 -0.36405049747E+01  0.40659141623E+02  0.00000000000E+00 0. -1.
         11    1    3    3    0    0 -0.74405755040E+01 -0.50909051498E+01 -0.74299654879E+01  0.11682630975E+02  0.51100000000E-03 0. -1.
        -11    1    3    3    0    0 -0.25627891016E+02 -0.70345353924E+01  0.11166616515E+02  0.28826494944E+02  0.51100000000E-03 0.  1.
         12    1    3    3    0    0 -0.86030839606E+00 -0.99822674747E+01 -0.96146052015E-01  0.10019732458E+02  0.00000000000E+00 0. -1.
</event>
<event>
 7    1  0.6245487E-013  0.5052886E+02  0.7816164E-02  0.1300439E+00
        -11   -1    0    0    0    0  0.00000000000E+00  0.00000000000E+00  0.45593999997E+02  0.45594000000E+02  0.51100000000E-03 0.  1.
         11   -1    0    0    0    0 -0.00000000000E+00 -0.00000000000E+00 -0.45593999997E+02  0.45594000000E+02  0.51100000000E-03 0. -1.
    9900012    2    1    2    0    0  0.36880434944E+02 -0.13213339302E+02 -0.10881492943E+02  0.50528859505E+02  0.29999998950E+02 0.  0.
         12    1    1    2    0    0 -0.36880434944E+02  0.13213339302E+02  0.10881492943E+02  0.40659140495E+02  0.00000000000E+00 0. -1.
         11    1    3    3    0    0  0.38487211413E+01 -0.89779106659E+01 -0.40004267612E+01  0.10555517462E+02  0.51100000000E-03 0. -1.
        -11    1    3    3    0    0  0.87643550270E+01  0.49712187263E+01  0.52063723067E+01  0.11341659822E+02  0.51100000000E-03 0.  1.
         12    1    3    3    0    0  0.24267358775E+02 -0.92066473626E+01 -0.12087438488E+02  0.28631682221E+02  0.00000000000E+00 0. -1.
</event>
<event>
 7    1  0.6245487E-013  0.5052886E+02  0.7816164E-02  0.1300439E+00
        -11   -1    0    0    0    0  0.00000000000E+00  0.00000000000E+00  0.45593999997E+02  0.45594000000E+02  0.51100000000E-03 0.  1.
         11   -1    0    0    0    0 -0.00000000000E+00 -0.00000000000E+00 -0.45593999997E+02  0.45594000000E+02  0.51100000000E-03 0. -1.
    9900012    2    1    2    0    0 -0.11682931941E+02  0.38162828171E+02  0.77636105294E+01  0.50528855872E+02  0.29999987910E+02 0.  0.
         12    1    1    2    0    0  0.11682931941E+02 -0.38162828171E+02 -0.77636105294E+01  0.40659144128E+02  0.00000000000E+00 0. -1.
         11    1    3    3    0    0  0.25035676488E+01  0.15571843422E+02 -0.44569732923E+01  0.16389471307E+02  0.51100000000E-03 0. -1.
        -11    1    3    3    0    0  0.12524374002E+01  0.12318121678E+02  0.90249971298E+01  0.15321726227E+02  0.51100000000E-03 0.  1.
        -12    1    3    3    0    0 -0.15438936990E+02  0.10272863071E+02  0.31955866919E+01  0.18817658339E+02  0.00000000000E+00 0.  1.
</event>
<event>
 7    1  0.6245487E-013  0.5052887E+02  0.7816164E-02  0.1300439E+00
        -11   -1    0    0    0    0  0.00000000000E+00  0.00000000000E+00  0.45593999997E+02  0.45594000000E+02  0.51100000000E-03 0. -1.
         11   -1    0    0    0    0 -0.00000000000E+00 -0.00000000000E+00 -0.45593999997E+02  0.45594000000E+02  0.51100000000E-03 0.  1.
    9900012    2    1    2    0    0  0.24342494447E+02 -0.80079620467E+01 -0.31567072400E+02  0.50528873694E+02  0.30000042080E+02 0.  0.
         12    1    1    2    0    0 -0.24342494447E+02  0.80079620467E+01  0.31567072400E+02  0.40659126306E+02  0.00000000000E+00 0. -1.
         11    1    3    3    0    0  0.49180633388E+01  0.44787535886E+01  0.91852838129E-01  0.66524445068E+01  0.51100000000E-03 0. -1.
        -11    1    3    3    0    0 -0.37167991409E+01 -0.11979338032E+01 -0.80319144814E+01  0.89309177439E+01  0.51100000000E-03 0.  1.
        -12    1    3    3    0    0  0.23141230249E+02 -0.11288781832E+02 -0.23627010757E+02  0.34945511443E+02  0.00000000000E+00 0.  1.
</event>
<event>
 7    1  0.6245487E-013  0.5052886E+02  0.7816164E-02  0.1300439E+00
        -11   -1    0    0    0    0  0.00000000000E+00  0.00000000000E+00  0.45593999997E+02  0.45594000000E+02  0.51100000000E-03 0.  1.
         11   -1    0    0    0    0 -0.00000000000E+00 -0.00000000000E+00 -0.45593999997E+02  0.45594000000E+02  0.51100000000E-03 0. -1.
    9900012    2    1    2    0    0 -0.56318368144E+01 -0.38882042389E+02  0.10470683651E+02  0.50528855612E+02  0.29999987120E+02 0.  0.
         12    1    1    2    0    0  0.56318368144E+01  0.38882042389E+02 -0.10470683651E+02  0.40659144388E+02  0.00000000000E+00 0. -1.
         11    1    3    3    0    0 -0.51283829012E+01 -0.94932078415E+01  0.44665476298E+01  0.11677814620E+02  0.51100000000E-03 0. -1.
        -11    1    3    3    0    0  0.89716176393E+01 -0.25563558658E+02  0.83833765918E+01  0.28359591987E+02  0.51100000000E-03 0.  1.
         12    1    3    3    0    0 -0.94750715524E+01 -0.38252758894E+01 -0.23792405707E+01  0.10491449006E+02  0.00000000000E+00 0. -1.
</event>
<event>
 7    1  0.6245487E-013  0.5052886E+02  0.7816164E-02  0.1300439E+00
        -11   -1    0    0    0    0  0.00000000000E+00  0.00000000000E+00  0.45593999997E+02  0.45594000000E+02  0.51100000000E-03 0.  1.
         11   -1    0    0    0    0 -0.00000000000E+00 -0.00000000000E+00 -0.45593999997E+02  0.45594000000E+02  0.51100000000E-03 0. -1.
    9900012    2    1    2    0    0  0.21483159031E+02 -0.13903818697E+02  0.31596253449E+02  0.50528861687E+02  0.30000005584E+02 0.  0.
         12    1    1    2    0    0 -0.21483159031E+02  0.13903818697E+02 -0.31596253449E+02  0.40659138313E+02  0.00000000000E+00 0. -1.
         11    1    3    3    0    0  0.15417224298E+02 -0.85127557540E+01  0.21254669957E+02  0.27602876858E+02  0.51100000000E-03 0. -1.
        -11    1    3    3    0    0  0.16200343899E+01  0.70401437874E+01  0.42994281896E+01  0.84067365244E+01  0.51100000000E-03 0.  1.
         12    1    3    3    0    0  0.44459003431E+01 -0.12431206731E+02  0.60421553027E+01  0.14519248305E+02  0.00000000000E+00 0. -1.
</event>
<event>
 7    1  0.6245487E-013  0.5052886E+02  0.7816164E-02  0.1300439E+00
        -11   -1    0    0    0    0  0.00000000000E+00  0.00000000000E+00  0.45593999997E+02  0.45594000000E+02  0.51100000000E-03 0. -1.
         11   -1    0    0    0    0 -0.00000000000E+00 -0.00000000000E+00 -0.45593999997E+02  0.45594000000E+02  0.51100000000E-03 0.  1.
    9900012    2    1    2    0    0 -0.31366131673E+02 -0.21730293528E+02 -0.14040159347E+02  0.50528856533E+02  0.29999989919E+02 0.  0.
         12    1    1    2    0    0  0.31366131673E+02  0.21730293528E+02  0.14040159347E+02  0.40659143467E+02  0.00000000000E+00 0. -1.
         11    1    3    3    0    0  0.27378512694E+00 -0.14704687615E+00  0.30592950169E+01  0.30750394048E+01  0.51100000000E-03 0. -1.
        -11    1    3    3    0    0  0.30139159765E+01 -0.16154209861E+01  0.98734826269E+00  0.35592318453E+01  0.51100000000E-03 0.  1.
        -12    1    3    3    0    0 -0.34653832776E+02 -0.19967825666E+02 -0.18086802627E+02  0.43894585283E+02  0.00000000000E+00 0.  1.
</event>
<event>
 7    1  0.6245487E-013  0.5052886E+02  0.7816164E-02  0.1300439E+00
        -11   -1    0    0    0    0  0.00000000000E+00  0.00000000000E+00  0.45593999997E+02  0.45594000000E+02  0.51100000000E-03 0. -1.
         11   -1    0    0    0    0 -0.00000000000E+00 -0.00000000000E+00 -0.45593999997E+02  0.45594000000E+02  0.51100000000E-03 0.  1.
    9900012    2    1    2    0    0 -0.12151325072E+02  0.40768809550E+01 -0.38586137297E+02  0.50528860180E+02  0.30000001004E+02 0.  0.
         12    1    1    2    0    0  0.12151325072E+02 -0.40768809550E+01  0.38586137297E+02  0.40659139820E+02  0.00000000000E+00 0. -1.
         11    1    3    3    0    0 -0.29071986283E+01 -0.77309895117E+01 -0.73804595398E+01  0.11076605345E+02  0.51100000000E-03 0. -1.
        -11    1    3    3    0    0 -0.11288753622E+02 -0.65022873659E+00 -0.17330514594E+02  0.20693126687E+02  0.51100000000E-03 0.  1.
         12    1    3    3    0    0  0.20446271774E+01  0.12458099203E+02 -0.13875163164E+02  0.18759128148E+02  0.00000000000E+00 0. -1.
</event>
<event>
 7    1  0.6245487E-013  0.5052886E+02  0.7816164E-02  0.1300439E+00
        -11   -1    0    0    0    0  0.00000000000E+00  0.00000000000E+00  0.45593999997E+02  0.45594000000E+02  0.51100000000E-03 0. -1.
         11   -1    0    0    0    0 -0.00000000000E+00 -0.00000000000E+00 -0.45593999997E+02  0.45594000000E+02  0.51100000000E-03 0.  1.
    9900012    2    1    2    0    0  0.70389472278E+01  0.35127762029E+02 -0.19226527166E+02  0.50528858468E+02  0.29999995799E+02 0.  0.
         12    1    1    2    0    0 -0.70389472278E+01 -0.35127762029E+02  0.19226527166E+02  0.40659141532E+02  0.00000000000E+00 0. -1.
         11    1    3    3    0    0  0.64673046295E+01  0.65488733610E+01 -0.30236874215E+01  0.96879542399E+01  0.51100000000E-03 0. -1.
        -11    1    3    3    0    0  0.48434672727E+01  0.31780056174E+02 -0.14105607075E+02  0.35105545101E+02  0.51100000000E-03 0.  1.
        -12    1    3    3    0    0 -0.42718246744E+01 -0.32011675055E+01 -0.20972326696E+01  0.57353591271E+01  0.00000000000E+00 0.  1.
</event>
<event>
 7    1  0.6245487E-013  0.5052885E+02  0.7816164E-02  0.1300439E+00
        -11   -1    0    0    0    0  0.00000000000E+00  0.00000000000E+00  0.45593999997E+02  0.45594000000E+02  0.51100000000E-03 0. -1.
         11   -1    0    0    0    0 -0.00000000000E+00 -0.00000000000E+00 -0.45593999997E+02  0.45594000000E+02  0.51100000000E-03 0.  1.
    9900012    2    1    2    0    0  0.67886672871E+01 -0.40016205615E+02 -0.24048752062E+01  0.50528854164E+02  0.29999982718E+02 0.  0.
         12    1    1    2    0    0 -0.67886672871E+01  0.40016205615E+02  0.24048752062E+01  0.40659145836E+02  0.00000000000E+00 0. -1.
         11    1    3    3    0    0 -0.49362305037E+01 -0.81854138280E+01 -0.15977222244E+01  0.96912376758E+01  0.51100000000E-03 0. -1.
        -11    1    3    3    0    0  0.11021971165E+02 -0.27855325371E+02  0.81220149481E+01  0.31038204313E+02  0.51100000000E-03 0.  1.
         12    1    3    3    0    0  0.70292662552E+00 -0.39754664156E+01 -0.89291679298E+01  0.97994121753E+01  0.00000000000E+00 0. -1.
</event>
<event>
 7    1  0.6245487E-013  0.5052885E+02  0.7816164E-02  0.1300439E+00
        -11   -1    0    0    0    0  0.00000000000E+00  0.00000000000E+00  0.45593999997E+02  0.45594000000E+02  0.51100000000E-03 0.  1.
         11   -1    0    0    0    0 -0.00000000000E+00 -0.00000000000E+00 -0.45593999997E+02  0.45594000000E+02  0.51100000000E-03 0. -1.
    9900012    2    1    2    0    0  0.55268270798E+01  0.19112582204E+02  0.35458849483E+02  0.50528848229E+02  0.29999964678E+02 0.  0.
         12    1    1    2    0    0 -0.55268270798E+01 -0.19112582204E+02 -0.35458849483E+02  0.40659151771E+02  0.00000000000E+00 0. -1.
         11    1    3    3    0    0 -0.64575862569E+01  0.45917466090E+01  0.21806484812E+02  0.23201451189E+02  0.51100000000E-03 0. -1.
        -11    1    3    3    0    0 -0.10200621703E+00  0.10325884672E+02  0.90505307360E+01  0.13731220135E+02  0.51100000000E-03 0.  1.
         12    1    3    3    0    0  0.12086419554E+02  0.41949509226E+01  0.46018339349E+01  0.13596176905E+02  0.00000000000E+00 0. -1.
</event>
<event>
 7    1  0.6245487E-013  0.5052887E+02  0.7816164E-02  0.1300439E+00
        -11   -1    0    0    0    0  0.00000000000E+00  0.00000000000E+00  0.45593999997E+02  0.45594000000E+02  0.51100000000E-03 0.  1.
         11   -1    0    0    0    0 -0.00000000000E+00 -0.00000000000E+00 -0.45593999997E+02  0.45594000000E+02  0.51100000000E-03 0. -1.
    9900012    2    1    2    0    0 -0.37223952403E+01  0.18599629094E+02  0.35963346666E+02  0.50528871477E+02  0.30000035343E+02 0.  0.
         12    1    1    2    0    0  0.37223952403E+01 -0.18599629094E+02 -0.35963346666E+02  0.40659128523E+02  0.00000000000E+00 0. -1.
         11    1    3    3    0    0 -0.61301442240E+01  0.61783883409E-01 -0.23501381092E+01  0.65654881653E+01  0.51100000000E-03 0. -1.
        -11    1    3    3    0    0  0.30068444645E+01  0.11082436197E+02  0.12006382218E+02  0.16613690737E+02  0.51100000000E-03 0.  1.
        -12    1    3    3    0    0 -0.59909548080E+00  0.74554090137E+01  0.26307102558E+02  0.27349692575E+02  0.00000000000E+00 0.  1.
</event>
<event>
 7    1  0.6245487E-013  0.5052886E+02  0.7816164E-02  0.1300439E+00
        -11   -1    0    0    0    0  0.00000000000E+00  0.00000000000E+00  0.45593999997E+02  0.45594000000E+02  0.51100000000E-03 0.  1.
         11   -1    0    0    0    0 -0.00000000000E+00 -0.00000000000E+00 -0.45593999997E+02  0.45594000000E+02  0.51100000000E-03 0. -1.
    9900012    2    1    2    0    0  0.40051993922E+02  0.69555901762E+01 -0.78965148230E+00  0.50528855871E+02  0.29999987907E+02 0.  0.
         12    1    1    2    0    0 -0.40051993922E+02 -0.69555901762E+01  0.78965148230E+00  0.40659144129E+02  0.00000000000E+00 0. -1.
         11    1    3    3    0    0  0.49213574011E+01 -0.73216047497E+01 -0.34456638249E+01  0.94709162300E+01  0.51100000000E-03 0. -1.
        -11    1    3    3    0    0  0.20485441467E+02  0.14353454304E+01  0.57738526880E+01  0.21331922176E+02  0.51100000000E-03 0.  1.
         12    1    3    3    0    0  0.14645195054E+02  0.12841849495E+02 -0.31178403454E+01  0.19726017466E+02  0.00000000000E+00 0. -1.
</event>
<event>
 7    1  0.6245487E-013  0.5052887E+02  0.7816164E-02  0.1300439E+00
        -11   -1    0    0    0    0  0.00000000000E+00  0.00000000000E+00  0.45593999997E+02  0.45594000000E+02  0.51100000000E-03 0.  1.
         11   -1    0    0    0    0 -0.00000000000E+00 -0.00000000000E+00 -0.45593999997E+02  0.45594000000E+02  0.51100000000E-03 0. -1.
    9900012    2    1    2    0    0  0.51961446056E+01 -0.40084143045E+02  0.44075736892E+01  0.50528866362E+02  0.30000019793E+02 0.  0.
         12    1    1    2    0    0 -0.51961446056E+01  0.40084143045E+02 -0.44075736892E+01  0.40659133638E+02  0.00000000000E+00 0. -1.
         11    1    3    3    0    0  0.95715261272E+01 -0.12031985329E+02  0.78419827787E+00  0.15394731260E+02  0.51100000000E-03 0.  1.
        -11    1    3    3    0    0 -0.59083726245E+01 -0.14812237945E+02 -0.76410764114E+01  0.17683249390E+02  0.51100000000E-03 0. -1.
        -12    1    3    3    0    0  0.15329911029E+01 -0.13239919771E+02  0.11264451823E+02  0.17450885712E+02  0.00000000000E+00 0.  1.
</event>
<event>
 7    1  0.6245487E-013  0.5052886E+02  0.7816164E-02  0.1300439E+00
        -11   -1    0    0    0    0  0.00000000000E+00  0.00000000000E+00  0.45593999997E+02  0.45594000000E+02  0.51100000000E-03 0.  1.
         11   -1    0    0    0    0 -0.00000000000E+00 -0.00000000000E+00 -0.45593999997E+02  0.45594000000E+02  0.51100000000E-03 0. -1.
    9900012    2    1    2    0    0  0.18574939491E+02  0.19894214183E+02  0.30205258720E+02  0.50528858477E+02  0.29999995828E+02 0.  0.
         12    1    1    2    0    0 -0.18574939491E+02 -0.19894214183E+02 -0.30205258720E+02  0.40659141523E+02  0.00000000000E+00 0. -1.
         11    1    3    3    0    0 -0.27278499862E+01  0.10111077651E+02  0.14236916487E+01  0.10568914560E+02  0.51100000000E-03 0. -1.
        -11    1    3    3    0    0  0.31236527902E+01 -0.39608551902E+00  0.14161129007E+02  0.14506952316E+02  0.51100000000E-03 0.  1.
         12    1    3    3    0    0  0.18179136687E+02  0.10179222051E+02  0.14620438064E+02  0.25452991601E+02  0.00000000000E+00 0. -1.
</event>
<event>
 7    1  0.6245487E-013  0.5052886E+02  0.7816164E-02  0.1300439E+00
        -11   -1    0    0    0    0  0.00000000000E+00  0.00000000000E+00  0.45593999997E+02  0.45594000000E+02  0.51100000000E-03 0.  1.
         11   -1    0    0    0    0 -0.00000000000E+00 -0.00000000000E+00 -0.45593999997E+02  0.45594000000E+02  0.51100000000E-03 0. -1.
    9900012    2    1    2    0    0 -0.20295431595E+02 -0.30613155057E+02  0.17438352321E+02  0.50528856651E+02  0.29999990277E+02 0.  0.
         12    1    1    2    0    0  0.20295431595E+02  0.30613155057E+02 -0.17438352321E+02  0.40659143349E+02  0.00000000000E+00 0. -1.
         11    1    3    3    0    0 -0.14516751164E+01 -0.33832542975E+00 -0.25334085293E+01  0.29393849318E+01  0.51100000000E-03 0. -1.
        -11    1    3    3    0    0 -0.55402598948E+01 -0.22307301966E+02  0.89125093042E+00  0.23002272262E+02  0.51100000000E-03 0.  1.
         12    1    3    3    0    0 -0.13303496584E+02 -0.79675276612E+01  0.19080509919E+02  0.24587199458E+02  0.00000000000E+00 0. -1.
</event>
<event>
 7    1  0.6245487E-013  0.5052886E+02  0.7816164E-02  0.1300439E+00
        -11   -1    0    0    0    0  0.00000000000E+00  0.00000000000E+00  0.45593999997E+02  0.45594000000E+02  0.51100000000E-03 0.  1.
         11   -1    0    0    0    0 -0.00000000000E+00 -0.00000000000E+00 -0.45593999997E+02  0.45594000000E+02  0.51100000000E-03 0. -1.
    9900012    2    1    2    0    0 -0.31401440596E+02  0.15570525597E+02  0.20607615631E+02  0.50528861287E+02  0.30000004369E+02 0.  0.
         12    1    1    2    0    0  0.31401440596E+02 -0.15570525597E+02 -0.20607615631E+02  0.40659138713E+02  0.00000000000E+00 0. -1.
         11    1    3    3    0    0 -0.54626550395E+01  0.11754326748E+02  0.10154976409E+02  0.16465975328E+02  0.51100000000E-03 0. -1.
        -11    1    3    3    0    0 -0.19825690160E+02  0.10951582154E+01  0.15897657360E+02  0.25436054561E+02  0.51100000000E-03 0.  1.
         12    1    3    3    0    0 -0.61130953962E+01  0.27210406339E+01 -0.54450181379E+01  0.86268313984E+01  0.00000000000E+00 0. -1.
</event>
<event>
 7    1  0.6245487E-013  0.5052886E+02  0.7816164E-02  0.1300439E+00
        -11   -1    0    0    0    0  0.00000000000E+00  0.00000000000E+00  0.45593999997E+02  0.45594000000E+02  0.51100000000E-03 0. -1.
         11   -1    0    0    0    0 -0.00000000000E+00 -0.00000000000E+00 -0.45593999997E+02  0.45594000000E+02  0.51100000000E-03 0.  1.
    9900012    2    1    2    0    0 -0.30254166881E+02 -0.21399421573E+02 -0.16730674660E+02  0.50528864103E+02  0.30000012926E+02 0.  0.
         12    1    1    2    0    0  0.30254166881E+02  0.21399421573E+02  0.16730674660E+02  0.40659135897E+02  0.00000000000E+00 0. -1.
         11    1    3    3    0    0 -0.21650831746E+01 -0.13518183704E+02 -0.72816988277E+01  0.15506515208E+02  0.51100000000E-03 0. -1.
        -11    1    3    3    0    0 -0.27919574945E+02 -0.11024883600E+02 -0.65095841005E+01  0.30715230895E+02  0.51100000000E-03 0.  1.
         12    1    3    3    0    0 -0.16950876159E+00  0.31436457319E+01 -0.29393917317E+01  0.43071179994E+01  0.00000000000E+00 0. -1.
</event>
<event>
 7    1  0.6245487E-013  0.5052885E+02  0.7816164E-02  0.1300439E+00
        -11   -1    0    0    0    0  0.00000000000E+00  0.00000000000E+00  0.45593999997E+02  0.45594000000E+02  0.51100000000E-03 0. -1.
         11   -1    0    0    0    0 -0.00000000000E+00 -0.00000000000E+00 -0.45593999997E+02  0.45594000000E+02  0.51100000000E-03 0.  1.
    9900012    2    1    2    0    0 -0.17286386176E+02  0.43954729229E+01 -0.36538019437E+02  0.50528853506E+02  0.29999980718E+02 0.  0.
         12    1    1    2    0    0  0.17286386176E+02 -0.43954729229E+01  0.36538019437E+02  0.40659146494E+02  0.00000000000E+00 0. -1.
         11    1    3    3    0    0 -0.41860216657E+01 -0.62942950039E+01 -0.21203190636E+02  0.22510358069E+02  0.51100000000E-03 0. -1.
        -11    1    3    3    0    0 -0.10451291339E+02 -0.63134851059E+00 -0.11993871778E+02  0.15921088282E+02  0.51100000000E-03 0.  1.
         12    1    3    3    0    0 -0.26490731710E+01  0.11321116437E+02 -0.33409570225E+01  0.12097407155E+02  0.00000000000E+00 0. -1.
</event>
<event>
 7    1  0.6245487E-013  0.5052886E+02  0.7816164E-02  0.1300439E+00
        -11   -1    0    0    0    0  0.00000000000E+00  0.00000000000E+00  0.45593999997E+02  0.45594000000E+02  0.51100000000E-03 0.  1.
         11   -1    0    0    0    0 -0.00000000000E+00 -0.00000000000E+00 -0.45593999997E+02  0.45594000000E+02  0.51100000000E-03 0. -1.
    9900012    2    1    2    0    0 -0.34336225902E+02  0.17976377903E+02  0.12289791402E+02  0.50528861490E+02  0.30000004986E+02 0.  0.
         12    1    1    2    0    0  0.34336225902E+02 -0.17976377903E+02 -0.12289791402E+02  0.40659138510E+02  0.00000000000E+00 0. -1.
         11    1    3    3    0    0 -0.10938460329E+02  0.15799520625E+01  0.96810472626E+01  0.14692475600E+02  0.51100000000E-03 0. -1.
        -11    1    3    3    0    0 -0.14752709403E+02  0.18327001776E+02  0.87022607676E+01  0.25084871368E+02  0.51100000000E-03 0.  1.
         12    1    3    3    0    0 -0.86450561695E+01 -0.19305759358E+01 -0.60935166287E+01  0.10751514522E+02  0.00000000000E+00 0. -1.
</event>
<event>
 7    1  0.6245487E-013  0.5052885E+02  0.7816164E-02  0.1300439E+00
        -11   -1    0    0    0    0  0.00000000000E+00  0.00000000000E+00  0.45593999997E+02  0.45594000000E+02  0.51100000000E-03 0.  1.
         11   -1    0    0    0    0 -0.00000000000E+00 -0.00000000000E+00 -0.45593999997E+02  0.45594000000E+02  0.51100000000E-03 0. -1.
    9900012    2    1    2    0    0  0.21536826482E+02  0.28099773602E+02  0.19993347968E+02  0.50528854234E+02  0.29999982931E+02 0.  0.
         12    1    1    2    0    0 -0.21536826482E+02 -0.28099773602E+02 -0.19993347968E+02  0.40659145766E+02  0.00000000000E+00 0. -1.
         11    1    3    3    0    0  0.24299019496E+01  0.95618816885E+01 -0.23135886744E+01  0.10133444514E+02  0.51100000000E-03 0. -1.
        -11    1    3    3    0    0  0.85268781471E+01  0.11402583422E+02 -0.51545043474E+00  0.14247534841E+02  0.51100000000E-03 0.  1.
        -12    1    3    3    0    0  0.10580046386E+02  0.71353084913E+01  0.22822387077E+02  0.26147874879E+02  0.00000000000E+00 0.  1.
</event>
<event>
 7    1  0.6245487E-013  0.5052885E+02  0.7816164E-02  0.1300439E+00
        -11   -1    0    0    0    0  0.00000000000E+00  0.00000000000E+00  0.45593999997E+02  0.45594000000E+02  0.51100000000E-03 0.  1.
         11   -1    0    0    0    0 -0.00000000000E+00 -0.00000000000E+00 -0.45593999997E+02  0.45594000000E+02  0.51100000000E-03 0. -1.
    9900012    2    1    2    0    0  0.19282649385E+01  0.18592516670E+01  0.40570817755E+02  0.50528852496E+02  0.29999977647E+02 0.  0.
         12    1    1    2    0    0 -0.19282649385E+01 -0.18592516670E+01 -0.40570817755E+02  0.40659147504E+02  0.00000000000E+00 0. -1.
         11    1    3    3    0    0 -0.27992733038E+01 -0.55378192018E+01  0.21777186161E+01  0.65761562614E+01  0.51100000000E-03 0. -1.
        -11    1    3    3    0    0 -0.94131688593E+00 -0.55626802284E+01  0.19814230232E+02  0.20601776835E+02  0.51100000000E-03 0.  1.
         12    1    3    3    0    0  0.56688551282E+01  0.12959751097E+02  0.18578868907E+02  0.23350919400E+02  0.00000000000E+00 0. -1.
</event>
<event>
 7    1  0.6245487E-013  0.5052884E+02  0.7816164E-02  0.1300439E+00
        -11   -1    0    0    0    0  0.00000000000E+00  0.00000000000E+00  0.45593999997E+02  0.45594000000E+02  0.51100000000E-03 0.  1.
         11   -1    0    0    0    0 -0.00000000000E+00 -0.00000000000E+00 -0.45593999997E+02  0.45594000000E+02  0.51100000000E-03 0. -1.
    9900012    2    1    2    0    0 -0.24589104503E+02 -0.28556275824E+02  0.15267047689E+02  0.50528835051E+02  0.29999924621E+02 0.  0.
         12    1    1    2    0    0  0.24589104503E+02  0.28556275824E+02 -0.15267047689E+02  0.40659164949E+02  0.00000000000E+00 0. -1.
         11    1    3    3    0    0  0.33831666946E+01 -0.85579733638E+01 -0.29392020153E+01  0.96604158154E+01  0.51100000000E-03 0. -1.
        -11    1    3    3    0    0 -0.76774806959E+01 -0.12609982673E+02  0.51760637189E+01  0.15644392245E+02  0.51100000000E-03 0.  1.
        -12    1    3    3    0    0 -0.20294790502E+02 -0.73883197874E+01  0.13030185986E+02  0.25224026991E+02  0.00000000000E+00 0.  1.
</event>
<event>
 7    1  0.6245487E-013  0.5052877E+02  0.7816164E-02  0.1300439E+00
        -11   -1    0    0    0    0  0.00000000000E+00  0.00000000000E+00  0.45593999997E+02  0.45594000000E+02  0.51100000000E-03 0.  1.
         11   -1    0    0    0    0 -0.00000000000E+00 -0.00000000000E+00 -0.45593999997E+02  0.45594000000E+02  0.51100000000E-03 0. -1.
    9900012    2    1    2    0    0 -0.17440270814E+00 -0.29307617553E+02  0.28181662063E+02  0.50528770549E+02  0.29999728559E+02 0.  0.
         12    1    1    2    0    0  0.17440270814E+00  0.29307617553E+02 -0.28181662063E+02  0.40659229451E+02  0.00000000000E+00 0. -1.
         11    1    3    3    0    0  0.12147115074E+02 -0.23455047324E+02  0.15057590526E+02  0.30404320126E+02  0.51100000000E-03 0. -1.
        -11    1    3    3    0    0 -0.32169855459E+01 -0.51804334121E+01  0.58672712560E+01  0.84623140211E+01  0.51100000000E-03 0.  1.
         12    1    3    3    0    0 -0.91045322361E+01 -0.67213681672E+00  0.72568002811E+01  0.11662136402E+02  0.00000000000E+00 0. -1.
</event>
<event>
 7    1  0.6245487E-013  0.5052887E+02  0.7816164E-02  0.1300439E+00
        -11   -1    0    0    0    0  0.00000000000E+00  0.00000000000E+00  0.45593999997E+02  0.45594000000E+02  0.51100000000E-03 0. -1.
         11   -1    0    0    0    0 -0.00000000000E+00 -0.00000000000E+00 -0.45593999997E+02  0.45594000000E+02  0.51100000000E-03 0.  1.
    9900012    2    1    2    0    0  0.54848138750E+01 -0.17234238141E+02 -0.36415140988E+02  0.50528872603E+02  0.30000038763E+02 0.  0.
         12    1    1    2    0    0 -0.54848138750E+01  0.17234238141E+02  0.36415140988E+02  0.40659127397E+02  0.00000000000E+00 0. -1.
         11    1    3    3    0    0  0.35116848775E+01 -0.60007883839E+01  0.10348070244E+01  0.70293824584E+01  0.51100000000E-03 0. -1.
        -11    1    3    3    0    0 -0.62087957522E+01  0.19643380562E+01 -0.12906047774E+02  0.14455927438E+02  0.51100000000E-03 0.  1.
        -12    1    3    3    0    0  0.81819247497E+01 -0.13197787813E+02 -0.24543900239E+02  0.29043562707E+02  0.00000000000E+00 0.  1.
</event>
<event>
 7    1  0.6245487E-013  0.5052886E+02  0.7816164E-02  0.1300439E+00
        -11   -1    0    0    0    0  0.00000000000E+00  0.00000000000E+00  0.45593999997E+02  0.45594000000E+02  0.51100000000E-03 0. -1.
         11   -1    0    0    0    0 -0.00000000000E+00 -0.00000000000E+00 -0.45593999997E+02  0.45594000000E+02  0.51100000000E-03 0.  1.
    9900012    2    1    2    0    0 -0.10252973189E+02  0.32595908078E+02 -0.22035167593E+02  0.50528864576E+02  0.30000014364E+02 0.  0.
         12    1    1    2    0    0  0.10252973189E+02 -0.32595908078E+02  0.22035167593E+02  0.40659135424E+02  0.00000000000E+00 0. -1.
         11    1    3    3    0    0 -0.10263106784E+02  0.20224393973E+02 -0.22087681794E+02  0.31657908329E+02  0.51100000000E-03 0. -1.
        -11    1    3    3    0    0 -0.58825538349E+01  0.10681958977E+02 -0.20995829616E+01  0.12374042835E+02  0.51100000000E-03 0.  1.
        -12    1    3    3    0    0  0.58926874304E+01  0.16895551276E+01  0.21520971631E+01  0.64969134119E+01  0.00000000000E+00 0.  1.
</event>
<event>
 7    1  0.6245487E-013  0.5052884E+02  0.7816164E-02  0.1300439E+00
        -11   -1    0    0    0    0  0.00000000000E+00  0.00000000000E+00  0.45593999997E+02  0.45594000000E+02  0.51100000000E-03 0.  1.
         11   -1    0    0    0    0 -0.00000000000E+00 -0.00000000000E+00 -0.45593999997E+02  0.45594000000E+02  0.51100000000E-03 0. -1.
    9900012    2    1    2    0    0 -0.27199788444E+02  0.24044623995E+02  0.18308320641E+02  0.50528843109E+02  0.29999949113E+02 0.  0.
         12    1    1    2    0    0  0.27199788444E+02 -0.24044623995E+02 -0.18308320641E+02  0.40659156891E+02  0.00000000000E+00 0. -1.
         11    1    3    3    0    0 -0.22855627878E+01  0.10985895411E+02 -0.23061588796E+01  0.11455656432E+02  0.51100000000E-03 0. -1.
        -11    1    3    3    0    0 -0.17231350239E+02  0.15639696137E+02  0.90874009214E+01  0.24982001162E+02  0.51100000000E-03 0.  1.
         12    1    3    3    0    0 -0.76828754170E+01 -0.25809675531E+01  0.11527078599E+02  0.14091185515E+02  0.00000000000E+00 0. -1.
</event>
<event>
 7    1  0.6245487E-013  0.5052886E+02  0.7816164E-02  0.1300439E+00
        -11   -1    0    0    0    0  0.00000000000E+00  0.00000000000E+00  0.45593999997E+02  0.45594000000E+02  0.51100000000E-03 0. -1.
         11   -1    0    0    0    0 -0.00000000000E+00 -0.00000000000E+00 -0.45593999997E+02  0.45594000000E+02  0.51100000000E-03 0.  1.
    9900012    2    1    2    0    0 -0.14216936421E+02  0.35542529224E+02  0.13703022282E+02  0.50528862227E+02  0.30000007224E+02 0.  0.
         12    1    1    2    0    0  0.14216936421E+02 -0.35542529224E+02 -0.13703022282E+02  0.40659137773E+02  0.00000000000E+00 0. -1.
         11    1    3    3    0    0  0.30452072862E+01  0.59389484269E+01  0.20415937718E+01  0.69794341621E+01  0.51100000000E-03 0. -1.
        -11    1    3    3    0    0 -0.20853271427E+01 -0.14833799255E+01  0.84243266546E+01  0.88044468958E+01  0.51100000000E-03 0.  1.
        -12    1    3    3    0    0 -0.15176816565E+02  0.31086960722E+02  0.32371018552E+01  0.34744981169E+02  0.00000000000E+00 0.  1.
</event>
<event>
 7    1  0.6245487E-013  0.5052886E+02  0.7816164E-02  0.1300439E+00
        -11   -1    0    0    0    0  0.00000000000E+00  0.00000000000E+00  0.45593999997E+02  0.45594000000E+02  0.51100000000E-03 0.  1.
         11   -1    0    0    0    0 -0.00000000000E+00 -0.00000000000E+00 -0.45593999997E+02  0.45594000000E+02  0.51100000000E-03 0. -1.
    9900012    2    1    2    0    0 -0.40593662751E+02  0.22340350781E+01  0.57387463426E+00  0.50528859572E+02  0.29999999155E+02 0.  0.
         12    1    1    2    0    0  0.40593662751E+02 -0.22340350781E+01 -0.57387463426E+00  0.40659140428E+02  0.00000000000E+00 0. -1.
         11    1    3    3    0    0 -0.24660594554E+02 -0.11860820138E+01 -0.53643330076E+01  0.25265149577E+02  0.51100000000E-03 0. -1.
        -11    1    3    3    0    0 -0.15854170623E+02  0.94940956728E+01  0.46045690324E+01  0.19044543445E+02  0.51100000000E-03 0.  1.
         12    1    3    3    0    0 -0.78897573399E-01 -0.60739785809E+01  0.13336386095E+01  0.62191665494E+01  0.00000000000E+00 0. -1.
</event>
<event>
 7    1  0.6245487E-013  0.5052887E+02  0.7816164E-02  0.1300439E+00
        -11   -1    0    0    0    0  0.00000000000E+00  0.00000000000E+00  0.45593999997E+02  0.45594000000E+02  0.51100000000E-03 0.  1.
         11   -1    0    0    0    0 -0.00000000000E+00 -0.00000000000E+00 -0.45593999997E+02  0.45594000000E+02  0.51100000000E-03 0. -1.
    9900012    2    1    2    0    0 -0.27837196398E+02 -0.29308402863E+02  0.43901237590E+01  0.50528866115E+02  0.30000019042E+02 0.  0.
         12    1    1    2    0    0  0.27837196398E+02  0.29308402863E+02 -0.43901237590E+01  0.40659133885E+02  0.00000000000E+00 0. -1.
         11    1    3    3    0    0 -0.78638470119E+01 -0.17057437126E+02  0.80165995539E+01  0.20422098810E+02  0.51100000000E-03 0.  1.
        -11    1    3    3    0    0  0.35281006532E+01 -0.22317692859E+01 -0.16271469603E+01  0.44806133348E+01  0.51100000000E-03 0. -1.
        -12    1    3    3    0    0 -0.23501450039E+02 -0.10019196451E+02 -0.19993288347E+01  0.25626153969E+02  0.00000000000E+00 0.  1.
</event>
<event>
 7    1  0.6245487E-013  0.5052887E+02  0.7816164E-02  0.1300439E+00
        -11   -1    0    0    0    0  0.00000000000E+00  0.00000000000E+00  0.45593999997E+02  0.45594000000E+02  0.51100000000E-03 0.  1.
         11   -1    0    0    0    0 -0.00000000000E+00 -0.00000000000E+00 -0.45593999997E+02  0.45594000000E+02  0.51100000000E-03 0. -1.
    9900012    2    1    2    0    0 -0.79517785340E+01 -0.28007541000E+01  0.39775495256E+02  0.50528867837E+02  0.30000024278E+02 0.  0.
         12    1    1    2    0    0  0.79517785340E+01  0.28007541000E+01 -0.39775495256E+02  0.40659132163E+02  0.00000000000E+00 0. -1.
         11    1    3    3    0    0 -0.91959093243E+01  0.21497463828E+01  0.42701013996E+01  0.10364358351E+02  0.51100000000E-03 0. -1.
        -11    1    3    3    0    0 -0.78497032868E+01 -0.56256942229E+01  0.18186807124E+02  0.20591897212E+02  0.51100000000E-03 0.  1.
         12    1    3    3    0    0  0.90938340771E+01  0.67519374012E+00  0.17318586733E+02  0.19572612274E+02  0.00000000000E+00 0. -1.
</event>
<event>
 7    1  0.6245487E-013  0.5052886E+02  0.7816164E-02  0.1300439E+00
        -11   -1    0    0    0    0  0.00000000000E+00  0.00000000000E+00  0.45593999997E+02  0.45594000000E+02  0.51100000000E-03 0.  1.
         11   -1    0    0    0    0 -0.00000000000E+00 -0.00000000000E+00 -0.45593999997E+02  0.45594000000E+02  0.51100000000E-03 0. -1.
    9900012    2    1    2    0    0 -0.15016882952E+02  0.23371392451E+01  0.37712021077E+02  0.50528861702E+02  0.30000005630E+02 0.  0.
         12    1    1    2    0    0  0.15016882952E+02 -0.23371392451E+01 -0.37712021077E+02  0.40659138298E+02  0.00000000000E+00 0. -1.
         11    1    3    3    0    0  0.28713605501E+01  0.18843231999E+01  0.85570183818E+01  0.92205178368E+01  0.51100000000E-03 0. -1.
        -11    1    3    3    0    0 -0.88209051550E+01 -0.10197909132E+02  0.21458340746E+02  0.25342969563E+02  0.51100000000E-03 0.  1.
        -12    1    3    3    0    0 -0.90673383467E+01  0.10650725177E+02  0.76966619483E+01  0.15965374303E+02  0.00000000000E+00 0.  1.
</event>
<event>
 7    1  0.6245487E-013  0.5052886E+02  0.7816164E-02  0.1300439E+00
        -11   -1    0    0    0    0  0.00000000000E+00  0.00000000000E+00  0.45593999997E+02  0.45594000000E+02  0.51100000000E-03 0. -1.
         11   -1    0    0    0    0 -0.00000000000E+00 -0.00000000000E+00 -0.45593999997E+02  0.45594000000E+02  0.51100000000E-03 0.  1.
    9900012    2    1    2    0    0 -0.38535328311E+01  0.15550911464E+02 -0.37369574505E+02  0.50528860052E+02  0.30000000613E+02 0.  0.
         12    1    1    2    0    0  0.38535328311E+01 -0.15550911464E+02  0.37369574505E+02  0.40659139948E+02  0.00000000000E+00 0. -1.
         11    1    3    3    0    0 -0.29716769119E+01  0.55043391485E+01  0.29565447162E+01  0.69187983097E+01  0.51100000000E-03 0. -1.
        -11    1    3    3    0    0  0.31181912933E+01  0.35397637429E+01 -0.31853656672E+01  0.56920645633E+01  0.51100000000E-03 0.  1.
        -12    1    3    3    0    0 -0.40000472125E+01  0.65068085730E+01 -0.37140753554E+02  0.37917997179E+02  0.00000000000E+00 0.  1.
</event>
<event>
 7    1  0.6245487E-013  0.5052884E+02  0.7816164E-02  0.1300439E+00
        -11   -1    0    0    0    0  0.00000000000E+00  0.00000000000E+00  0.45593999997E+02  0.45594000000E+02  0.51100000000E-03 0.  1.
         11   -1    0    0    0    0 -0.00000000000E+00 -0.00000000000E+00 -0.45593999997E+02  0.45594000000E+02  0.51100000000E-03 0. -1.
    9900012    2    1    2    0    0 -0.25723705159E+02  0.62656854688E+01  0.30857733050E+02  0.50528837312E+02  0.29999931494E+02 0.  0.
         12    1    1    2    0    0  0.25723705159E+02 -0.62656854688E+01 -0.30857733050E+02  0.40659162688E+02  0.00000000000E+00 0. -1.
         11    1    3    3    0    0 -0.10361960111E+02  0.59356402135E+01  0.19701652298E+02  0.23038167150E+02  0.51100000000E-03 0. -1.
        -11    1    3    3    0    0 -0.78859433629E+01 -0.89234241575E+01  0.99783995627E+01  0.15536539496E+02  0.51100000000E-03 0.  1.
         12    1    3    3    0    0 -0.74758016850E+01  0.92534694128E+01  0.11776811895E+01  0.11954130666E+02  0.00000000000E+00 0. -1.
</event>
<event>
 7    1  0.6245487E-013  0.5052886E+02  0.7816164E-02  0.1300439E+00
        -11   -1    0    0    0    0  0.00000000000E+00  0.00000000000E+00  0.45593999997E+02  0.45594000000E+02  0.51100000000E-03 0. -1.
         11   -1    0    0    0    0 -0.00000000000E+00 -0.00000000000E+00 -0.45593999997E+02  0.45594000000E+02  0.51100000000E-03 0.  1.
    9900012    2    1    2    0    0 -0.12750176297E+02  0.38588691177E+02 -0.12295356557E+01  0.50528857851E+02  0.29999993924E+02 0.  0.
         12    1    1    2    0    0  0.12750176297E+02 -0.38588691177E+02  0.12295356557E+01  0.40659142149E+02  0.00000000000E+00 0. -1.
         11    1    3    3    0    0 -0.86843382685E+01  0.21399024689E+02  0.82134154483E+01  0.24511144045E+02  0.51100000000E-03 0. -1.
        -11    1    3    3    0    0  0.18319582290E+01  0.17871720590E+02 -0.89191193829E+01  0.20057546177E+02  0.51100000000E-03 0.  1.
         12    1    3    3    0    0 -0.58977962576E+01 -0.68205410229E+00 -0.52383172109E+00  0.59601676291E+01  0.00000000000E+00 0. -1.
</event>
<event>
 7    1  0.6245487E-013  0.5052885E+02  0.7816164E-02  0.1300439E+00
        -11   -1    0    0    0    0  0.00000000000E+00  0.00000000000E+00  0.45593999997E+02  0.45594000000E+02  0.51100000000E-03 0.  1.
         11   -1    0    0    0    0 -0.00000000000E+00 -0.00000000000E+00 -0.45593999997E+02  0.45594000000E+02  0.51100000000E-03 0. -1.
    9900012    2    1    2    0    0  0.98289515318E+01  0.34901490354E+02 -0.18396847949E+02  0.50528851809E+02  0.29999975558E+02 0.  0.
         12    1    1    2    0    0 -0.98289515318E+01 -0.34901490354E+02  0.18396847949E+02  0.40659148191E+02  0.00000000000E+00 0. -1.
         11    1    3    3    0    0  0.17453344467E+02  0.27998136256E+02 -0.14513813920E+02  0.36043940707E+02  0.51100000000E-03 0. -1.
        -11    1    3    3    0    0  0.12946022890E+01  0.52187546271E+00  0.16829374655E+01  0.21864646942E+01  0.51100000000E-03 0.  1.
         12    1    3    3    0    0 -0.89189952238E+01  0.63814786357E+01 -0.55659714942E+01  0.12298446408E+02  0.00000000000E+00 0. -1.
</event>
<event>
 7    1  0.6245487E-013  0.5052887E+02  0.7816164E-02  0.1300439E+00
        -11   -1    0    0    0    0  0.00000000000E+00  0.00000000000E+00  0.45593999997E+02  0.45594000000E+02  0.51100000000E-03 0. -1.
         11   -1    0    0    0    0 -0.00000000000E+00 -0.00000000000E+00 -0.45593999997E+02  0.45594000000E+02  0.51100000000E-03 0.  1.
    9900012    2    1    2    0    0  0.34447694787E+02  0.18076769778E+02 -0.11821672172E+02  0.50528865545E+02  0.30000017310E+02 0.  0.
         12    1    1    2    0    0 -0.34447694787E+02 -0.18076769778E+02  0.11821672172E+02  0.40659134455E+02  0.00000000000E+00 0. -1.
         11    1    3    3    0    0  0.33357626870E+01  0.17110552109E+01  0.28107769724E+01  0.46856685850E+01  0.51100000000E-03 0. -1.
        -11    1    3    3    0    0  0.79118432085E+01  0.13312349307E+02  0.39273942910E+01  0.15976242775E+02  0.51100000000E-03 0.  1.
         12    1    3    3    0    0  0.23200088891E+02  0.30533652599E+01 -0.18559843435E+02  0.29866954185E+02  0.00000000000E+00 0. -1.
</event>
<event>
 7    1  0.6245487E-013  0.5052886E+02  0.7816164E-02  0.1300439E+00
        -11   -1    0    0    0    0  0.00000000000E+00  0.00000000000E+00  0.45593999997E+02  0.45594000000E+02  0.51100000000E-03 0.  1.
         11   -1    0    0    0    0 -0.00000000000E+00 -0.00000000000E+00 -0.45593999997E+02  0.45594000000E+02  0.51100000000E-03 0. -1.
    9900012    2    1    2    0    0 -0.13455266821E+02  0.60453330975E+01  0.37888983442E+02  0.50528864204E+02  0.30000013233E+02 0.  0.
         12    1    1    2    0    0  0.13455266821E+02 -0.60453330975E+01 -0.37888983442E+02  0.40659135796E+02  0.00000000000E+00 0. -1.
         11    1    3    3    0    0 -0.20344470627E+01 -0.34251259961E+01 -0.15325613880E+00  0.39867217918E+01  0.51100000000E-03 0. -1.
        -11    1    3    3    0    0 -0.81884298808E+01 -0.20272688151E+01  0.32123361274E+02  0.33212505816E+02  0.51100000000E-03 0.  1.
        -12    1    3    3    0    0 -0.32323898772E+01  0.11497727909E+02  0.59188783065E+01  0.13329636596E+02  0.00000000000E+00 0.  1.
</event>
<event>
 7    1  0.6245487E-013  0.5052884E+02  0.7816164E-02  0.1300439E+00
        -11   -1    0    0    0    0  0.00000000000E+00  0.00000000000E+00  0.45593999997E+02  0.45594000000E+02  0.51100000000E-03 0. -1.
         11   -1    0    0    0    0 -0.00000000000E+00 -0.00000000000E+00 -0.45593999997E+02  0.45594000000E+02  0.51100000000E-03 0.  1.
    9900012    2    1    2    0    0  0.12261712557E+02 -0.38718794847E+02  0.19164332231E+01  0.50528838848E+02  0.29999936163E+02 0.  0.
         12    1    1    2    0    0 -0.12261712557E+02  0.38718794847E+02 -0.19164332231E+01  0.40659161152E+02  0.00000000000E+00 0. -1.
         11    1    3    3    0    0 -0.26817028712E+00  0.36238412012E+01  0.41431321814E+01  0.55108697034E+01  0.51100000000E-03 0. -1.
        -11    1    3    3    0    0 -0.90701242993E+00 -0.10903564112E+01 -0.75682760471E+00  0.16075873027E+01  0.51100000000E-03 0.  1.
        -12    1    3    3    0    0  0.13436895274E+02 -0.41252279637E+02 -0.14698713536E+01  0.43410381842E+02  0.00000000000E+00 0.  1.
</event>
<event>
 7    1  0.6245487E-013  0.5052885E+02  0.7816164E-02  0.1300439E+00
        -11   -1    0    0    0    0  0.00000000000E+00  0.00000000000E+00  0.45593999997E+02  0.45594000000E+02  0.51100000000E-03 0. -1.
         11   -1    0    0    0    0 -0.00000000000E+00 -0.00000000000E+00 -0.45593999997E+02  0.45594000000E+02  0.51100000000E-03 0.  1.
    9900012    2    1    2    0    0  0.12025065697E+01 -0.15110916572E+02 -0.37727722253E+02  0.50528845458E+02  0.29999956253E+02 0.  0.
         12    1    1    2    0    0 -0.12025065697E+01  0.15110916572E+02  0.37727722253E+02  0.40659154542E+02  0.00000000000E+00 0. -1.
         11    1    3    3    0    0 -0.51517977241E+01 -0.12528879688E+02 -0.40534738831E+01  0.14140173153E+02  0.51100000000E-03 0. -1.
        -11    1    3    3    0    0 -0.91183900415E-01 -0.59785770612E+01 -0.20256045783E+02  0.21120111013E+02  0.51100000000E-03 0.  1.
        -12    1    3    3    0    0  0.64454881942E+01  0.33965401769E+01 -0.13418202587E+02  0.15268561291E+02  0.00000000000E+00 0.  1.
</event>
<event>
 7    1  0.6245487E-013  0.5052884E+02  0.7816164E-02  0.1300439E+00
        -11   -1    0    0    0    0  0.00000000000E+00  0.00000000000E+00  0.45593999997E+02  0.45594000000E+02  0.51100000000E-03 0. -1.
         11   -1    0    0    0    0 -0.00000000000E+00 -0.00000000000E+00 -0.45593999997E+02  0.45594000000E+02  0.51100000000E-03 0.  1.
    9900012    2    1    2    0    0 -0.38740603028E+02  0.82278604454E+01 -0.91997404920E+01  0.50528840692E+02  0.29999941768E+02 0.  0.
         12    1    1    2    0    0  0.38740603028E+02 -0.82278604454E+01  0.91997404920E+01  0.40659159308E+02  0.00000000000E+00 0. -1.
         11    1    3    3    0    0 -0.29353724675E+01 -0.47725618693E+01 -0.42382030583E+01  0.70253913588E+01  0.51100000000E-03 0. -1.
        -11    1    3    3    0    0 -0.94281031389E+01  0.50218455329E+01 -0.10955896744E+02  0.15301625243E+02  0.51100000000E-03 0.  1.
         12    1    3    3    0    0 -0.26377127422E+02  0.79785767817E+01  0.59943593105E+01  0.28201824090E+02  0.00000000000E+00 0. -1.
</event>
<event>
 7    1  0.6245487E-013  0.5052886E+02  0.7816164E-02  0.1300439E+00
        -11   -1    0    0    0    0  0.00000000000E+00  0.00000000000E+00  0.45593999997E+02  0.45594000000E+02  0.51100000000E-03 0.  1.
         11   -1    0    0    0    0 -0.00000000000E+00 -0.00000000000E+00 -0.45593999997E+02  0.45594000000E+02  0.51100000000E-03 0. -1.
    9900012    2    1    2    0    0 -0.59371580626E+01 -0.24545183669E+02  0.31866124579E+02  0.50528858557E+02  0.29999996069E+02 0.  0.
         12    1    1    2    0    0  0.59371580626E+01  0.24545183669E+02 -0.31866124579E+02  0.40659141443E+02  0.00000000000E+00 0. -1.
         11    1    3    3    0    0 -0.14628809392E+01 -0.46858672015E+01 -0.25531059336E+01  0.55331475890E+01  0.51100000000E-03 0. -1.
        -11    1    3    3    0    0  0.53364999653E+01  0.58068653387E+00  0.11829041631E+02  0.12990059850E+02  0.51100000000E-03 0.  1.
        -12    1    3    3    0    0 -0.98107770887E+01 -0.20440003001E+02  0.22590188882E+02  0.32005651118E+02  0.00000000000E+00 0.  1.
</event>
<event>
 7    1  0.6245487E-013  0.5052887E+02  0.7816164E-02  0.1300439E+00
        -11   -1    0    0    0    0  0.00000000000E+00  0.00000000000E+00  0.45593999997E+02  0.45594000000E+02  0.51100000000E-03 0. -1.
         11   -1    0    0    0    0 -0.00000000000E+00 -0.00000000000E+00 -0.45593999997E+02  0.45594000000E+02  0.51100000000E-03 0.  1.
    9900012    2    1    2    0    0 -0.17569273923E+02  0.35088712541E+02 -0.10642747974E+02  0.50528865498E+02  0.30000017168E+02 0.  0.
         12    1    1    2    0    0  0.17569273923E+02 -0.35088712541E+02  0.10642747974E+02  0.40659134502E+02  0.00000000000E+00 0. -1.
         11    1    3    3    0    0 -0.22575352721E+02  0.28075544468E+02 -0.84757616614E+00  0.36036108742E+02  0.51100000000E-03 0. -1.
        -11    1    3    3    0    0  0.33996962624E+01  0.21992839440E+01 -0.74524617317E+00  0.41170592251E+01  0.51100000000E-03 0.  1.
        -12    1    3    3    0    0  0.16063825354E+01  0.48138841296E+01 -0.90499256348E+01  0.10375697531E+02  0.00000000000E+00 0.  1.
</event>
<event>
 7    1  0.6245487E-013  0.5052886E+02  0.7816164E-02  0.1300439E+00
        -11   -1    0    0    0    0  0.00000000000E+00  0.00000000000E+00  0.45593999997E+02  0.45594000000E+02  0.51100000000E-03 0.  1.
         11   -1    0    0    0    0 -0.00000000000E+00 -0.00000000000E+00 -0.45593999997E+02  0.45594000000E+02  0.51100000000E-03 0. -1.
    9900012    2    1    2    0    0 -0.53636544994E+00 -0.61189523684E+01  0.40192489391E+02  0.50528862411E+02  0.30000007785E+02 0.  0.
         12    1    1    2    0    0  0.53636544994E+00  0.61189523684E+01 -0.40192489391E+02  0.40659137589E+02  0.00000000000E+00 0. -1.
         11    1    3    3    0    0 -0.23747011750E+01 -0.10313028532E+02  0.14877509836E+02  0.18257548092E+02  0.51100000000E-03 0. -1.
        -11    1    3    3    0    0 -0.78940982666E+01  0.54787253676E+01  0.16414931440E+02  0.19020599189E+02  0.51100000000E-03 0.  1.
        -12    1    3    3    0    0  0.97324339916E+01 -0.12846492042E+01  0.89000481163E+01  0.13250715130E+02  0.00000000000E+00 0.  1.
</event>
<event>
 7    1  0.6245487E-013  0.5052887E+02  0.7816164E-02  0.1300439E+00
        -11   -1    0    0    0    0  0.00000000000E+00  0.00000000000E+00  0.45593999997E+02  0.45594000000E+02  0.51100000000E-03 0.  1.
         11   -1    0    0    0    0 -0.00000000000E+00 -0.00000000000E+00 -0.45593999997E+02  0.45594000000E+02  0.51100000000E-03 0. -1.
    9900012    2    1    2    0    0 -0.39978174351E+02  0.30540984949E+01 -0.67515233066E+01  0.50528868073E+02  0.30000024995E+02 0.  0.
         12    1    1    2    0    0  0.39978174351E+02 -0.30540984949E+01  0.67515233066E+01  0.40659131927E+02  0.00000000000E+00 0. -1.
         11    1    3    3    0    0 -0.89276963164E+01  0.24736480787E+01  0.98614330892E+01  0.13530356949E+02  0.51100000000E-03 0. -1.
        -11    1    3    3    0    0 -0.20674423827E+02  0.57302714834E+01 -0.11420495362E+02  0.24304228571E+02  0.51100000000E-03 0.  1.
        -12    1    3    3    0    0 -0.10376054208E+02 -0.51498210671E+01 -0.51924610341E+01  0.12694282553E+02  0.00000000000E+00 0.  1.
</event>
<event>
 7    1  0.6245487E-013  0.5052899E+02  0.7816164E-02  0.1300438E+00
        -11   -1    0    0    0    0  0.00000000000E+00  0.00000000000E+00  0.45593999997E+02  0.45594000000E+02  0.51100000000E-03 0.  1.
         11   -1    0    0    0    0 -0.00000000000E+00 -0.00000000000E+00 -0.45593999997E+02  0.45594000000E+02  0.51100000000E-03 0. -1.
    9900012    2    1    2    0    0 -0.29745002192E+02  0.48486587286E+01  0.27292497475E+02  0.50528990356E+02  0.30000396682E+02 0.  0.
         12    1    1    2    0    0  0.29745002192E+02 -0.48486587286E+01 -0.27292497475E+02  0.40659009644E+02  0.00000000000E+00 0. -1.
         11    1    3    3    0    0 -0.61327389721E+01  0.66621896352E+01  0.18035241415E+00  0.90569191942E+01  0.51100000000E-03 0. -1.
        -11    1    3    3    0    0 -0.17409160565E+02  0.83434778537E+01  0.18866857540E+02  0.26993532706E+02  0.51100000000E-03 0.  1.
         12    1    3    3    0    0 -0.62031026546E+01 -0.10157008760E+02  0.82452875206E+01  0.14478538455E+02  0.00000000000E+00 0. -1.
</event>
<event>
 7    1  0.6245487E-013  0.5052883E+02  0.7816164E-02  0.1300439E+00
        -11   -1    0    0    0    0  0.00000000000E+00  0.00000000000E+00  0.45593999997E+02  0.45594000000E+02  0.51100000000E-03 0.  1.
         11   -1    0    0    0    0 -0.00000000000E+00 -0.00000000000E+00 -0.45593999997E+02  0.45594000000E+02  0.51100000000E-03 0. -1.
    9900012    2    1    2    0    0  0.38097822278E+02 -0.11661576747E+02 -0.81075315652E+01  0.50528825111E+02  0.29999894408E+02 0.  0.
         12    1    1    2    0    0 -0.38097822278E+02  0.11661576747E+02  0.81075315652E+01  0.40659174889E+02  0.00000000000E+00 0. -1.
         11    1    3    3    0    0  0.12238054645E+02 -0.78447626885E+01  0.49805938843E+01  0.15366085996E+02  0.51100000000E-03 0. -1.
        -11    1    3    3    0    0 -0.57350978553E-01  0.18386499759E+01  0.34449695032E+01  0.39053473607E+01  0.51100000000E-03 0.  1.
         12    1    3    3    0    0  0.25917118612E+02 -0.56554640344E+01 -0.16533094953E+02  0.31257391755E+02  0.00000000000E+00 0. -1.
</event>
<event>
 7    1  0.6245487E-013  0.5052887E+02  0.7816164E-02  0.1300439E+00
        -11   -1    0    0    0    0  0.00000000000E+00  0.00000000000E+00  0.45593999997E+02  0.45594000000E+02  0.51100000000E-03 0. -1.
         11   -1    0    0    0    0 -0.00000000000E+00 -0.00000000000E+00 -0.45593999997E+02  0.45594000000E+02  0.51100000000E-03 0.  1.
    9900012    2    1    2    0    0  0.23575706760E+02  0.18623341821E+02 -0.27395662585E+02  0.50528866484E+02  0.30000020164E+02 0.  0.
         12    1    1    2    0    0 -0.23575706760E+02 -0.18623341821E+02  0.27395662585E+02  0.40659133516E+02  0.00000000000E+00 0. -1.
         11    1    3    3    0    0 -0.11273864281E+01  0.24268435198E+01 -0.70220527108E+00  0.27665252813E+01  0.51100000000E-03 0. -1.
        -11    1    3    3    0    0  0.29019816386E+02  0.16812701544E+02 -0.18063677949E+02  0.38093478938E+02  0.51100000000E-03 0.  1.
        -12    1    3    3    0    0 -0.43167231977E+01 -0.61620324318E+00 -0.86297793645E+01  0.96688622641E+01  0.00000000000E+00 0.  1.
</event>
<event>
 7    1  0.6245487E-013  0.5052887E+02  0.7816164E-02  0.1300439E+00
        -11   -1    0    0    0    0  0.00000000000E+00  0.00000000000E+00  0.45593999997E+02  0.45594000000E+02  0.51100000000E-03 0.  1.
         11   -1    0    0    0    0 -0.00000000000E+00 -0.00000000000E+00 -0.45593999997E+02  0.45594000000E+02  0.51100000000E-03 0. -1.
    9900012    2    1    2    0    0 -0.11909096874E+02  0.20078707073E+02  0.33289400257E+02  0.50528865288E+02  0.30000016529E+02 0.  0.
         12    1    1    2    0    0  0.11909096874E+02 -0.20078707073E+02 -0.33289400257E+02  0.40659134712E+02  0.00000000000E+00 0. -1.
         11    1    3    3    0    0  0.27471252466E+01  0.30621054703E+01  0.45151755595E+01  0.61081910273E+01  0.51100000000E-03 0. -1.
        -11    1    3    3    0    0 -0.82914645420E+01 -0.14319789730E+01  0.22339477911E+02  0.23871556749E+02  0.51100000000E-03 0.  1.
         12    1    3    3    0    0 -0.63647575791E+01  0.18448580576E+02  0.64347467868E+01  0.20549117512E+02  0.00000000000E+00 0. -1.
</event>
<event>
 7    1  0.6245487E-013  0.5052887E+02  0.7816164E-02  0.1300439E+00
        -11   -1    0    0    0    0  0.00000000000E+00  0.00000000000E+00  0.45593999997E+02  0.45594000000E+02  0.51100000000E-03 0. -1.
         11   -1    0    0    0    0 -0.00000000000E+00 -0.00000000000E+00 -0.45593999997E+02  0.45594000000E+02  0.51100000000E-03 0.  1.
    9900012    2    1    2    0    0  0.35909597627E+02 -0.16150448507E+01 -0.19001517278E+02  0.50528865350E+02  0.30000016718E+02 0.  0.
         12    1    1    2    0    0 -0.35909597627E+02  0.16150448507E+01  0.19001517278E+02  0.40659134650E+02  0.00000000000E+00 0. -1.
         11    1    3    3    0    0  0.63647937932E+00  0.52493493596E+01 -0.56647548623E+01  0.77492078699E+01  0.51100000000E-03 0. -1.
        -11    1    3    3    0    0  0.97135805909E+01 -0.19751768960E+01 -0.13509726068E+02  0.16756123369E+02  0.51100000000E-03 0.  1.
        -12    1    3    3    0    0  0.25559537657E+02 -0.48892173142E+01  0.17296365291E+00  0.26023534111E+02  0.00000000000E+00 0.  1.
</event>
<event>
 7    1  0.6245487E-013  0.5052884E+02  0.7816164E-02  0.1300439E+00
        -11   -1    0    0    0    0  0.00000000000E+00  0.00000000000E+00  0.45593999997E+02  0.45594000000E+02  0.51100000000E-03 0.  1.
         11   -1    0    0    0    0 -0.00000000000E+00 -0.00000000000E+00 -0.45593999997E+02  0.45594000000E+02  0.51100000000E-03 0. -1.
    9900012    2    1    2    0    0 -0.51566391476E+01  0.40311200379E+02 -0.12584223103E+01  0.50528838302E+02  0.29999934502E+02 0.  0.
         12    1    1    2    0    0  0.51566391476E+01 -0.40311200379E+02  0.12584223103E+01  0.40659161698E+02  0.00000000000E+00 0. -1.
         11    1    3    3    0    0  0.19912333716E+01  0.49249623419E+01  0.11622782442E+01  0.54379366847E+01  0.51100000000E-03 0. -1.
        -11    1    3    3    0    0 -0.15798578611E+02  0.31050419727E+02  0.92936897275E+00  0.34850930809E+02  0.51100000000E-03 0.  1.
         12    1    3    3    0    0  0.86507060917E+01  0.43358183106E+01 -0.33500695272E+01  0.10239970808E+02  0.00000000000E+00 0. -1.
</event>
<event>
 7    1  0.6245487E-013  0.5052886E+02  0.7816164E-02  0.1300439E+00
        -11   -1    0    0    0    0  0.00000000000E+00  0.00000000000E+00  0.45593999997E+02  0.45594000000E+02  0.51100000000E-03 0.  1.
         11   -1    0    0    0    0 -0.00000000000E+00 -0.00000000000E+00 -0.45593999997E+02  0.45594000000E+02  0.51100000000E-03 0. -1.
    9900012    2    1    2    0    0 -0.38706398693E+02 -0.57240224945E+01 -0.11055121945E+02  0.50528862595E+02  0.30000008345E+02 0.  0.
         12    1    1    2    0    0  0.38706398693E+02  0.57240224945E+01  0.11055121945E+02  0.40659137405E+02  0.00000000000E+00 0. -1.
         11    1    3    3    0    0 -0.12463331730E+02  0.68804375812E+01  0.30282542696E+01  0.14554909251E+02  0.51100000000E-03 0. -1.
        -11    1    3    3    0    0 -0.20156493031E+02 -0.42262083101E+01 -0.30113655662E+01  0.20813778389E+02  0.51100000000E-03 0.  1.
        -12    1    3    3    0    0 -0.60865739315E+01 -0.83782517657E+01 -0.11072010649E+02  0.15160174955E+02  0.00000000000E+00 0.  1.
</event>
<event>
 7    1  0.6245487E-013  0.5052885E+02  0.7816164E-02  0.1300439E+00
        -11   -1    0    0    0    0  0.00000000000E+00  0.00000000000E+00  0.45593999997E+02  0.45594000000E+02  0.51100000000E-03 0. -1.
         11   -1    0    0    0    0 -0.00000000000E+00 -0.00000000000E+00 -0.45593999997E+02  0.45594000000E+02  0.51100000000E-03 0.  1.
    9900012    2    1    2    0    0 -0.37717267776E+02  0.14971438162E+02 -0.25357462175E+01  0.50528852715E+02  0.29999978311E+02 0.  0.
         12    1    1    2    0    0  0.37717267776E+02 -0.14971438162E+02  0.25357462175E+01  0.40659147285E+02  0.00000000000E+00 0. -1.
         11    1    3    3    0    0 -0.13740162540E+02  0.30991607298E+01  0.18056240777E+01  0.14200603593E+02  0.51100000000E-03 0. -1.
        -11    1    3    3    0    0 -0.14016377324E+02  0.99066742415E+01 -0.14124925199E+02  0.22228687320E+02  0.51100000000E-03 0.  1.
         12    1    3    3    0    0 -0.99607279121E+01  0.19656031906E+01  0.97835549037E+01  0.14099561802E+02  0.00000000000E+00 0. -1.
</event>
<event>
 7    1  0.7346122E-013  0.5052886E+02  0.7816164E-02  0.1300439E+00
        -11   -1    0    0    0    0  0.00000000000E+00  0.00000000000E+00  0.45593999997E+02  0.45594000000E+02  0.51100000000E-03 0. -1.
         11   -1    0    0    0    0 -0.00000000000E+00 -0.00000000000E+00 -0.45593999997E+02  0.45594000000E+02  0.51100000000E-03 0.  1.
    9900012    2    1    2    0    0 -0.27827578696E+02 -0.12834870443E+02 -0.26721851772E+02  0.50528863297E+02  0.30000010477E+02 0.  0.
         12    1    1    2    0    0  0.27827578696E+02  0.12834870443E+02  0.26721851772E+02  0.40659136703E+02  0.00000000000E+00 0. -1.
         11    1    3    3    0    0 -0.63364798560E+01 -0.43682798786E+01  0.28634790608E+01  0.82117208097E+01  0.51100000000E-03 0. -1.
        -11    1    3    3    0    0 -0.22864238104E+02 -0.11383264268E+02 -0.20735787777E+02  0.32898707945E+02  0.51100000000E-03 0.  1.
        -12    1    3    3    0    0  0.13731392642E+01  0.29166737036E+01 -0.88495430558E+01  0.94184345423E+01  0.00000000000E+00 0.  1.
</event>
<event>
 7    1  0.6245487E-013  0.5052889E+02  0.7816164E-02  0.1300439E+00
        -11   -1    0    0    0    0  0.00000000000E+00  0.00000000000E+00  0.45593999997E+02  0.45594000000E+02  0.51100000000E-03 0. -1.
         11   -1    0    0    0    0 -0.00000000000E+00 -0.00000000000E+00 -0.45593999997E+02  0.45594000000E+02  0.51100000000E-03 0.  1.
    9900012    2    1    2    0    0  0.15988805865E+02  0.34845427591E+02 -0.13539470184E+02  0.50528892904E+02  0.30000100470E+02 0.  0.
         12    1    1    2    0    0 -0.15988805865E+02 -0.34845427591E+02  0.13539470184E+02  0.40659107096E+02  0.00000000000E+00 0. -1.
         11    1    3    3    0    0  0.22781290382E+01  0.90608870620E-01 -0.10523772059E+02  0.10767908827E+02  0.51100000000E-03 0. -1.
        -11    1    3    3    0    0 -0.58619053775E+00  0.34249122059E+01  0.32500707836E+01  0.47577939556E+01  0.51100000000E-03 0.  1.
        -12    1    3    3    0    0  0.14296867364E+02  0.31329906515E+02 -0.62657689080E+01  0.35003190121E+02  0.00000000000E+00 0.  1.
</event>
<event>
 7    1  0.6245487E-013  0.5052885E+02  0.7816164E-02  0.1300439E+00
        -11   -1    0    0    0    0  0.00000000000E+00  0.00000000000E+00  0.45593999997E+02  0.45594000000E+02  0.51100000000E-03 0. -1.
         11   -1    0    0    0    0 -0.00000000000E+00 -0.00000000000E+00 -0.45593999997E+02  0.45594000000E+02  0.51100000000E-03 0.  1.
    9900012    2    1    2    0    0 -0.41848280893E+01 -0.37358860976E+02  0.15490930062E+02  0.50528853504E+02  0.29999980712E+02 0.  0.
         12    1    1    2    0    0  0.41848280893E+01  0.37358860976E+02 -0.15490930062E+02  0.40659146496E+02  0.00000000000E+00 0. -1.
         11    1    3    3    0    0 -0.68685906483E+00  0.33551077528E-01  0.34321046709E+01  0.35003205257E+01  0.51100000000E-03 0. -1.
        -11    1    3    3    0    0 -0.14656698373E+02 -0.21133929478E+02  0.74789104513E+01  0.26784246940E+02  0.51100000000E-03 0.  1.
         12    1    3    3    0    0  0.11158729348E+02 -0.16258482576E+02  0.45799149396E+01  0.20244286038E+02  0.00000000000E+00 0. -1.
</event>
<event>
 7    1  0.6245487E-013  0.5052886E+02  0.7816164E-02  0.1300439E+00
        -11   -1    0    0    0    0  0.00000000000E+00  0.00000000000E+00  0.45593999997E+02  0.45594000000E+02  0.51100000000E-03 0.  1.
         11   -1    0    0    0    0 -0.00000000000E+00 -0.00000000000E+00 -0.45593999997E+02  0.45594000000E+02  0.51100000000E-03 0. -1.
    9900012    2    1    2    0    0  0.15083783763E+02  0.29639349066E+02  0.23391327460E+02  0.50528859010E+02  0.29999997448E+02 0.  0.
         12    1    1    2    0    0 -0.15083783763E+02 -0.29639349066E+02 -0.23391327460E+02  0.40659140990E+02  0.00000000000E+00 0. -1.
         11    1    3    3    0    0  0.73537730584E+01  0.20574588278E+02  0.19201177132E+02  0.29087400443E+02  0.51100000000E-03 0. -1.
        -11    1    3    3    0    0  0.78638926910E+01 -0.32797941973E+01  0.30242896557E+01  0.90412491623E+01  0.51100000000E-03 0.  1.
         12    1    3    3    0    0 -0.13388198683E+00  0.12344554986E+02  0.11658606723E+01  0.12400209405E+02  0.00000000000E+00 0. -1.
</event>
<event>
 7    1  0.6245487E-013  0.5052887E+02  0.7816164E-02  0.1300439E+00
        -11   -1    0    0    0    0  0.00000000000E+00  0.00000000000E+00  0.45593999997E+02  0.45594000000E+02  0.51100000000E-03 0.  1.
         11   -1    0    0    0    0 -0.00000000000E+00 -0.00000000000E+00 -0.45593999997E+02  0.45594000000E+02  0.51100000000E-03 0. -1.
    9900012    2    1    2    0    0  0.67489683917E+01  0.36140725209E+01  0.39931879118E+02  0.50528867392E+02  0.30000022925E+02 0.  0.
         12    1    1    2    0    0 -0.67489683917E+01 -0.36140725209E+01 -0.39931879118E+02  0.40659132608E+02  0.00000000000E+00 0. -1.
         11    1    3    3    0    0 -0.20976881700E+01 -0.58394550869E+01  0.36842436414E+01  0.72161750839E+01  0.51100000000E-03 0. -1.
        -11    1    3    3    0    0  0.83156393100E+01  0.36329051922E+00  0.30112392335E+01  0.88515195937E+01  0.51100000000E-03 0.  1.
        -12    1    3    3    0    0  0.53101725168E+00  0.90902370886E+01  0.33236396243E+02  0.34461172715E+02  0.00000000000E+00 0.  1.
</event>
<event>
 7    1  0.6245487E-013  0.5052886E+02  0.7816164E-02  0.1300439E+00
        -11   -1    0    0    0    0  0.00000000000E+00  0.00000000000E+00  0.45593999997E+02  0.45594000000E+02  0.51100000000E-03 0.  1.
         11   -1    0    0    0    0 -0.00000000000E+00 -0.00000000000E+00 -0.45593999997E+02  0.45594000000E+02  0.51100000000E-03 0. -1.
    9900012    2    1    2    0    0 -0.31221754127E+02 -0.56825106522E+01  0.25418038945E+02  0.50528861274E+02  0.30000004329E+02 0.  0.
         12    1    1    2    0    0  0.31221754127E+02  0.56825106522E+01 -0.25418038945E+02  0.40659138726E+02  0.00000000000E+00 0. -1.
         11    1    3    3    0    0 -0.30771734677E+02 -0.78730833058E+00  0.16847728356E+02  0.35090817324E+02  0.51100000000E-03 0.  1.
        -11    1    3    3    0    0 -0.83980831789E+00 -0.68532538636E+01  0.27942787188E+00  0.69101698044E+01  0.51100000000E-03 0. -1.
        -12    1    3    3    0    0  0.38978886787E+00  0.19580515419E+01  0.82908827178E+01  0.85278741455E+01  0.00000000000E+00 0.  1.
</event>
<event>
 7    1  0.6245487E-013  0.5052885E+02  0.7816164E-02  0.1300439E+00
        -11   -1    0    0    0    0  0.00000000000E+00  0.00000000000E+00  0.45593999997E+02  0.45594000000E+02  0.51100000000E-03 0. -1.
         11   -1    0    0    0    0 -0.00000000000E+00 -0.00000000000E+00 -0.45593999997E+02  0.45594000000E+02  0.51100000000E-03 0.  1.
    9900012    2    1    2    0    0 -0.12356815086E+02 -0.38615442881E+02 -0.30533478114E+01  0.50528852926E+02  0.29999978954E+02 0.  0.
         12    1    1    2    0    0  0.12356815086E+02  0.38615442881E+02  0.30533478114E+01  0.40659147074E+02  0.00000000000E+00 0. -1.
         11    1    3    3    0    0 -0.15329021416E+02 -0.17122904037E+02  0.19247620144E+01  0.23062468413E+02  0.51100000000E-03 0.  1.
        -11    1    3    3    0    0  0.31663985471E+01 -0.90350279070E+01  0.56269837831E+01  0.11104987879E+02  0.51100000000E-03 0. -1.
        -12    1    3    3    0    0 -0.19419221692E+00 -0.12457510936E+02 -0.10605093609E+02  0.16361396634E+02  0.00000000000E+00 0.  1.
</event>
<event>
 7    1  0.6245487E-013  0.5052886E+02  0.7816164E-02  0.1300439E+00
        -11   -1    0    0    0    0  0.00000000000E+00  0.00000000000E+00  0.45593999997E+02  0.45594000000E+02  0.51100000000E-03 0.  1.
         11   -1    0    0    0    0 -0.00000000000E+00 -0.00000000000E+00 -0.45593999997E+02  0.45594000000E+02  0.51100000000E-03 0. -1.
    9900012    2    1    2    0    0  0.25952161567E+02 -0.21897116184E+02  0.22364425381E+02  0.50528856997E+02  0.29999991327E+02 0.  0.
         12    1    1    2    0    0 -0.25952161567E+02  0.21897116184E+02 -0.22364425381E+02  0.40659143003E+02  0.00000000000E+00 0. -1.
         11    1    3    3    0    0  0.54155278464E+00  0.60731096633E+01  0.30880489233E+01  0.68346168009E+01  0.51100000000E-03 0. -1.
        -11    1    3    3    0    0  0.89380500326E+01 -0.15367742513E+02  0.13002988676E+02  0.22025756811E+02  0.51100000000E-03 0.  1.
        -12    1    3    3    0    0  0.16472558749E+02 -0.12602483334E+02  0.62733877820E+01  0.21668483385E+02  0.00000000000E+00 0.  1.
</event>
<event>
 7    1  0.6245487E-013  0.5052878E+02  0.7816164E-02  0.1300439E+00
        -11   -1    0    0    0    0  0.00000000000E+00  0.00000000000E+00  0.45593999997E+02  0.45594000000E+02  0.51100000000E-03 0.  1.
         11   -1    0    0    0    0 -0.00000000000E+00 -0.00000000000E+00 -0.45593999997E+02  0.45594000000E+02  0.51100000000E-03 0. -1.
    9900012    2    1    2    0    0  0.24802211126E+02  0.27316016267E+02  0.17083835353E+02  0.50528783925E+02  0.29999769219E+02 0.  0.
         12    1    1    2    0    0 -0.24802211126E+02 -0.27316016267E+02 -0.17083835353E+02  0.40659216075E+02  0.00000000000E+00 0. -1.
         11    1    3    3    0    0  0.10257652938E+01  0.15817912110E+02 -0.37344790311E+01  0.16285111970E+02  0.51100000000E-03 0.  1.
        -11    1    3    3    0    0  0.10771247859E+02  0.30111346840E+01  0.56289321152E+01  0.12520846199E+02  0.51100000000E-03 0. -1.
        -12    1    3    3    0    0  0.13005197973E+02  0.84869694730E+01  0.15189382269E+02  0.21722825757E+02  0.00000000000E+00 0.  1.
</event>
<event>
 7    1  0.6245487E-013  0.5052886E+02  0.7816164E-02  0.1300439E+00
        -11   -1    0    0    0    0  0.00000000000E+00  0.00000000000E+00  0.45593999997E+02  0.45594000000E+02  0.51100000000E-03 0.  1.
         11   -1    0    0    0    0 -0.00000000000E+00 -0.00000000000E+00 -0.45593999997E+02  0.45594000000E+02  0.51100000000E-03 0. -1.
    9900012    2    1    2    0    0 -0.61336317720E+01  0.17154562115E+02  0.36349207023E+02  0.50528864603E+02  0.30000014447E+02 0.  0.
         12    1    1    2    0    0  0.61336317720E+01 -0.17154562115E+02 -0.36349207023E+02  0.40659135397E+02  0.00000000000E+00 0. -1.
         11    1    3    3    0    0  0.37645389504E+00  0.28785797785E+00 -0.22591356225E+01  0.23083053898E+01  0.51100000000E-03 0. -1.
        -11    1    3    3    0    0  0.40195461136E+01 -0.24860363293E+01  0.15872151771E+02  0.16560867420E+02  0.51100000000E-03 0.  1.
         12    1    3    3    0    0 -0.10529631781E+02  0.19352740466E+02  0.22736190874E+02  0.31659691793E+02  0.00000000000E+00 0. -1.
</event>
<event>
 7    1  0.6245487E-013  0.5052886E+02  0.7816164E-02  0.1300439E+00
        -11   -1    0    0    0    0  0.00000000000E+00  0.00000000000E+00  0.45593999997E+02  0.45594000000E+02  0.51100000000E-03 0.  1.
         11   -1    0    0    0    0 -0.00000000000E+00 -0.00000000000E+00 -0.45593999997E+02  0.45594000000E+02  0.51100000000E-03 0. -1.
    9900012    2    1    2    0    0  0.35390653363E+02  0.44454674326E+01  0.19516792043E+02  0.50528859603E+02  0.29999999250E+02 0.  0.
         12    1    1    2    0    0 -0.35390653363E+02 -0.44454674326E+01 -0.19516792043E+02  0.40659140397E+02  0.00000000000E+00 0. -1.
         11    1    3    3    0    0 -0.76507185331E+00 -0.45341096584E+01 -0.32129951436E+01  0.56095296942E+01  0.51100000000E-03 0. -1.
        -11    1    3    3    0    0  0.77740487029E+01  0.13161026607E+01  0.10373942795E+02  0.13030220598E+02  0.51100000000E-03 0.  1.
        -12    1    3    3    0    0  0.28381676513E+02  0.76634744303E+01  0.12355844391E+02  0.31889109311E+02  0.00000000000E+00 0.  1.
</event>
<event>
 7    1  0.6245487E-013  0.5052886E+02  0.7816164E-02  0.1300439E+00
        -11   -1    0    0    0    0  0.00000000000E+00  0.00000000000E+00  0.45593999997E+02  0.45594000000E+02  0.51100000000E-03 0. -1.
         11   -1    0    0    0    0 -0.00000000000E+00 -0.00000000000E+00 -0.45593999997E+02  0.45594000000E+02  0.51100000000E-03 0.  1.
    9900012    2    1    2    0    0 -0.36969263834E+02 -0.12321288652E+02 -0.11602801268E+02  0.50528860563E+02  0.30000002169E+02 0.  0.
         12    1    1    2    0    0  0.36969263834E+02  0.12321288652E+02  0.11602801268E+02  0.40659139437E+02  0.00000000000E+00 0. -1.
         11    1    3    3    0    0 -0.11036426093E+02  0.47950946611E+01 -0.11067471485E+02  0.16348839685E+02  0.51100000000E-03 0. -1.
        -11    1    3    3    0    0  0.12701111405E+00 -0.86249703620E+00  0.31297010633E+01  0.32488554857E+01  0.51100000000E-03 0.  1.
        -12    1    3    3    0    0 -0.26059848855E+02 -0.16253886277E+02 -0.36650308462E+01  0.30931165393E+02  0.00000000000E+00 0.  1.
</event>
<event>
 7    1  0.6245487E-013  0.5052887E+02  0.7816164E-02  0.1300439E+00
        -11   -1    0    0    0    0  0.00000000000E+00  0.00000000000E+00  0.45593999997E+02  0.45594000000E+02  0.51100000000E-03 0. -1.
         11   -1    0    0    0    0 -0.00000000000E+00 -0.00000000000E+00 -0.45593999997E+02  0.45594000000E+02  0.51100000000E-03 0.  1.
    9900012    2    1    2    0    0 -0.24664919644E+02  0.31950196243E+02 -0.48980865475E+01  0.50528873683E+02  0.30000042048E+02 0.  0.
         12    1    1    2    0    0  0.24664919644E+02 -0.31950196243E+02  0.48980865475E+01  0.40659126317E+02  0.00000000000E+00 0. -1.
         11    1    3    3    0    0 -0.91911117831E+01  0.75661679010E+00  0.25055250623E+01  0.95564983585E+01  0.51100000000E-03 0. -1.
        -11    1    3    3    0    0 -0.19066726718E+02  0.21887090199E+02 -0.85662700647E+00  0.29039948264E+02  0.51100000000E-03 0.  1.
         12    1    3    3    0    0  0.35929188574E+01  0.93064892543E+01 -0.65469846033E+01  0.11932427060E+02  0.00000000000E+00 0. -1.
</event>
<event>
 7    1  0.6245487E-013  0.5052886E+02  0.7816164E-02  0.1300439E+00
        -11   -1    0    0    0    0  0.00000000000E+00  0.00000000000E+00  0.45593999997E+02  0.45594000000E+02  0.51100000000E-03 0.  1.
         11   -1    0    0    0    0 -0.00000000000E+00 -0.00000000000E+00 -0.45593999997E+02  0.45594000000E+02  0.51100000000E-03 0. -1.
    9900012    2    1    2    0    0  0.36882083089E+02  0.27154388693E+00  0.17111511886E+02  0.50528860461E+02  0.30000001856E+02 0.  0.
         12    1    1    2    0    0 -0.36882083089E+02 -0.27154388693E+00 -0.17111511886E+02  0.40659139539E+02  0.00000000000E+00 0. -1.
         11    1    3    3    0    0  0.15272985424E+02 -0.28049603185E+01  0.38583494329E+01  0.16000585826E+02  0.51100000000E-03 0. -1.
        -11    1    3    3    0    0  0.34092034843E+01 -0.86673139270E+01  0.35844558177E+00  0.93205945413E+01  0.51100000000E-03 0.  1.
        -12    1    3    3    0    0  0.18199894181E+02  0.11743818132E+02  0.12894716871E+02  0.25207680094E+02  0.00000000000E+00 0.  1.
</event>
<event>
 7    1  0.6245487E-013  0.5052884E+02  0.7816164E-02  0.1300439E+00
        -11   -1    0    0    0    0  0.00000000000E+00  0.00000000000E+00  0.45593999997E+02  0.45594000000E+02  0.51100000000E-03 0.  1.
         11   -1    0    0    0    0 -0.00000000000E+00 -0.00000000000E+00 -0.45593999997E+02  0.45594000000E+02  0.51100000000E-03 0. -1.
    9900012    2    1    2    0    0  0.52917718623E+01  0.25327174568E+02  0.31363966595E+02  0.50528843324E+02  0.29999949767E+02 0.  0.
         12    1    1    2    0    0 -0.52917718623E+01 -0.25327174568E+02 -0.31363966595E+02  0.40659156676E+02  0.00000000000E+00 0. -1.
         11    1    3    3    0    0  0.33309385915E+01  0.60473589857E+01  0.13835931683E+02  0.15462816962E+02  0.51100000000E-03 0. -1.
        -11    1    3    3    0    0  0.67782025279E+01  0.15207586124E+01 -0.29395616317E+01  0.75430603281E+01  0.51100000000E-03 0.  1.
         12    1    3    3    0    0 -0.48173692571E+01  0.17759056970E+02  0.20467596544E+02  0.27522966034E+02  0.00000000000E+00 0. -1.
</event>
<event>
 7    1  0.6245487E-013  0.5052886E+02  0.7816164E-02  0.1300439E+00
        -11   -1    0    0    0    0  0.00000000000E+00  0.00000000000E+00  0.45593999997E+02  0.45594000000E+02  0.51100000000E-03 0. -1.
         11   -1    0    0    0    0 -0.00000000000E+00 -0.00000000000E+00 -0.45593999997E+02  0.45594000000E+02  0.51100000000E-03 0.  1.
    9900012    2    1    2    0    0  0.20888551718E+02 -0.26881552082E+02 -0.22230970004E+02  0.50528862496E+02  0.30000008043E+02 0.  0.
         12    1    1    2    0    0 -0.20888551718E+02  0.26881552082E+02  0.22230970004E+02  0.40659137504E+02  0.00000000000E+00 0. -1.
         11    1    3    3    0    0  0.35078875222E+01 -0.75022307057E+01  0.18220291091E+01  0.84798897850E+01  0.51100000000E-03 0. -1.
        -11    1    3    3    0    0 -0.97865021308E-01 -0.16476451479E+02 -0.14341619788E+02  0.21844108801E+02  0.51100000000E-03 0.  1.
         12    1    3    3    0    0  0.17478529217E+02 -0.29028698977E+01 -0.97113793249E+01  0.20204863910E+02  0.00000000000E+00 0. -1.
</event>
<event>
 7    1  0.6245487E-013  0.5052886E+02  0.7816164E-02  0.1300439E+00
        -11   -1    0    0    0    0  0.00000000000E+00  0.00000000000E+00  0.45593999997E+02  0.45594000000E+02  0.51100000000E-03 0. -1.
         11   -1    0    0    0    0 -0.00000000000E+00 -0.00000000000E+00 -0.45593999997E+02  0.45594000000E+02  0.51100000000E-03 0.  1.
    9900012    2    1    2    0    0  0.36730823606E+02 -0.17230559823E+02 -0.26684013708E+01  0.50528856373E+02  0.29999989432E+02 0.  0.
         12    1    1    2    0    0 -0.36730823606E+02  0.17230559823E+02  0.26684013708E+01  0.40659143627E+02  0.00000000000E+00 0. -1.
         11    1    3    3    0    0  0.53160797818E+01  0.22000906254E+01 -0.13817920085E+01  0.59169631081E+01  0.51100000000E-03 0. -1.
        -11    1    3    3    0    0 -0.24146055202E+01  0.16919106232E+01 -0.36113187568E+01  0.46620279707E+01  0.51100000000E-03 0.  1.
        -12    1    3    3    0    0  0.33829349345E+02 -0.21122561071E+02  0.23247093944E+01  0.39949865294E+02  0.00000000000E+00 0.  1.
</event>
<event>
 7    1  0.6245487E-013  0.5052886E+02  0.7816164E-02  0.1300439E+00
        -11   -1    0    0    0    0  0.00000000000E+00  0.00000000000E+00  0.45593999997E+02  0.45594000000E+02  0.51100000000E-03 0.  1.
         11   -1    0    0    0    0 -0.00000000000E+00 -0.00000000000E+00 -0.45593999997E+02  0.45594000000E+02  0.51100000000E-03 0. -1.
    9900012    2    1    2    0    0 -0.21108873634E+02  0.32987106857E+02  0.10928490717E+02  0.50528859893E+02  0.30000000132E+02 0.  0.
         12    1    1    2    0    0  0.21108873634E+02 -0.32987106857E+02 -0.10928490717E+02  0.40659140107E+02  0.00000000000E+00 0. -1.
         11    1    3    3    0    0  0.27912354992E+01  0.62036126859E+00 -0.42467737086E+01  0.51196612104E+01  0.51100000000E-03 0. -1.
        -11    1    3    3    0    0 -0.33993107586E+01  0.14661215935E+02  0.16743280141E+01  0.15142983223E+02  0.51100000000E-03 0.  1.
        -12    1    3    3    0    0 -0.20500798374E+02  0.17705529653E+02  0.13500936411E+02  0.30266215460E+02  0.00000000000E+00 0.  1.
</event>
<event>
 7    1  0.6245487E-013  0.5052886E+02  0.7816164E-02  0.1300439E+00
        -11   -1    0    0    0    0  0.00000000000E+00  0.00000000000E+00  0.45593999997E+02  0.45594000000E+02  0.51100000000E-03 0.  1.
         11   -1    0    0    0    0 -0.00000000000E+00 -0.00000000000E+00 -0.45593999997E+02  0.45594000000E+02  0.51100000000E-03 0. -1.
    9900012    2    1    2    0    0 -0.52746377139E+01  0.26952297492E+02  0.29981953905E+02  0.50528859538E+02  0.29999999053E+02 0.  0.
         12    1    1    2    0    0  0.52746377139E+01 -0.26952297492E+02 -0.29981953905E+02  0.40659140462E+02  0.00000000000E+00 0. -1.
         11    1    3    3    0    0 -0.46628247735E+01  0.19758402183E+00  0.39245096373E+01  0.60977660228E+01  0.51100000000E-03 0. -1.
        -11    1    3    3    0    0 -0.31502635965E+01  0.22774827379E+02  0.30333165450E+02  0.38062026343E+02  0.51100000000E-03 0.  1.
         12    1    3    3    0    0  0.25384506561E+01  0.39798860906E+01 -0.42757211816E+01  0.63690671727E+01  0.00000000000E+00 0. -1.
</event>
<event>
 7    1  0.6819088E-013  0.5052885E+02  0.7816164E-02  0.1300439E+00
        -11   -1    0    0    0    0  0.00000000000E+00  0.00000000000E+00  0.45593999997E+02  0.45594000000E+02  0.51100000000E-03 0.  1.
         11   -1    0    0    0    0 -0.00000000000E+00 -0.00000000000E+00 -0.45593999997E+02  0.45594000000E+02  0.51100000000E-03 0. -1.
    9900012    2    1    2    0    0  0.19149047945E+02 -0.35289316004E+02 -0.64143861172E+01  0.50528853298E+02  0.29999980085E+02 0.  0.
         12    1    1    2    0    0 -0.19149047945E+02  0.35289316004E+02  0.64143861172E+01  0.40659146702E+02  0.00000000000E+00 0. -1.
         11    1    3    3    0    0 -0.19471654932E+01 -0.13725998948E+02 -0.83363710887E+01  0.16176822425E+02  0.51100000000E-03 0.  1.
        -11    1    3    3    0    0  0.33540707495E+01 -0.85021308277E+01  0.72727357293E+01  0.11680269879E+02  0.51100000000E-03 0. -1.
        -12    1    3    3    0    0  0.17742142689E+02 -0.13061186228E+02 -0.53507507577E+01  0.22671760994E+02  0.00000000000E+00 0.  1.
</event>
<event>
 7    1  0.6245487E-013  0.5052885E+02  0.7816164E-02  0.1300439E+00
        -11   -1    0    0    0    0  0.00000000000E+00  0.00000000000E+00  0.45593999997E+02  0.45594000000E+02  0.51100000000E-03 0.  1.
         11   -1    0    0    0    0 -0.00000000000E+00 -0.00000000000E+00 -0.45593999997E+02  0.45594000000E+02  0.51100000000E-03 0. -1.
    9900012    2    1    2    0    0  0.11086560459E+02  0.37422254074E+02  0.11394266351E+02  0.50528853078E+02  0.29999979415E+02 0.  0.
         12    1    1    2    0    0 -0.11086560459E+02 -0.37422254074E+02 -0.11394266351E+02  0.40659146922E+02  0.00000000000E+00 0. -1.
         11    1    3    3    0    0  0.78619726650E+01  0.26722857593E+02  0.51353146350E+01  0.28324780472E+02  0.51100000000E-03 0. -1.
        -11    1    3    3    0    0 -0.30505031263E+01  0.96327978796E+01  0.10486953808E+02  0.14562711449E+02  0.51100000000E-03 0.  1.
         12    1    3    3    0    0  0.62750909208E+01  0.10665986007E+01 -0.42280020918E+01  0.76413611567E+01  0.00000000000E+00 0. -1.
</event>
<event>
 7    1  0.6245487E-013  0.5052886E+02  0.7816164E-02  0.1300439E+00
        -11   -1    0    0    0    0  0.00000000000E+00  0.00000000000E+00  0.45593999997E+02  0.45594000000E+02  0.51100000000E-03 0.  1.
         11   -1    0    0    0    0 -0.00000000000E+00 -0.00000000000E+00 -0.45593999997E+02  0.45594000000E+02  0.51100000000E-03 0. -1.
    9900012    2    1    2    0    0 -0.22642921680E+02  0.32554994177E+02  0.89797699246E+01  0.50528858150E+02  0.29999994833E+02 0.  0.
         12    1    1    2    0    0  0.22642921680E+02 -0.32554994177E+02 -0.89797699246E+01  0.40659141850E+02  0.00000000000E+00 0. -1.
         11    1    3    3    0    0 -0.12445696319E+02  0.49658327957E+01  0.50311013604E+01  0.14313169927E+02  0.51100000000E-03 0. -1.
        -11    1    3    3    0    0 -0.14264503225E+02  0.12435856719E+02  0.71007145715E+01  0.20212538987E+02  0.51100000000E-03 0.  1.
         12    1    3    3    0    0  0.40672778644E+01  0.15153304663E+02 -0.31520460073E+01  0.16003149236E+02  0.00000000000E+00 0. -1.
</event>
<event>
 7    1  0.6245487E-013  0.5052887E+02  0.7816164E-02  0.1300439E+00
        -11   -1    0    0    0    0  0.00000000000E+00  0.00000000000E+00  0.45593999997E+02  0.45594000000E+02  0.51100000000E-03 0.  1.
         11   -1    0    0    0    0 -0.00000000000E+00 -0.00000000000E+00 -0.45593999997E+02  0.45594000000E+02  0.51100000000E-03 0. -1.
    9900012    2    1    2    0    0  0.10068212585E+02 -0.27076225810E+02  0.28612481892E+02  0.50528867830E+02  0.30000024256E+02 0.  0.
         12    1    1    2    0    0 -0.10068212585E+02  0.27076225810E+02 -0.28612481892E+02  0.40659132170E+02  0.00000000000E+00 0. -1.
         11    1    3    3    0    0  0.26679134140E+01 -0.23425525003E+02  0.18372534362E+02  0.29890182382E+02  0.51100000000E-03 0. -1.
        -11    1    3    3    0    0 -0.17321766438E+01 -0.64847047752E+01  0.86445516260E+01  0.10944409761E+02  0.51100000000E-03 0.  1.
         12    1    3    3    0    0  0.91324758152E+01  0.28340039684E+01  0.15953959039E+01  0.96942756871E+01  0.00000000000E+00 0. -1.
</event>
<event>
 7    1  0.6245487E-013  0.5052886E+02  0.7816164E-02  0.1300439E+00
        -11   -1    0    0    0    0  0.00000000000E+00  0.00000000000E+00  0.45593999997E+02  0.45594000000E+02  0.51100000000E-03 0.  1.
         11   -1    0    0    0    0 -0.00000000000E+00 -0.00000000000E+00 -0.45593999997E+02  0.45594000000E+02  0.51100000000E-03 0. -1.
    9900012    2    1    2    0    0 -0.52274739436E+01 -0.33329124993E+02  0.22693803127E+02  0.50528858876E+02  0.29999997038E+02 0.  0.
         12    1    1    2    0    0  0.52274739436E+01  0.33329124993E+02 -0.22693803127E+02  0.40659141124E+02  0.00000000000E+00 0. -1.
         11    1    3    3    0    0 -0.40367310412E+01 -0.17167458760E+02  0.92195243876E+01  0.19900162511E+02  0.51100000000E-03 0. -1.
        -11    1    3    3    0    0  0.73278298751E+01 -0.15556141755E+02  0.13850996399E+02  0.22080324692E+02  0.51100000000E-03 0.  1.
         12    1    3    3    0    0 -0.85185727775E+01 -0.60552447765E+00 -0.37671765993E+00  0.85483716726E+01  0.00000000000E+00 0. -1.
</event>
<event>
 7    1  0.6245487E-013  0.5052897E+02  0.7816164E-02  0.1300438E+00
        -11   -1    0    0    0    0  0.00000000000E+00  0.00000000000E+00  0.45593999997E+02  0.45594000000E+02  0.51100000000E-03 0.  1.
         11   -1    0    0    0    0 -0.00000000000E+00 -0.00000000000E+00 -0.45593999997E+02  0.45594000000E+02  0.51100000000E-03 0. -1.
    9900012    2    1    2    0    0 -0.10222181018E+02  0.83761243276E+01  0.38451325774E+02  0.50528967826E+02  0.30000328204E+02 0.  0.
         12    1    1    2    0    0  0.10222181018E+02 -0.83761243276E+01 -0.38451325774E+02  0.40659032174E+02  0.00000000000E+00 0. -1.
         11    1    3    3    0    0 -0.31789966742E+01  0.13431566663E+01  0.63162379664E+01  0.71975656992E+01  0.51100000000E-03 0. -1.
        -11    1    3    3    0    0 -0.64331246378E+01  0.17196136331E+02  0.16567631631E+02  0.24730115557E+02  0.51100000000E-03 0.  1.
         12    1    3    3    0    0 -0.61005970552E+00 -0.10163168670E+02  0.15567456176E+02  0.18601286570E+02  0.00000000000E+00 0. -1.
</event>
<event>
 7    1  0.6245487E-013  0.5052885E+02  0.7816164E-02  0.1300439E+00
        -11   -1    0    0    0    0  0.00000000000E+00  0.00000000000E+00  0.45593999997E+02  0.45594000000E+02  0.51100000000E-03 0. -1.
         11   -1    0    0    0    0 -0.00000000000E+00 -0.00000000000E+00 -0.45593999997E+02  0.45594000000E+02  0.51100000000E-03 0.  1.
    9900012    2    1    2    0    0  0.35838090930E+02  0.12091432328E+01 -0.19166007272E+02  0.50528848218E+02  0.29999964644E+02 0.  0.
         12    1    1    2    0    0 -0.35838090930E+02 -0.12091432328E+01  0.19166007272E+02  0.40659151782E+02  0.00000000000E+00 0. -1.
         11    1    3    3    0    0  0.80479177731E+01  0.68487383236E+01 -0.19167197583E+02  0.21887340189E+02  0.51100000000E-03 0. -1.
        -11    1    3    3    0    0  0.10298243675E+02 -0.10206902224E+01 -0.16314232968E+01  0.10476505790E+02  0.51100000000E-03 0.  1.
         12    1    3    3    0    0  0.17491929482E+02 -0.46189048684E+01  0.16326136073E+01  0.18165002240E+02  0.00000000000E+00 0. -1.
</event>
<event>
 7    1  0.6245487E-013  0.5052887E+02  0.7816164E-02  0.1300439E+00
        -11   -1    0    0    0    0  0.00000000000E+00  0.00000000000E+00  0.45593999997E+02  0.45594000000E+02  0.51100000000E-03 0.  1.
         11   -1    0    0    0    0 -0.00000000000E+00 -0.00000000000E+00 -0.45593999997E+02  0.45594000000E+02  0.51100000000E-03 0. -1.
    9900012    2    1    2    0    0 -0.33035476798E+02  0.21551481389E+02  0.98669043805E+01  0.50528869668E+02  0.30000029842E+02 0.  0.
         12    1    1    2    0    0  0.33035476798E+02 -0.21551481389E+02 -0.98669043805E+01  0.40659130332E+02  0.00000000000E+00 0. -1.
         11    1    3    3    0    0 -0.99194170074E+01  0.77854801126E+01 -0.76303436466E+01  0.14738747531E+02  0.51100000000E-03 0. -1.
        -11    1    3    3    0    0 -0.32501904886E+01 -0.31974651057E+01  0.41604987431E+00  0.45782768673E+01  0.51100000000E-03 0.  1.
        -12    1    3    3    0    0 -0.19865869302E+02  0.16963466382E+02  0.17081198153E+02  0.31211845270E+02  0.00000000000E+00 0.  1.
</event>
<event>
 7    1  0.6245487E-013  0.5052886E+02  0.7816164E-02  0.1300439E+00
        -11   -1    0    0    0    0  0.00000000000E+00  0.00000000000E+00  0.45593999997E+02  0.45594000000E+02  0.51100000000E-03 0.  1.
         11   -1    0    0    0    0 -0.00000000000E+00 -0.00000000000E+00 -0.45593999997E+02  0.45594000000E+02  0.51100000000E-03 0. -1.
    9900012    2    1    2    0    0  0.32324643354E+02  0.16964767736E+02  0.17901950596E+02  0.50528858993E+02  0.29999997394E+02 0.  0.
         12    1    1    2    0    0 -0.32324643354E+02 -0.16964767736E+02 -0.17901950596E+02  0.40659141007E+02  0.00000000000E+00 0. -1.
         11    1    3    3    0    0  0.80090818211E+01  0.96627213422E+01 -0.36384049463E+01  0.13067194273E+02  0.51100000000E-03 0. -1.
        -11    1    3    3    0    0  0.34059092237E+01  0.55695688992E+01 -0.10707411185E+01  0.66156482802E+01  0.51100000000E-03 0.  1.
        -12    1    3    3    0    0  0.20909652309E+02  0.17324774948E+01  0.22611096661E+02  0.30846016439E+02  0.00000000000E+00 0.  1.
</event>
<event>
 7    1  0.6245487E-013  0.5052885E+02  0.7816164E-02  0.1300439E+00
        -11   -1    0    0    0    0  0.00000000000E+00  0.00000000000E+00  0.45593999997E+02  0.45594000000E+02  0.51100000000E-03 0.  1.
         11   -1    0    0    0    0 -0.00000000000E+00 -0.00000000000E+00 -0.45593999997E+02  0.45594000000E+02  0.51100000000E-03 0. -1.
    9900012    2    1    2    0    0 -0.12113950684E+02 -0.27381348333E+02  0.27507820136E+02  0.50528853350E+02  0.29999980242E+02 0.  0.
         12    1    1    2    0    0  0.12113950684E+02  0.27381348333E+02 -0.27507820136E+02  0.40659146650E+02  0.00000000000E+00 0. -1.
         11    1    3    3    0    0 -0.64328371047E+01 -0.19545850556E+01 -0.24645072135E+01  0.71606977328E+01  0.51100000000E-03 0. -1.
        -11    1    3    3    0    0  0.26049494549E+01 -0.76626116007E+01  0.67922948734E+00  0.81217443424E+01  0.51100000000E-03 0.  1.
        -12    1    3    3    0    0 -0.82860630344E+01 -0.17764151676E+02  0.29293097862E+02  0.35246411275E+02  0.00000000000E+00 0.  1.
</event>
<event>
 7    1  0.6245487E-013  0.5052886E+02  0.7816164E-02  0.1300439E+00
        -11   -1    0    0    0    0  0.00000000000E+00  0.00000000000E+00  0.45593999997E+02  0.45594000000E+02  0.51100000000E-03 0.  1.
         11   -1    0    0    0    0 -0.00000000000E+00 -0.00000000000E+00 -0.45593999997E+02  0.45594000000E+02  0.51100000000E-03 0. -1.
    9900012    2    1    2    0    0 -0.34753377532E+02  0.72657891269E+01  0.19813551893E+02  0.50528858591E+02  0.29999996172E+02 0.  0.
         12    1    1    2    0    0  0.34753377532E+02 -0.72657891269E+01 -0.19813551893E+02  0.40659141409E+02  0.00000000000E+00 0. -1.
         11    1    3    3    0    0 -0.12534965205E+02  0.62091782370E+01 -0.29237094830E+01  0.14290812589E+02  0.51100000000E-03 0. -1.
        -11    1    3    3    0    0 -0.22465005086E+02  0.36954206823E+01  0.13151139637E+02  0.26292300424E+02  0.51100000000E-03 0.  1.
         12    1    3    3    0    0  0.24659275885E+00 -0.26388097924E+01  0.95861217383E+01  0.99457455774E+01  0.00000000000E+00 0. -1.
</event>
<event>
 7    1  0.6245487E-013  0.5052887E+02  0.7816164E-02  0.1300439E+00
        -11   -1    0    0    0    0  0.00000000000E+00  0.00000000000E+00  0.45593999997E+02  0.45594000000E+02  0.51100000000E-03 0. -1.
         11   -1    0    0    0    0 -0.00000000000E+00 -0.00000000000E+00 -0.45593999997E+02  0.45594000000E+02  0.51100000000E-03 0.  1.
    9900012    2    1    2    0    0  0.72099092414E+01 -0.38530511118E+02 -0.10797320980E+02  0.50528865496E+02  0.30000017162E+02 0.  0.
         12    1    1    2    0    0 -0.72099092414E+01  0.38530511118E+02  0.10797320980E+02  0.40659134504E+02  0.00000000000E+00 0. -1.
         11    1    3    3    0    0  0.19492044694E+01 -0.94745378849E+01 -0.41515173557E+01  0.10526222628E+02  0.51100000000E-03 0. -1.
        -11    1    3    3    0    0  0.93021511253E+01 -0.43408632370E+01 -0.10477288886E+02  0.14667879596E+02  0.51100000000E-03 0.  1.
         12    1    3    3    0    0 -0.40414463533E+01 -0.24715109996E+02  0.38314852612E+01  0.25334763272E+02  0.00000000000E+00 0. -1.
</event>
<event>
 7    1  0.6245487E-013  0.5052878E+02  0.7816164E-02  0.1300439E+00
        -11   -1    0    0    0    0  0.00000000000E+00  0.00000000000E+00  0.45593999997E+02  0.45594000000E+02  0.51100000000E-03 0.  1.
         11   -1    0    0    0    0 -0.00000000000E+00 -0.00000000000E+00 -0.45593999997E+02  0.45594000000E+02  0.51100000000E-03 0. -1.
    9900012    2    1    2    0    0  0.35237163064E+01  0.31956167525E+02  0.24890935927E+02  0.50528783200E+02  0.29999767014E+02 0.  0.
         12    1    1    2    0    0 -0.35237163064E+01 -0.31956167525E+02 -0.24890935927E+02  0.40659216800E+02  0.00000000000E+00 0. -1.
         11    1    3    3    0    0 -0.86754863798E+00  0.49324191898E+01  0.10007999843E+02  0.11191133134E+02  0.51100000000E-03 0.  1.
        -11    1    3    3    0    0 -0.37403702369E+01  0.27548783881E+02  0.14040041450E+02  0.31145603655E+02  0.51100000000E-03 0. -1.
        -12    1    3    3    0    0  0.81316351812E+01 -0.52503554650E+00  0.84289463458E+00  0.81920464117E+01  0.00000000000E+00 0.  1.
</event>
<event>
 7    1  0.6245487E-013  0.5052886E+02  0.7816164E-02  0.1300439E+00
        -11   -1    0    0    0    0  0.00000000000E+00  0.00000000000E+00  0.45593999997E+02  0.45594000000E+02  0.51100000000E-03 0.  1.
         11   -1    0    0    0    0 -0.00000000000E+00 -0.00000000000E+00 -0.45593999997E+02  0.45594000000E+02  0.51100000000E-03 0. -1.
    9900012    2    1    2    0    0 -0.84097479619E+01  0.88304434575E+01  0.38787431103E+02  0.50528863216E+02  0.30000010233E+02 0.  0.
         12    1    1    2    0    0  0.84097479619E+01 -0.88304434575E+01 -0.38787431103E+02  0.40659136784E+02  0.00000000000E+00 0. -1.
         11    1    3    3    0    0 -0.24067256511E+00  0.94433252499E+01  0.96907432683E+01  0.13533100916E+02  0.51100000000E-03 0. -1.
        -11    1    3    3    0    0  0.38743646089E+01  0.12908403254E+01  0.23007038541E+02  0.23366659850E+02  0.51100000000E-03 0.  1.
         12    1    3    3    0    0 -0.12043440006E+02 -0.19037221178E+01  0.60896492936E+01  0.13629102450E+02  0.00000000000E+00 0. -1.
</event>
<event>
 7    1  0.6245487E-013  0.5052886E+02  0.7816164E-02  0.1300439E+00
        -11   -1    0    0    0    0  0.00000000000E+00  0.00000000000E+00  0.45593999997E+02  0.45594000000E+02  0.51100000000E-03 0. -1.
         11   -1    0    0    0    0 -0.00000000000E+00 -0.00000000000E+00 -0.45593999997E+02  0.45594000000E+02  0.51100000000E-03 0.  1.
    9900012    2    1    2    0    0 -0.24021386453E+02 -0.17940698115E+02 -0.27463972467E+02  0.50528862778E+02  0.30000008900E+02 0.  0.
         12    1    1    2    0    0  0.24021386453E+02  0.17940698115E+02  0.27463972467E+02  0.40659137222E+02  0.00000000000E+00 0. -1.
         11    1    3    3    0    0  0.31384291922E+00 -0.38853547283E+01 -0.10151102139E+02  0.10873792054E+02  0.51100000000E-03 0. -1.
        -11    1    3    3    0    0 -0.16377471129E+02 -0.11983743298E+02 -0.22209340197E+02  0.30084654830E+02  0.51100000000E-03 0.  1.
         12    1    3    3    0    0 -0.79577582436E+01 -0.20716000886E+01  0.48964698695E+01  0.95704158934E+01  0.00000000000E+00 0. -1.
</event>
<event>
 7    1  0.6245487E-013  0.5052887E+02  0.7816164E-02  0.1300439E+00
        -11   -1    0    0    0    0  0.00000000000E+00  0.00000000000E+00  0.45593999997E+02  0.45594000000E+02  0.51100000000E-03 0.  1.
         11   -1    0    0    0    0 -0.00000000000E+00 -0.00000000000E+00 -0.45593999997E+02  0.45594000000E+02  0.51100000000E-03 0. -1.
    9900012    2    1    2    0    0 -0.32666028455E+01  0.10778790637E+02  0.39068039282E+02  0.50528871688E+02  0.30000035984E+02 0.  0.
         12    1    1    2    0    0  0.32666028455E+01 -0.10778790637E+02 -0.39068039282E+02  0.40659128312E+02  0.00000000000E+00 0. -1.
         11    1    3    3    0    0 -0.28978203530E+01  0.69291926812E+01  0.23162571228E+02  0.24349862015E+02  0.51100000000E-03 0.  1.
        -11    1    3    3    0    0 -0.17363420948E+01  0.18624737892E+01  0.20676570006E+02  0.20832768418E+02  0.51100000000E-03 0. -1.
         12    1    3    3    0    0  0.13675596023E+01  0.19871241670E+01 -0.47711019521E+01  0.53462412551E+01  0.00000000000E+00 0. -1.
</event>
<event>
 7    1  0.6245487E-013  0.5052885E+02  0.7816164E-02  0.1300439E+00
        -11   -1    0    0    0    0  0.00000000000E+00  0.00000000000E+00  0.45593999997E+02  0.45594000000E+02  0.51100000000E-03 0. -1.
         11   -1    0    0    0    0 -0.00000000000E+00 -0.00000000000E+00 -0.45593999997E+02  0.45594000000E+02  0.51100000000E-03 0.  1.
    9900012    2    1    2    0    0  0.16892579480E+02  0.33878777266E+02 -0.14833599248E+02  0.50528850266E+02  0.29999970867E+02 0.  0.
         12    1    1    2    0    0 -0.16892579480E+02 -0.33878777266E+02  0.14833599248E+02  0.40659149734E+02  0.00000000000E+00 0. -1.
         11    1    3    3    0    0  0.12806166351E+02  0.78471348058E+01  0.46137622687E+01  0.15711849790E+02  0.51100000000E-03 0. -1.
        -11    1    3    3    0    0  0.64023071963E+01  0.62000704504E+01 -0.58855075828E+01  0.10680337579E+02  0.51100000000E-03 0.  1.
         12    1    3    3    0    0 -0.23158940681E+01  0.19831572009E+02 -0.13561853934E+02  0.24136662897E+02  0.00000000000E+00 0. -1.
</event>
<event>
 7    1  0.6245487E-013  0.5052885E+02  0.7816164E-02  0.1300439E+00
        -11   -1    0    0    0    0  0.00000000000E+00  0.00000000000E+00  0.45593999997E+02  0.45594000000E+02  0.51100000000E-03 0.  1.
         11   -1    0    0    0    0 -0.00000000000E+00 -0.00000000000E+00 -0.45593999997E+02  0.45594000000E+02  0.51100000000E-03 0. -1.
    9900012    2    1    2    0    0 -0.57192191460E+00  0.40470026827E+02  0.38750642523E+01  0.50528852333E+02  0.29999977152E+02 0.  0.
         12    1    1    2    0    0  0.57192191460E+00 -0.40470026827E+02 -0.38750642523E+01  0.40659147667E+02  0.00000000000E+00 0. -1.
         11    1    3    3    0    0 -0.64905415932E+01  0.30359765577E+01  0.86321231992E+00  0.72173000217E+01  0.51100000000E-03 0. -1.
        -11    1    3    3    0    0 -0.22314521515E+01  0.30424128411E+02 -0.35584315367E+01  0.30712691245E+02  0.51100000000E-03 0.  1.
         12    1    3    3    0    0  0.81500718302E+01  0.70099218582E+01  0.65702834691E+01  0.12598861066E+02  0.00000000000E+00 0. -1.
</event>
<event>
 7    1  0.6245487E-013  0.5052886E+02  0.7816164E-02  0.1300439E+00
        -11   -1    0    0    0    0  0.00000000000E+00  0.00000000000E+00  0.45593999997E+02  0.45594000000E+02  0.51100000000E-03 0. -1.
         11   -1    0    0    0    0 -0.00000000000E+00 -0.00000000000E+00 -0.45593999997E+02  0.45594000000E+02  0.51100000000E-03 0.  1.
    9900012    2    1    2    0    0 -0.36147046976E+02 -0.14339659224E+02 -0.11871430587E+02  0.50528859626E+02  0.29999999319E+02 0.  0.
         12    1    1    2    0    0  0.36147046976E+02  0.14339659224E+02  0.11871430587E+02  0.40659140374E+02  0.00000000000E+00 0. -1.
         11    1    3    3    0    0 -0.14586835241E+02 -0.16844749539E+01 -0.14155845764E+00  0.14684456315E+02  0.51100000000E-03 0. -1.
        -11    1    3    3    0    0 -0.16382180987E+02  0.18039162865E+01 -0.12157560245E+02  0.20480142559E+02  0.51100000000E-03 0.  1.
         12    1    3    3    0    0 -0.51780307489E+01 -0.14459100557E+02  0.42768811567E+00  0.15364260752E+02  0.00000000000E+00 0. -1.
</event>
<event>
 7    1  0.6245487E-013  0.5052887E+02  0.7816164E-02  0.1300439E+00
        -11   -1    0    0    0    0  0.00000000000E+00  0.00000000000E+00  0.45593999997E+02  0.45594000000E+02  0.51100000000E-03 0. -1.
         11   -1    0    0    0    0 -0.00000000000E+00 -0.00000000000E+00 -0.45593999997E+02  0.45594000000E+02  0.51100000000E-03 0.  1.
    9900012    2    1    2    0    0 -0.29347344941E+02  0.20622538507E+00 -0.28139934781E+02  0.50528866789E+02  0.30000021091E+02 0.  0.
         12    1    1    2    0    0  0.29347344941E+02 -0.20622538507E+00  0.28139934781E+02  0.40659133211E+02  0.00000000000E+00 0. -1.
         11    1    3    3    0    0 -0.71418050176E+01 -0.40523149269E+01 -0.14177424596E+00  0.82125961410E+01  0.51100000000E-03 0. -1.
        -11    1    3    3    0    0 -0.10463375180E+02 -0.89258221963E+01 -0.15274981263E+02  0.20554259289E+02  0.51100000000E-03 0.  1.
         12    1    3    3    0    0 -0.11742164743E+02  0.13184362508E+02 -0.12723179272E+02  0.21762011359E+02  0.00000000000E+00 0. -1.
</event>
<event>
 7    1  0.6245487E-013  0.5052886E+02  0.7816164E-02  0.1300439E+00
        -11   -1    0    0    0    0  0.00000000000E+00  0.00000000000E+00  0.45593999997E+02  0.45594000000E+02  0.51100000000E-03 0.  1.
         11   -1    0    0    0    0 -0.00000000000E+00 -0.00000000000E+00 -0.45593999997E+02  0.45594000000E+02  0.51100000000E-03 0. -1.
    9900012    2    1    2    0    0  0.27668773423E+02  0.17472013561E+02  0.24131580654E+02  0.50528862460E+02  0.30000007934E+02 0.  0.
         12    1    1    2    0    0 -0.27668773423E+02 -0.17472013561E+02 -0.24131580654E+02  0.40659137540E+02  0.00000000000E+00 0. -1.
         11    1    3    3    0    0  0.92541974230E+01  0.11703821529E+02 -0.35476558931E+01  0.15336409975E+02  0.51100000000E-03 0. -1.
        -11    1    3    3    0    0  0.14782021771E+02  0.83473692733E+01  0.19308592404E+02  0.25710085225E+02  0.51100000000E-03 0.  1.
        -12    1    3    3    0    0  0.36325542293E+01 -0.25791772416E+01  0.83706441436E+01  0.94823672599E+01  0.00000000000E+00 0.  1.
</event>
<event>
 7    1  0.6245487E-013  0.5052886E+02  0.7816164E-02  0.1300439E+00
        -11   -1    0    0    0    0  0.00000000000E+00  0.00000000000E+00  0.45593999997E+02  0.45594000000E+02  0.51100000000E-03 0.  1.
         11   -1    0    0    0    0 -0.00000000000E+00 -0.00000000000E+00 -0.45593999997E+02  0.45594000000E+02  0.51100000000E-03 0. -1.
    9900012    2    1    2    0    0  0.20114495514E+02 -0.83488621454E+01  0.34334664432E+02  0.50528860676E+02  0.30000002512E+02 0.  0.
         12    1    1    2    0    0 -0.20114495514E+02  0.83488621454E+01 -0.34334664432E+02  0.40659139324E+02  0.00000000000E+00 0. -1.
         11    1    3    3    0    0 -0.96588912234E+00  0.72838731953E+01  0.65975999726E-01  0.73479319278E+01  0.51100000000E-03 0. -1.
        -11    1    3    3    0    0  0.25376764317E+01 -0.23408310979E+01  0.48094744858E+01  0.59203325068E+01  0.51100000000E-03 0.  1.
         12    1    3    3    0    0  0.18542708205E+02 -0.13291904243E+02  0.29459213946E+02  0.37260596242E+02  0.00000000000E+00 0. -1.
</event>
<event>
 7    1  0.6245487E-013  0.5052885E+02  0.7816164E-02  0.1300439E+00
        -11   -1    0    0    0    0  0.00000000000E+00  0.00000000000E+00  0.45593999997E+02  0.45594000000E+02  0.51100000000E-03 0. -1.
         11   -1    0    0    0    0 -0.00000000000E+00 -0.00000000000E+00 -0.45593999997E+02  0.45594000000E+02  0.51100000000E-03 0.  1.
    9900012    2    1    2    0    0  0.97916282272E+01  0.33275558485E+02  0.21213846982E+02  0.50528854908E+02  0.29999984979E+02 0.  0.
         12    1    1    2    0    0 -0.97916282272E+01 -0.33275558485E+02 -0.21213846982E+02  0.40659145092E+02  0.00000000000E+00 0. -1.
         11    1    3    3    0    0  0.41682756050E+01  0.84718747001E+01  0.18164243332E+02  0.20471612505E+02  0.51100000000E-03 0. -1.
        -11    1    3    3    0    0 -0.50646279725E+00 -0.48175370726E-01 -0.35799969336E+01  0.36159651183E+01  0.51100000000E-03 0.  1.
        -12    1    3    3    0    0  0.61298154194E+01  0.24851859156E+02  0.66296005832E+01  0.26441277285E+02  0.00000000000E+00 0.  1.
</event>
<event>
 7    1  0.8767629E-013  0.5052886E+02  0.7816164E-02  0.1300439E+00
        -11   -1    0    0    0    0  0.00000000000E+00  0.00000000000E+00  0.45593999997E+02  0.45594000000E+02  0.51100000000E-03 0.  1.
         11   -1    0    0    0    0 -0.00000000000E+00 -0.00000000000E+00 -0.45593999997E+02  0.45594000000E+02  0.51100000000E-03 0. -1.
    9900012    2    1    2    0    0 -0.24134903949E+02 -0.26797597877E+02  0.18776598757E+02  0.50528862018E+02  0.30000006588E+02 0.  0.
         12    1    1    2    0    0  0.24134903949E+02  0.26797597877E+02 -0.18776598757E+02  0.40659137982E+02  0.00000000000E+00 0. -1.
         11    1    3    3    0    0 -0.37270357105E+01 -0.59112872469E+01 -0.42197680206E+01  0.81633666162E+01  0.51100000000E-03 0. -1.
        -11    1    3    3    0    0  0.39526530146E+01 -0.87876118614E+00  0.29101715302E+01  0.49864602347E+01  0.51100000000E-03 0.  1.
        -12    1    3    3    0    0 -0.24360521253E+02 -0.20007549444E+02  0.20086195247E+02  0.37379035167E+02  0.00000000000E+00 0.  1.
</event>
<event>
 7    1  0.6245487E-013  0.5052886E+02  0.7816164E-02  0.1300439E+00
        -11   -1    0    0    0    0  0.00000000000E+00  0.00000000000E+00  0.45593999997E+02  0.45594000000E+02  0.51100000000E-03 0.  1.
         11   -1    0    0    0    0 -0.00000000000E+00 -0.00000000000E+00 -0.45593999997E+02  0.45594000000E+02  0.51100000000E-03 0. -1.
    9900012    2    1    2    0    0 -0.70162096229E+01  0.17737502169E+02  0.35907090116E+02  0.50528864479E+02  0.30000014070E+02 0.  0.
         12    1    1    2    0    0  0.70162096229E+01 -0.17737502169E+02 -0.35907090116E+02  0.40659135521E+02  0.00000000000E+00 0. -1.
         11    1    3    3    0    0 -0.37714768948E+00  0.93675370103E+01  0.18159524208E+01  0.95493807902E+01  0.51100000000E-03 0. -1.
        -11    1    3    3    0    0 -0.37587250062E+01  0.14997706456E+02  0.21913399780E+02  0.26818954170E+02  0.51100000000E-03 0.  1.
        -12    1    3    3    0    0 -0.28803369273E+01 -0.66277412965E+01  0.12177737915E+02  0.14160529519E+02  0.00000000000E+00 0.  1.
</event>
<event>
 7    1  0.6245487E-013  0.5052890E+02  0.7816164E-02  0.1300439E+00
        -11   -1    0    0    0    0  0.00000000000E+00  0.00000000000E+00  0.45593999997E+02  0.45594000000E+02  0.51100000000E-03 0.  1.
         11   -1    0    0    0    0 -0.00000000000E+00 -0.00000000000E+00 -0.45593999997E+02  0.45594000000E+02  0.51100000000E-03 0. -1.
    9900012    2    1    2    0    0  0.45533269948E+00 -0.38538509084E+02 -0.12951392692E+02  0.50528897908E+02  0.30000115682E+02 0.  0.
         12    1    1    2    0    0 -0.45533269948E+00  0.38538509084E+02  0.12951392692E+02  0.40659102092E+02  0.00000000000E+00 0. -1.
         11    1    3    3    0    0 -0.23565200681E+01 -0.52172580858E-01 -0.41615178281E+01  0.47826916799E+01  0.51100000000E-03 0. -1.
        -11    1    3    3    0    0  0.12754994042E+02 -0.19761534864E+02 -0.26212823694E+01  0.23665993635E+02  0.51100000000E-03 0.  1.
         12    1    3    3    0    0 -0.99431412747E+01 -0.18724801638E+02 -0.61685924944E+01  0.22080212593E+02  0.00000000000E+00 0. -1.
</event>
<event>
 7    1  0.6245487E-013  0.5052885E+02  0.7816164E-02  0.1300439E+00
        -11   -1    0    0    0    0  0.00000000000E+00  0.00000000000E+00  0.45593999997E+02  0.45594000000E+02  0.51100000000E-03 0. -1.
         11   -1    0    0    0    0 -0.00000000000E+00 -0.00000000000E+00 -0.45593999997E+02  0.45594000000E+02  0.51100000000E-03 0.  1.
    9900012    2    1    2    0    0  0.11425492343E+02  0.26743142792E+02 -0.28415291738E+02  0.50528851384E+02  0.29999974266E+02 0.  0.
         12    1    1    2    0    0 -0.11425492343E+02 -0.26743142792E+02  0.28415291738E+02  0.40659148616E+02  0.00000000000E+00 0. -1.
         11    1    3    3    0    0  0.21378233212E+01  0.23244826073E+02 -0.50977367157E+01  0.23893077399E+02  0.51100000000E-03 0. -1.
        -11    1    3    3    0    0  0.39971378622E+01  0.58494486373E+01 -0.12946427628E+02  0.14758155340E+02  0.51100000000E-03 0.  1.
        -12    1    3    3    0    0  0.52905311595E+01 -0.23511319187E+01 -0.10371127394E+02  0.11877618645E+02  0.00000000000E+00 0.  1.
</event>
<event>
 7    1  0.6245487E-013  0.5052887E+02  0.7816164E-02  0.1300439E+00
        -11   -1    0    0    0    0  0.00000000000E+00  0.00000000000E+00  0.45593999997E+02  0.45594000000E+02  0.51100000000E-03 0. -1.
         11   -1    0    0    0    0 -0.00000000000E+00 -0.00000000000E+00 -0.45593999997E+02  0.45594000000E+02  0.51100000000E-03 0.  1.
    9900012    2    1    2    0    0  0.16023301367E+02 -0.80772686116E+01 -0.36485289247E+02  0.50528870811E+02  0.30000033318E+02 0.  0.
         12    1    1    2    0    0 -0.16023301367E+02  0.80772686116E+01  0.36485289247E+02  0.40659129189E+02  0.00000000000E+00 0. -1.
         11    1    3    3    0    0 -0.46466495514E+01 -0.46125485583E+01 -0.36526987043E+00  0.65574673919E+01  0.51100000000E-03 0. -1.
        -11    1    3    3    0    0  0.60793564741E+01 -0.62270043227E+01 -0.65841405806E+01  0.10912610385E+02  0.51100000000E-03 0.  1.
        -12    1    3    3    0    0  0.14590594445E+02  0.27622842694E+01 -0.29535878796E+02  0.33058793034E+02  0.00000000000E+00 0.  1.
</event>
<event>
 7    1  0.6245487E-013  0.5052885E+02  0.7816164E-02  0.1300439E+00
        -11   -1    0    0    0    0  0.00000000000E+00  0.00000000000E+00  0.45593999997E+02  0.45594000000E+02  0.51100000000E-03 0.  1.
         11   -1    0    0    0    0 -0.00000000000E+00 -0.00000000000E+00 -0.45593999997E+02  0.45594000000E+02  0.51100000000E-03 0. -1.
    9900012    2    1    2    0    0 -0.27924624968E+02  0.13461916212E+02 -0.26308901495E+02  0.50528853851E+02  0.29999981765E+02 0.  0.
         12    1    1    2    0    0  0.27924624968E+02 -0.13461916212E+02  0.26308901495E+02  0.40659146149E+02  0.00000000000E+00 0. -1.
         11    1    3    3    0    0 -0.87758688981E+01  0.30313559513E+01 -0.15050749266E+02  0.17684175060E+02  0.51100000000E-03 0. -1.
        -11    1    3    3    0    0  0.31756544081E+01  0.74598547222E+01 -0.12642730392E+01  0.82056443973E+01  0.51100000000E-03 0.  1.
        -12    1    3    3    0    0 -0.22324410478E+02  0.29707055386E+01 -0.99938791898E+01  0.24639034393E+02  0.00000000000E+00 0.  1.
</event>
<event>
 7    1  0.6245487E-013  0.5052886E+02  0.7816164E-02  0.1300439E+00
        -11   -1    0    0    0    0  0.00000000000E+00  0.00000000000E+00  0.45593999997E+02  0.45594000000E+02  0.51100000000E-03 0.  1.
         11   -1    0    0    0    0 -0.00000000000E+00 -0.00000000000E+00 -0.45593999997E+02  0.45594000000E+02  0.51100000000E-03 0. -1.
    9900012    2    1    2    0    0  0.13870932399E+01  0.40337578556E+02  0.49113622779E+01  0.50528858951E+02  0.29999997267E+02 0.  0.
         12    1    1    2    0    0 -0.13870932399E+01 -0.40337578556E+02 -0.49113622779E+01  0.40659141049E+02  0.00000000000E+00 0. -1.
         11    1    3    3    0    0 -0.30058532145E+01  0.20563314758E+02 -0.77887480097E+01  0.22193459919E+02  0.51100000000E-03 0. -1.
        -11    1    3    3    0    0  0.95872763541E+01  0.13970886456E+02  0.57393482743E+01  0.17889708079E+02  0.51100000000E-03 0.  1.
        -12    1    3    3    0    0 -0.51943298996E+01  0.58033773424E+01  0.69607620133E+01  0.10445690953E+02  0.00000000000E+00 0.  1.
</event>
<event>
 7    1  0.6245487E-013  0.5052883E+02  0.7816164E-02  0.1300439E+00
        -11   -1    0    0    0    0  0.00000000000E+00  0.00000000000E+00  0.45593999997E+02  0.45594000000E+02  0.51100000000E-03 0.  1.
         11   -1    0    0    0    0 -0.00000000000E+00 -0.00000000000E+00 -0.45593999997E+02  0.45594000000E+02  0.51100000000E-03 0. -1.
    9900012    2    1    2    0    0  0.20648128495E+02 -0.23652418270E+02  0.25833813811E+02  0.50528830845E+02  0.29999911836E+02 0.  0.
         12    1    1    2    0    0 -0.20648128495E+02  0.23652418270E+02 -0.25833813811E+02  0.40659169155E+02  0.00000000000E+00 0. -1.
         11    1    3    3    0    0  0.75589728287E+01 -0.16027443681E+02  0.17599691691E+02  0.24975311190E+02  0.51100000000E-03 0. -1.
        -11    1    3    3    0    0  0.16446990384E+02 -0.87615511971E+01  0.10457643301E+02  0.21368916111E+02  0.51100000000E-03 0.  1.
         12    1    3    3    0    0 -0.33578347174E+01  0.11365766084E+01 -0.22235211812E+01  0.41846035439E+01  0.00000000000E+00 0. -1.
</event>
<event>
 7    1  0.6245487E-013  0.5052885E+02  0.7816164E-02  0.1300439E+00
        -11   -1    0    0    0    0  0.00000000000E+00  0.00000000000E+00  0.45593999997E+02  0.45594000000E+02  0.51100000000E-03 0. -1.
         11   -1    0    0    0    0 -0.00000000000E+00 -0.00000000000E+00 -0.45593999997E+02  0.45594000000E+02  0.51100000000E-03 0.  1.
    9900012    2    1    2    0    0  0.36935207319E+02 -0.15490408645E+02 -0.70002834570E+01  0.50528852589E+02  0.29999977931E+02 0.  0.
         12    1    1    2    0    0 -0.36935207319E+02  0.15490408645E+02  0.70002834570E+01  0.40659147411E+02  0.00000000000E+00 0. -1.
         11    1    3    3    0    0  0.87220483557E+01 -0.70738175472E+01  0.17158925001E+01  0.11360339323E+02  0.51100000000E-03 0. -1.
        -11    1    3    3    0    0  0.16296747478E+02 -0.16785134732E+02 -0.74484348005E+01  0.24552065241E+02  0.51100000000E-03 0.  1.
        -12    1    3    3    0    0  0.11916411485E+02  0.83685436344E+01 -0.12677411567E+01  0.14616448025E+02  0.00000000000E+00 0.  1.
</event>
<event>
 7    1  0.9184535E-013  0.5052886E+02  0.7816164E-02  0.1300439E+00
        -11   -1    0    0    0    0  0.00000000000E+00  0.00000000000E+00  0.45593999997E+02  0.45594000000E+02  0.51100000000E-03 0.  1.
         11   -1    0    0    0    0 -0.00000000000E+00 -0.00000000000E+00 -0.45593999997E+02  0.45594000000E+02  0.51100000000E-03 0. -1.
    9900012    2    1    2    0    0 -0.40597215161E+02 -0.24530760696E+00 -0.22296402539E+01  0.50528863877E+02  0.30000012240E+02 0.  0.
         12    1    1    2    0    0  0.40597215161E+02  0.24530760696E+00  0.22296402539E+01  0.40659136123E+02  0.00000000000E+00 0. -1.
         11    1    3    3    0    0  0.43741627051E+00  0.11209337407E+01 -0.52054852719E+01  0.53427429867E+01  0.51100000000E-03 0. -1.
        -11    1    3    3    0    0 -0.10552185085E+02 -0.84510531448E+01 -0.13801165989E+01  0.13589467664E+02  0.51100000000E-03 0.  1.
        -12    1    3    3    0    0 -0.30482446346E+02  0.70848117971E+01  0.43559616169E+01  0.31596653226E+02  0.00000000000E+00 0.  1.
</event>
<event>
 7    1  0.6245487E-013  0.5052885E+02  0.7816164E-02  0.1300439E+00
        -11   -1    0    0    0    0  0.00000000000E+00  0.00000000000E+00  0.45593999997E+02  0.45594000000E+02  0.51100000000E-03 0.  1.
         11   -1    0    0    0    0 -0.00000000000E+00 -0.00000000000E+00 -0.45593999997E+02  0.45594000000E+02  0.51100000000E-03 0. -1.
    9900012    2    1    2    0    0 -0.10339460818E+02  0.61858751732E+01  0.38832933931E+02  0.50528852698E+02  0.29999978260E+02 0.  0.
         12    1    1    2    0    0  0.10339460818E+02 -0.61858751732E+01 -0.38832933931E+02  0.40659147302E+02  0.00000000000E+00 0. -1.
         11    1    3    3    0    0 -0.18305227428E+02 -0.32434169476E+01  0.18886272595E+02  0.26500799940E+02  0.51100000000E-03 0. -1.
        -11    1    3    3    0    0  0.12441821483E+01  0.38932693171E+01  0.33460888354E+01  0.52822197937E+01  0.51100000000E-03 0.  1.
        -12    1    3    3    0    0  0.67215844619E+01  0.55360228037E+01  0.16600572501E+02  0.18745832964E+02  0.00000000000E+00 0.  1.
</event>
<event>
 7    1  0.6245487E-013  0.5052885E+02  0.7816164E-02  0.1300439E+00
        -11   -1    0    0    0    0  0.00000000000E+00  0.00000000000E+00  0.45593999997E+02  0.45594000000E+02  0.51100000000E-03 0. -1.
         11   -1    0    0    0    0 -0.00000000000E+00 -0.00000000000E+00 -0.45593999997E+02  0.45594000000E+02  0.51100000000E-03 0.  1.
    9900012    2    1    2    0    0 -0.83641613342E+01  0.38512777335E+02 -0.99986446506E+01  0.50528854562E+02  0.29999983928E+02 0.  0.
         12    1    1    2    0    0  0.83641613342E+01 -0.38512777335E+02  0.99986446506E+01  0.40659145438E+02  0.00000000000E+00 0. -1.
         11    1    3    3    0    0 -0.18741725161E+01  0.21449105094E+02  0.62276214942E+01  0.22413386662E+02  0.51100000000E-03 0. -1.
        -11    1    3    3    0    0  0.36019474421E+01  0.18620888876E+01 -0.58715674729E+01  0.71355942465E+01  0.51100000000E-03 0.  1.
        -12    1    3    3    0    0 -0.10091936260E+02  0.15201583353E+02 -0.10354698672E+02  0.20979873654E+02  0.00000000000E+00 0.  1.
</event>
<event>
 7    1  0.6245487E-013  0.5052885E+02  0.7816164E-02  0.1300439E+00
        -11   -1    0    0    0    0  0.00000000000E+00  0.00000000000E+00  0.45593999997E+02  0.45594000000E+02  0.51100000000E-03 0.  1.
         11   -1    0    0    0    0 -0.00000000000E+00 -0.00000000000E+00 -0.45593999997E+02  0.45594000000E+02  0.51100000000E-03 0. -1.
    9900012    2    1    2    0    0  0.11200992515E+02 -0.36885068490E+02  0.12930424111E+02  0.50528851232E+02  0.29999973805E+02 0.  0.
         12    1    1    2    0    0 -0.11200992515E+02  0.36885068490E+02 -0.12930424111E+02  0.40659148768E+02  0.00000000000E+00 0. -1.
         11    1    3    3    0    0 -0.28167608871E+01 -0.11132097340E+01 -0.29718165654E+01  0.42432383584E+01  0.51100000000E-03 0. -1.
        -11    1    3    3    0    0 -0.10209391701E+01 -0.74183093509E+01  0.11735873364E+02  0.13921363234E+02  0.51100000000E-03 0.  1.
         12    1    3    3    0    0  0.15038692572E+02 -0.28353549405E+02  0.41663673127E+01  0.32364249640E+02  0.00000000000E+00 0. -1.
</event>
<event>
 7    1  0.6245487E-013  0.5052885E+02  0.7816164E-02  0.1300439E+00
        -11   -1    0    0    0    0  0.00000000000E+00  0.00000000000E+00  0.45593999997E+02  0.45594000000E+02  0.51100000000E-03 0. -1.
         11   -1    0    0    0    0 -0.00000000000E+00 -0.00000000000E+00 -0.45593999997E+02  0.45594000000E+02  0.51100000000E-03 0.  1.
    9900012    2    1    2    0    0 -0.29307698954E+02  0.18183780033E+01 -0.28123276433E+02  0.50528851043E+02  0.29999973231E+02 0.  0.
         12    1    1    2    0    0  0.29307698954E+02 -0.18183780033E+01  0.28123276433E+02  0.40659148957E+02  0.00000000000E+00 0. -1.
         11    1    3    3    0    0 -0.24388014366E+00 -0.55742480878E+01 -0.84498764671E+00  0.56432015428E+01  0.51100000000E-03 0. -1.
        -11    1    3    3    0    0 -0.85962568558E+01 -0.17637099666E+01 -0.19098245284E+02  0.21017832380E+02  0.51100000000E-03 0.  1.
        -12    1    3    3    0    0 -0.20467561955E+02  0.91563360577E+01 -0.81800435026E+01  0.23867817120E+02  0.00000000000E+00 0.  1.
</event>
<event>
 7    1  0.6245487E-013  0.5052886E+02  0.7816164E-02  0.1300439E+00
        -11   -1    0    0    0    0  0.00000000000E+00  0.00000000000E+00  0.45593999997E+02  0.45594000000E+02  0.51100000000E-03 0. -1.
         11   -1    0    0    0    0 -0.00000000000E+00 -0.00000000000E+00 -0.45593999997E+02  0.45594000000E+02  0.51100000000E-03 0.  1.
    9900012    2    1    2    0    0  0.26534416747E+02 -0.90101516527E+01 -0.29460265338E+02  0.50528864019E+02  0.30000012673E+02 0.  0.
         12    1    1    2    0    0 -0.26534416747E+02  0.90101516527E+01  0.29460265338E+02  0.40659135981E+02  0.00000000000E+00 0. -1.
         11    1    3    3    0    0  0.17197498647E+02  0.45376999606E+01 -0.12384604679E+02  0.21673096547E+02  0.51100000000E-03 0. -1.
        -11    1    3    3    0    0  0.68891464196E+01 -0.67619933193E+01  0.69349932689E+00  0.96781110563E+01  0.51100000000E-03 0.  1.
        -12    1    3    3    0    0  0.24477716805E+01 -0.67858582940E+01 -0.17769159986E+02  0.19177656416E+02  0.00000000000E+00 0.  1.
</event>
<event>
 7    1  0.6245487E-013  0.5052886E+02  0.7816164E-02  0.1300439E+00
        -11   -1    0    0    0    0  0.00000000000E+00  0.00000000000E+00  0.45593999997E+02  0.45594000000E+02  0.51100000000E-03 0.  1.
         11   -1    0    0    0    0 -0.00000000000E+00 -0.00000000000E+00 -0.45593999997E+02  0.45594000000E+02  0.51100000000E-03 0. -1.
    9900012    2    1    2    0    0  0.25726113506E+01  0.77960476510E+01  0.39821718265E+02  0.50528856702E+02  0.29999990433E+02 0.  0.
         12    1    1    2    0    0 -0.25726113506E+01 -0.77960476510E+01 -0.39821718265E+02  0.40659143298E+02  0.00000000000E+00 0. -1.
         11    1    3    3    0    0  0.41450748712E+01 -0.72330985493E+01  0.56044192862E+01  0.10045341015E+02  0.51100000000E-03 0. -1.
        -11    1    3    3    0    0  0.68042545726E+01  0.56172491819E+01  0.16937305683E+02  0.19097740514E+02  0.51100000000E-03 0.  1.
         12    1    3    3    0    0 -0.83767180932E+01  0.94118970185E+01  0.17279993295E+02  0.21385775174E+02  0.00000000000E+00 0. -1.
</event>
<event>
 7    1  0.6245487E-013  0.5052884E+02  0.7816164E-02  0.1300439E+00
        -11   -1    0    0    0    0  0.00000000000E+00  0.00000000000E+00  0.45593999997E+02  0.45594000000E+02  0.51100000000E-03 0. -1.
         11   -1    0    0    0    0 -0.00000000000E+00 -0.00000000000E+00 -0.45593999997E+02  0.45594000000E+02  0.51100000000E-03 0.  1.
    9900012    2    1    2    0    0  0.48773144944E+01 -0.82317929548E+01 -0.39517297833E+02  0.50528838180E+02  0.29999934131E+02 0.  0.
         12    1    1    2    0    0 -0.48773144944E+01  0.82317929548E+01  0.39517297833E+02  0.40659161820E+02  0.00000000000E+00 0. -1.
         11    1    3    3    0    0 -0.72863650126E+01  0.38314489561E+01 -0.56640100083E+01  0.99926035564E+01  0.51100000000E-03 0. -1.
        -11    1    3    3    0    0  0.84139552200E+01 -0.16583613945E+01 -0.24808144883E+02  0.26248597253E+02  0.51100000000E-03 0.  1.
         12    1    3    3    0    0  0.37497242870E+01 -0.10404880516E+02 -0.90451429419E+01  0.14287637370E+02  0.00000000000E+00 0. -1.
</event>
<event>
 7    1  0.6245487E-013  0.5052886E+02  0.7816164E-02  0.1300439E+00
        -11   -1    0    0    0    0  0.00000000000E+00  0.00000000000E+00  0.45593999997E+02  0.45594000000E+02  0.51100000000E-03 0.  1.
         11   -1    0    0    0    0 -0.00000000000E+00 -0.00000000000E+00 -0.45593999997E+02  0.45594000000E+02  0.51100000000E-03 0. -1.
    9900012    2    1    2    0    0  0.17793370981E+01  0.39563193037E+02 -0.92061795153E+01  0.50528855578E+02  0.29999987016E+02 0.  0.
         12    1    1    2    0    0 -0.17793370981E+01 -0.39563193037E+02  0.92061795153E+01  0.40659144422E+02  0.00000000000E+00 0. -1.
         11    1    3    3    0    0 -0.35698268854E+01  0.24925311205E+01  0.39349144548E+01  0.58685541155E+01  0.51100000000E-03 0. -1.
        -11    1    3    3    0    0  0.51098206672E+01  0.34405476187E+02 -0.38543933009E+01  0.34995762699E+02  0.51100000000E-03 0.  1.
         12    1    3    3    0    0  0.23934331631E+00  0.26651857297E+01 -0.92867006692E+01  0.96645387638E+01  0.00000000000E+00 0. -1.
</event>
<event>
 7    1  0.6245487E-013  0.5052886E+02  0.7816164E-02  0.1300439E+00
        -11   -1    0    0    0    0  0.00000000000E+00  0.00000000000E+00  0.45593999997E+02  0.45594000000E+02  0.51100000000E-03 0.  1.
         11   -1    0    0    0    0 -0.00000000000E+00 -0.00000000000E+00 -0.45593999997E+02  0.45594000000E+02  0.51100000000E-03 0. -1.
    9900012    2    1    2    0    0 -0.13376293973E+02 -0.21139371259E+02  0.32052576102E+02  0.50528857209E+02  0.29999991974E+02 0.  0.
         12    1    1    2    0    0  0.13376293973E+02  0.21139371259E+02 -0.32052576102E+02  0.40659142791E+02  0.00000000000E+00 0. -1.
         11    1    3    3    0    0 -0.39767065854E+01 -0.15817797026E+02  0.80538444935E+01  0.18190143194E+02  0.51100000000E-03 0. -1.
        -11    1    3    3    0    0 -0.10678519563E+02 -0.95093557768E+01  0.24027017584E+02  0.27959903461E+02  0.51100000000E-03 0.  1.
        -12    1    3    3    0    0  0.12789321752E+01  0.41877815444E+01 -0.28285974636E-01  0.43788105541E+01  0.00000000000E+00 0.  1.
</event>
<event>
 7    1  0.6245487E-013  0.5052886E+02  0.7816164E-02  0.1300439E+00
        -11   -1    0    0    0    0  0.00000000000E+00  0.00000000000E+00  0.45593999997E+02  0.45594000000E+02  0.51100000000E-03 0.  1.
         11   -1    0    0    0    0 -0.00000000000E+00 -0.00000000000E+00 -0.45593999997E+02  0.45594000000E+02  0.51100000000E-03 0. -1.
    9900012    2    1    2    0    0 -0.17362458223E+02  0.14668047742E+02  0.33712893596E+02  0.50528858657E+02  0.29999996374E+02 0.  0.
         12    1    1    2    0    0  0.17362458223E+02 -0.14668047742E+02 -0.33712893596E+02  0.40659141343E+02  0.00000000000E+00 0. -1.
         11    1    3    3    0    0 -0.16014199349E+01  0.79321621600E+01  0.22013055726E+02  0.23453323112E+02  0.51100000000E-03 0. -1.
        -11    1    3    3    0    0 -0.99377457417E+01  0.99504655456E+01  0.52745251216E+00  0.14072979834E+02  0.51100000000E-03 0.  1.
         12    1    3    3    0    0 -0.58232925464E+01 -0.32145799636E+01  0.11172385358E+02  0.13002555711E+02  0.00000000000E+00 0. -1.
</event>
<event>
 7    1  0.6245487E-013  0.5052889E+02  0.7816164E-02  0.1300439E+00
        -11   -1    0    0    0    0  0.00000000000E+00  0.00000000000E+00  0.45593999997E+02  0.45594000000E+02  0.51100000000E-03 0. -1.
         11   -1    0    0    0    0 -0.00000000000E+00 -0.00000000000E+00 -0.45593999997E+02  0.45594000000E+02  0.51100000000E-03 0.  1.
    9900012    2    1    2    0    0 -0.29191643804E+02 -0.21909467132E+02 -0.17916083057E+02  0.50528894622E+02  0.30000105694E+02 0.  0.
         12    1    1    2    0    0  0.29191643804E+02  0.21909467132E+02  0.17916083057E+02  0.40659105378E+02  0.00000000000E+00 0. -1.
         11    1    3    3    0    0 -0.61497344579E+01 -0.17556142721E+02 -0.31998898347E+01  0.18875292749E+02  0.51100000000E-03 0. -1.
        -11    1    3    3    0    0 -0.17121418200E+02 -0.51161702217E+01 -0.24823526865E+01  0.18041070757E+02  0.51100000000E-03 0.  1.
         12    1    3    3    0    0 -0.59204911459E+01  0.76284581067E+00 -0.12233840536E+02  0.13612531116E+02  0.00000000000E+00 0. -1.
</event>
<event>
 7    1  0.6245487E-013  0.5052886E+02  0.7816164E-02  0.1300439E+00
        -11   -1    0    0    0    0  0.00000000000E+00  0.00000000000E+00  0.45593999997E+02  0.45594000000E+02  0.51100000000E-03 0. -1.
         11   -1    0    0    0    0 -0.00000000000E+00 -0.00000000000E+00 -0.45593999997E+02  0.45594000000E+02  0.51100000000E-03 0.  1.
    9900012    2    1    2    0    0 -0.19313654448E+02 -0.20049186749E+02 -0.29634078695E+02  0.50528858869E+02  0.29999997017E+02 0.  0.
         12    1    1    2    0    0  0.19313654448E+02  0.20049186749E+02  0.29634078695E+02  0.40659141131E+02  0.00000000000E+00 0. -1.
         11    1    3    3    0    0  0.26504970506E+01  0.95669147730E+00 -0.15258993498E+01  0.32044909556E+01  0.51100000000E-03 0. -1.
        -11    1    3    3    0    0 -0.78684990879E+01 -0.20436017068E+02 -0.24301785345E+02  0.32712701550E+02  0.51100000000E-03 0.  1.
        -12    1    3    3    0    0 -0.14095652410E+02 -0.56986115852E+00 -0.38063940000E+01  0.14611666363E+02  0.00000000000E+00 0.  1.
</event>
<event>
 7    1  0.6245487E-013  0.5052886E+02  0.7816164E-02  0.1300439E+00
        -11   -1    0    0    0    0  0.00000000000E+00  0.00000000000E+00  0.45593999997E+02  0.45594000000E+02  0.51100000000E-03 0.  1.
         11   -1    0    0    0    0 -0.00000000000E+00 -0.00000000000E+00 -0.45593999997E+02  0.45594000000E+02  0.51100000000E-03 0. -1.
    9900012    2    1    2    0    0  0.27046261511E+01 -0.94794282297E+01  0.39446051036E+02  0.50528861980E+02  0.30000006473E+02 0.  0.
         12    1    1    2    0    0 -0.27046261511E+01  0.94794282297E+01 -0.39446051036E+02  0.40659138020E+02  0.00000000000E+00 0. -1.
         11    1    3    3    0    0 -0.39606428046E+00  0.12063462506E+01 -0.31634414410E+01  0.34087387993E+01  0.51100000000E-03 0. -1.
        -11    1    3    3    0    0  0.24804459100E+01 -0.76479843901E+01  0.51841925013E+01  0.95666153521E+01  0.51100000000E-03 0.  1.
        -12    1    3    3    0    0  0.62024452156E+00 -0.30377900902E+01  0.37425299976E+02  0.37553507828E+02  0.00000000000E+00 0.  1.
</event>
<event>
 7    1  0.6245487E-013  0.5052887E+02  0.7816164E-02  0.1300439E+00
        -11   -1    0    0    0    0  0.00000000000E+00  0.00000000000E+00  0.45593999997E+02  0.45594000000E+02  0.51100000000E-03 0.  1.
         11   -1    0    0    0    0 -0.00000000000E+00 -0.00000000000E+00 -0.45593999997E+02  0.45594000000E+02  0.51100000000E-03 0. -1.
    9900012    2    1    2    0    0 -0.28005711521E+02  0.15251067593E+02  0.25224002306E+02  0.50528865321E+02  0.30000016630E+02 0.  0.
         12    1    1    2    0    0  0.28005711521E+02 -0.15251067593E+02 -0.25224002306E+02  0.40659134679E+02  0.00000000000E+00 0. -1.
         11    1    3    3    0    0  0.32201462179E+01  0.71021351546E+01  0.84877094022E+01  0.11526095461E+02  0.51100000000E-03 0. -1.
        -11    1    3    3    0    0 -0.78410637146E+01  0.60740520610E+01 -0.41691076152E+00  0.99272455122E+01  0.51100000000E-03 0.  1.
        -12    1    3    3    0    0 -0.23384794024E+02  0.20748803775E+01  0.17153203665E+02  0.29075524348E+02  0.00000000000E+00 0.  1.
</event>
<event>
 7    1  0.6245487E-013  0.5052886E+02  0.7816164E-02  0.1300439E+00
        -11   -1    0    0    0    0  0.00000000000E+00  0.00000000000E+00  0.45593999997E+02  0.45594000000E+02  0.51100000000E-03 0.  1.
         11   -1    0    0    0    0 -0.00000000000E+00 -0.00000000000E+00 -0.45593999997E+02  0.45594000000E+02  0.51100000000E-03 0. -1.
    9900012    2    1    2    0    0  0.25540749392E+02 -0.21220418219E+02  0.23463374773E+02  0.50528856076E+02  0.29999988528E+02 0.  0.
         12    1    1    2    0    0 -0.25540749392E+02  0.21220418219E+02 -0.23463374773E+02  0.40659143924E+02  0.00000000000E+00 0. -1.
         11    1    3    3    0    0  0.14583649938E+02 -0.11907469745E+02  0.12918002437E+01  0.18871656773E+02  0.51100000000E-03 0. -1.
        -11    1    3    3    0    0  0.21963940892E+01 -0.12920692863E+02  0.12279772900E+02  0.17959990918E+02  0.51100000000E-03 0.  1.
         12    1    3    3    0    0  0.87607053652E+01  0.36077443879E+01  0.98918016294E+01  0.13697208385E+02  0.00000000000E+00 0. -1.
</event>
<event>
 7    1  0.6245487E-013  0.5052884E+02  0.7816164E-02  0.1300439E+00
        -11   -1    0    0    0    0  0.00000000000E+00  0.00000000000E+00  0.45593999997E+02  0.45594000000E+02  0.51100000000E-03 0.  1.
         11   -1    0    0    0    0 -0.00000000000E+00 -0.00000000000E+00 -0.45593999997E+02  0.45594000000E+02  0.51100000000E-03 0. -1.
    9900012    2    1    2    0    0  0.13679957514E+02  0.64789436206E+01  0.37736575584E+02  0.50528842546E+02  0.29999947403E+02 0.  0.
         12    1    1    2    0    0 -0.13679957514E+02 -0.64789436206E+01 -0.37736575584E+02  0.40659157454E+02  0.00000000000E+00 0. -1.
         11    1    3    3    0    0  0.17964832955E+02  0.46659569986E+01  0.21748446057E+02  0.28591979364E+02  0.51100000000E-03 0. -1.
        -11    1    3    3    0    0  0.12753237272E-01  0.23362675109E+01  0.17265602549E+02  0.17422954404E+02  0.51100000000E-03 0.  1.
         12    1    3    3    0    0 -0.42976286774E+01 -0.52328088888E+00 -0.12774730217E+01  0.45139087782E+01  0.00000000000E+00 0. -1.
</event>
<event>
 7    1  0.7755599E-013  0.5052885E+02  0.7816164E-02  0.1300439E+00
        -11   -1    0    0    0    0  0.00000000000E+00  0.00000000000E+00  0.45593999997E+02  0.45594000000E+02  0.51100000000E-03 0.  1.
         11   -1    0    0    0    0 -0.00000000000E+00 -0.00000000000E+00 -0.45593999997E+02  0.45594000000E+02  0.51100000000E-03 0. -1.
    9900012    2    1    2    0    0 -0.39826609671E+02  0.66999096128E+01 -0.47030748414E+01  0.50528849250E+02  0.29999967782E+02 0.  0.
         12    1    1    2    0    0  0.39826609671E+02 -0.66999096128E+01  0.47030748414E+01  0.40659150750E+02  0.00000000000E+00 0. -1.
         11    1    3    3    0    0 -0.45980979520E+01 -0.79340348659E+01  0.45948652250E+01  0.10256909901E+02  0.51100000000E-03 0. -1.
        -11    1    3    3    0    0 -0.96014743689E+01  0.85166597832E+01 -0.32575965220E+01  0.13241364706E+02  0.51100000000E-03 0.  1.
        -12    1    3    3    0    0 -0.25627037350E+02  0.61172846955E+01 -0.60403435443E+01  0.27030574643E+02  0.00000000000E+00 0.  1.
</event>
<event>
 7    1  0.6245487E-013  0.5052886E+02  0.7816164E-02  0.1300439E+00
        -11   -1    0    0    0    0  0.00000000000E+00  0.00000000000E+00  0.45593999997E+02  0.45594000000E+02  0.51100000000E-03 0. -1.
         11   -1    0    0    0    0 -0.00000000000E+00 -0.00000000000E+00 -0.45593999997E+02  0.45594000000E+02  0.51100000000E-03 0.  1.
    9900012    2    1    2    0    0 -0.31330290897E+01  0.40096895561E+02  0.59656141264E+01  0.50528862567E+02  0.30000008259E+02 0.  0.
         12    1    1    2    0    0  0.31330290897E+01 -0.40096895561E+02 -0.59656141264E+01  0.40659137433E+02  0.00000000000E+00 0. -1.
         11    1    3    3    0    0 -0.22653888078E+01  0.82205110196E+01  0.39057509619E+01  0.93788953887E+01  0.51100000000E-03 0. -1.
        -11    1    3    3    0    0 -0.80881176419E+01  0.26192569179E+02  0.98237975649E+01  0.29120015901E+02  0.51100000000E-03 0.  1.
         12    1    3    3    0    0  0.72204773600E+01  0.56838153618E+01 -0.77639344004E+01  0.12029951278E+02  0.00000000000E+00 0. -1.
</event>
<event>
 7    1  0.6245487E-013  0.5052887E+02  0.7816164E-02  0.1300439E+00
        -11   -1    0    0    0    0  0.00000000000E+00  0.00000000000E+00  0.45593999997E+02  0.45594000000E+02  0.51100000000E-03 0.  1.
         11   -1    0    0    0    0 -0.00000000000E+00 -0.00000000000E+00 -0.45593999997E+02  0.45594000000E+02  0.51100000000E-03 0. -1.
    9900012    2    1    2    0    0  0.47572536402E+01 -0.37428338121E+02 -0.15154302495E+02  0.50528870142E+02  0.30000031282E+02 0.  0.
         12    1    1    2    0    0 -0.47572536402E+01  0.37428338121E+02  0.15154302495E+02  0.40659129858E+02  0.00000000000E+00 0. -1.
         11    1    3    3    0    0 -0.35519796139E+01 -0.42527206998E+01  0.15728568178E+01  0.57598673039E+01  0.51100000000E-03 0. -1.
        -11    1    3    3    0    0 -0.20277579079E+01 -0.25897160022E+02 -0.30677546607E+01  0.26156945889E+02  0.51100000000E-03 0.  1.
        -12    1    3    3    0    0  0.10336991162E+02 -0.72784574001E+01 -0.13659404652E+02  0.18612056949E+02  0.00000000000E+00 0.  1.
</event>
<event>
 7    1  0.6245487E-013  0.5052886E+02  0.7816164E-02  0.1300439E+00
        -11   -1    0    0    0    0  0.00000000000E+00  0.00000000000E+00  0.45593999997E+02  0.45594000000E+02  0.51100000000E-03 0.  1.
         11   -1    0    0    0    0 -0.00000000000E+00 -0.00000000000E+00 -0.45593999997E+02  0.45594000000E+02  0.51100000000E-03 0. -1.
    9900012    2    1    2    0    0  0.24939199306E+02  0.17962534229E+02  0.26618587637E+02  0.50528861966E+02  0.30000006431E+02 0.  0.
         12    1    1    2    0    0 -0.24939199306E+02 -0.17962534229E+02 -0.26618587637E+02  0.40659138034E+02  0.00000000000E+00 0. -1.
         11    1    3    3    0    0  0.15452501949E+02  0.19775092233E+01  0.74856562195E+01  0.17283674624E+02  0.51100000000E-03 0. -1.
        -11    1    3    3    0    0  0.70201968094E+01  0.18145435072E+01  0.17283964108E+02  0.18743296053E+02  0.51100000000E-03 0.  1.
        -12    1    3    3    0    0  0.24665005474E+01  0.14170481498E+02  0.18489673094E+01  0.14501891289E+02  0.00000000000E+00 0.  1.
</event>
<event>
 7    1  0.6245487E-013  0.5052888E+02  0.7816164E-02  0.1300439E+00
        -11   -1    0    0    0    0  0.00000000000E+00  0.00000000000E+00  0.45593999997E+02  0.45594000000E+02  0.51100000000E-03 0.  1.
         11   -1    0    0    0    0 -0.00000000000E+00 -0.00000000000E+00 -0.45593999997E+02  0.45594000000E+02  0.51100000000E-03 0. -1.
    9900012    2    1    2    0    0  0.35304552346E+02  0.20158903505E+02  0.60936240616E+00  0.50528878890E+02  0.30000057873E+02 0.  0.
         12    1    1    2    0    0 -0.35304552346E+02 -0.20158903505E+02 -0.60936240616E+00  0.40659121110E+02  0.00000000000E+00 0. -1.
         11    1    3    3    0    0 -0.28238422463E+01  0.46469425786E+01 -0.23301499684E+00  0.54426516158E+01  0.51100000000E-03 0. -1.
        -11    1    3    3    0    0  0.94011170679E-01 -0.21542441460E+01  0.22621847490E+01  0.31252337578E+01  0.51100000000E-03 0.  1.
        -12    1    3    3    0    0  0.38034383422E+02  0.17666205073E+02 -0.14198073460E+01  0.41960993516E+02  0.00000000000E+00 0.  1.
</event>
<event>
 7    1  0.6245487E-013  0.5052886E+02  0.7816164E-02  0.1300439E+00
        -11   -1    0    0    0    0  0.00000000000E+00  0.00000000000E+00  0.45593999997E+02  0.45594000000E+02  0.51100000000E-03 0.  1.
         11   -1    0    0    0    0 -0.00000000000E+00 -0.00000000000E+00 -0.45593999997E+02  0.45594000000E+02  0.51100000000E-03 0. -1.
    9900012    2    1    2    0    0 -0.16186284179E+01  0.31906814410E+02  0.25149576143E+02  0.50528856577E+02  0.29999990051E+02 0.  0.
         12    1    1    2    0    0  0.16186284179E+01 -0.31906814410E+02 -0.25149576143E+02  0.40659143423E+02  0.00000000000E+00 0. -1.
         11    1    3    3    0    0 -0.55727854665E+01 -0.39482021509E+00  0.51744327934E+01  0.76148917164E+01  0.51100000000E-03 0. -1.
        -11    1    3    3    0    0 -0.69280430808E+01  0.59597902043E+01  0.24713300728E+01  0.94670139325E+01  0.51100000000E-03 0.  1.
        -12    1    3    3    0    0  0.10882200129E+02  0.26341844420E+02  0.17503813277E+02  0.33446950928E+02  0.00000000000E+00 0.  1.
</event>
<event>
 7    1  0.6245487E-013  0.5052891E+02  0.7816164E-02  0.1300439E+00
        -11   -1    0    0    0    0  0.00000000000E+00  0.00000000000E+00  0.45593999997E+02  0.45594000000E+02  0.51100000000E-03 0. -1.
         11   -1    0    0    0    0 -0.00000000000E+00 -0.00000000000E+00 -0.45593999997E+02  0.45594000000E+02  0.51100000000E-03 0.  1.
    9900012    2    1    2    0    0 -0.26382183889E+02 -0.26743679558E+01 -0.30821897411E+02  0.50528914536E+02  0.30000166224E+02 0.  0.
         12    1    1    2    0    0  0.26382183889E+02  0.26743679558E+01  0.30821897411E+02  0.40659085464E+02  0.00000000000E+00 0. -1.
         11    1    3    3    0    0  0.26841230424E+01 -0.59430524775E+01 -0.42484831254E+01  0.77829299358E+01  0.51100000000E-03 0. -1.
        -11    1    3    3    0    0 -0.46398706780E+01  0.25642412490E+01  0.15169568842E+01  0.55140630701E+01  0.51100000000E-03 0.  1.
        -12    1    3    3    0    0 -0.24426436254E+02  0.70444327269E+00 -0.28090371170E+02  0.37231921530E+02  0.00000000000E+00 0.  1.
</event>
<event>
 7    1  0.6245487E-013  0.5052884E+02  0.7816164E-02  0.1300439E+00
        -11   -1    0    0    0    0  0.00000000000E+00  0.00000000000E+00  0.45593999997E+02  0.45594000000E+02  0.51100000000E-03 0.  1.
         11   -1    0    0    0    0 -0.00000000000E+00 -0.00000000000E+00 -0.45593999997E+02  0.45594000000E+02  0.51100000000E-03 0. -1.
    9900012    2    1    2    0    0 -0.93058457956E+01 -0.33019037528E+02  0.21824572584E+02  0.50528836534E+02  0.29999929130E+02 0.  0.
         12    1    1    2    0    0  0.93058457956E+01  0.33019037528E+02 -0.21824572584E+02  0.40659163466E+02  0.00000000000E+00 0. -1.
         11    1    3    3    0    0  0.79832647746E+01 -0.15426762042E+02  0.57656103051E+01  0.18301906076E+02  0.51100000000E-03 0. -1.
        -11    1    3    3    0    0 -0.46649115233E+01 -0.13028536106E+02  0.11674687527E+02  0.18105316393E+02  0.51100000000E-03 0.  1.
         12    1    3    3    0    0 -0.12624199047E+02 -0.45637393804E+01  0.43842747521E+01  0.14121614065E+02  0.00000000000E+00 0. -1.
</event>
<event>
 7    1  0.6245487E-013  0.5052886E+02  0.7816164E-02  0.1300439E+00
        -11   -1    0    0    0    0  0.00000000000E+00  0.00000000000E+00  0.45593999997E+02  0.45594000000E+02  0.51100000000E-03 0.  1.
         11   -1    0    0    0    0 -0.00000000000E+00 -0.00000000000E+00 -0.45593999997E+02  0.45594000000E+02  0.51100000000E-03 0. -1.
    9900012    2    1    2    0    0  0.29900554034E+02  0.14353699406E+02  0.23517953132E+02  0.50528856654E+02  0.29999990284E+02 0.  0.
         12    1    1    2    0    0 -0.29900554034E+02 -0.14353699406E+02 -0.23517953132E+02  0.40659143346E+02  0.00000000000E+00 0. -1.
         11    1    3    3    0    0 -0.19613541987E+01  0.11872426787E+02  0.44930177867E+01  0.12844790275E+02  0.51100000000E-03 0. -1.
        -11    1    3    3    0    0  0.75455504961E+01  0.11839475680E+01  0.76401346947E+01  0.10803181131E+02  0.51100000000E-03 0.  1.
        -12    1    3    3    0    0  0.24316357736E+02  0.12973250502E+01  0.11384800650E+02  0.26880885248E+02  0.00000000000E+00 0.  1.
</event>
<event>
 7    1  0.6245487E-013  0.5052889E+02  0.7816164E-02  0.1300439E+00
        -11   -1    0    0    0    0  0.00000000000E+00  0.00000000000E+00  0.45593999997E+02  0.45594000000E+02  0.51100000000E-03 0.  1.
         11   -1    0    0    0    0 -0.00000000000E+00 -0.00000000000E+00 -0.45593999997E+02  0.45594000000E+02  0.51100000000E-03 0. -1.
    9900012    2    1    2    0    0 -0.26142206151E+02  0.42341387098E+01  0.30851591099E+02  0.50528886060E+02  0.30000079668E+02 0.  0.
         12    1    1    2    0    0  0.26142206151E+02 -0.42341387098E+01 -0.30851591099E+02  0.40659113940E+02  0.00000000000E+00 0. -1.
         11    1    3    3    0    0 -0.47235061093E+01  0.12414914547E+01  0.29162663181E+01  0.56883583304E+01  0.51100000000E-03 0. -1.
        -11    1    3    3    0    0 -0.19502693368E+02  0.92417599436E+01  0.66631069632E+01  0.22586769803E+02  0.51100000000E-03 0.  1.
         12    1    3    3    0    0 -0.19160066736E+01 -0.62491126885E+01  0.21272217818E+02  0.22253757927E+02  0.00000000000E+00 0. -1.
</event>
<event>
 7    1  0.6245487E-013  0.5052886E+02  0.7816164E-02  0.1300439E+00
        -11   -1    0    0    0    0  0.00000000000E+00  0.00000000000E+00  0.45593999997E+02  0.45594000000E+02  0.51100000000E-03 0. -1.
         11   -1    0    0    0    0 -0.00000000000E+00 -0.00000000000E+00 -0.45593999997E+02  0.45594000000E+02  0.51100000000E-03 0.  1.
    9900012    2    1    2    0    0  0.26159498921E+02 -0.43516867794E+01 -0.30820589406E+02  0.50528864582E+02  0.30000014383E+02 0.  0.
         12    1    1    2    0    0 -0.26159498921E+02  0.43516867794E+01  0.30820589406E+02  0.40659135418E+02  0.00000000000E+00 0. -1.
         11    1    3    3    0    0  0.26069835462E+00 -0.61972788550E+01  0.11482823067E+01  0.63081519763E+01  0.51100000000E-03 0. -1.
        -11    1    3    3    0    0  0.11483969257E+02  0.79126976612E+01 -0.96163342545E+01  0.16940077300E+02  0.51100000000E-03 0.  1.
        -12    1    3    3    0    0  0.14414831309E+02 -0.60671055857E+01 -0.22352537458E+02  0.27280635305E+02  0.00000000000E+00 0.  1.
</event>
<event>
 7    1  0.6245487E-013  0.5052887E+02  0.7816164E-02  0.1300439E+00
        -11   -1    0    0    0    0  0.00000000000E+00  0.00000000000E+00  0.45593999997E+02  0.45594000000E+02  0.51100000000E-03 0.  1.
         11   -1    0    0    0    0 -0.00000000000E+00 -0.00000000000E+00 -0.45593999997E+02  0.45594000000E+02  0.51100000000E-03 0. -1.
    9900012    2    1    2    0    0  0.12479233561E+02  0.22752377138E+01  0.38629744496E+02  0.50528866503E+02  0.30000020221E+02 0.  0.
         12    1    1    2    0    0 -0.12479233561E+02 -0.22752377138E+01 -0.38629744496E+02  0.40659133497E+02  0.00000000000E+00 0. -1.
         11    1    3    3    0    0 -0.30368916785E+01  0.40379062203E+01  0.15955253484E+02  0.16736113997E+02  0.51100000000E-03 0. -1.
        -11    1    3    3    0    0 -0.89737330453E+00  0.25888673792E+01 -0.23101945421E+01  0.35839241396E+01  0.51100000000E-03 0.  1.
        -12    1    3    3    0    0  0.16413498544E+02 -0.43515358858E+01  0.24984685554E+02  0.30208828366E+02  0.00000000000E+00 0.  1.
</event>
<event>
 7    1  0.6245487E-013  0.5052884E+02  0.7816164E-02  0.1300439E+00
        -11   -1    0    0    0    0  0.00000000000E+00  0.00000000000E+00  0.45593999997E+02  0.45594000000E+02  0.51100000000E-03 0.  1.
         11   -1    0    0    0    0 -0.00000000000E+00 -0.00000000000E+00 -0.45593999997E+02  0.45594000000E+02  0.51100000000E-03 0. -1.
    9900012    2    1    2    0    0 -0.12182664984E+02 -0.37626531899E+02  0.94336661309E+01  0.50528840079E+02  0.29999939903E+02 0.  0.
         12    1    1    2    0    0  0.12182664984E+02  0.37626531899E+02 -0.94336661309E+01  0.40659159921E+02  0.00000000000E+00 0. -1.
         11    1    3    3    0    0  0.61069512073E+01 -0.40653570913E+01 -0.19172553006E+01  0.75827336414E+01  0.51100000000E-03 0. -1.
        -11    1    3    3    0    0  0.42624244585E+00 -0.14813884053E+02  0.25907238795E+01  0.15044756357E+02  0.51100000000E-03 0.  1.
         12    1    3    3    0    0 -0.18715858637E+02 -0.18747290755E+02  0.87601975520E+01  0.27901350081E+02  0.00000000000E+00 0. -1.
</event>
<event>
 7    1  0.6245487E-013  0.5052890E+02  0.7816164E-02  0.1300439E+00
        -11   -1    0    0    0    0  0.00000000000E+00  0.00000000000E+00  0.45593999997E+02  0.45594000000E+02  0.51100000000E-03 0.  1.
         11   -1    0    0    0    0 -0.00000000000E+00 -0.00000000000E+00 -0.45593999997E+02  0.45594000000E+02  0.51100000000E-03 0. -1.
    9900012    2    1    2    0    0  0.15470649862E+02 -0.25735239054E+01  0.37512648104E+02  0.50528895236E+02  0.30000107558E+02 0.  0.
         12    1    1    2    0    0 -0.15470649862E+02  0.25735239054E+01 -0.37512648104E+02  0.40659104764E+02  0.00000000000E+00 0. -1.
         11    1    3    3    0    0 -0.31806522781E+01  0.14401370594E+01  0.25724084455E+01  0.43367994115E+01  0.51100000000E-03 0. -1.
        -11    1    3    3    0    0  0.36079316868E+01  0.11023511459E+01  0.28975282850E+02  0.29219845406E+02  0.51100000000E-03 0.  1.
        -12    1    3    3    0    0  0.15043370453E+02 -0.51160121107E+01  0.59649568091E+01  0.16972250418E+02  0.00000000000E+00 0.  1.
</event>
<event>
 7    1  0.6245487E-013  0.5052886E+02  0.7816164E-02  0.1300439E+00
        -11   -1    0    0    0    0  0.00000000000E+00  0.00000000000E+00  0.45593999997E+02  0.45594000000E+02  0.51100000000E-03 0.  1.
         11   -1    0    0    0    0 -0.00000000000E+00 -0.00000000000E+00 -0.45593999997E+02  0.45594000000E+02  0.51100000000E-03 0. -1.
    9900012    2    1    2    0    0 -0.13375196276E+02  0.46617189695E+01  0.38112181591E+02  0.50528857303E+02  0.29999992260E+02 0.  0.
         12    1    1    2    0    0  0.13375196276E+02 -0.46617189695E+01 -0.38112181591E+02  0.40659142697E+02  0.00000000000E+00 0. -1.
         11    1    3    3    0    0 -0.43349220423E+01  0.82918628006E+01  0.70373843284E+01  0.11707745994E+02  0.51100000000E-03 0. -1.
        -11    1    3    3    0    0 -0.14678261142E+02  0.25504295343E+01  0.20276587128E+02  0.25161399540E+02  0.51100000000E-03 0.  1.
         12    1    3    3    0    0  0.56379869091E+01 -0.61805733655E+01  0.10798210135E+02  0.13659711770E+02  0.00000000000E+00 0. -1.
</event>
<event>
 7    1  0.6245487E-013  0.5052886E+02  0.7816164E-02  0.1300439E+00
        -11   -1    0    0    0    0  0.00000000000E+00  0.00000000000E+00  0.45593999997E+02  0.45594000000E+02  0.51100000000E-03 0. -1.
         11   -1    0    0    0    0 -0.00000000000E+00 -0.00000000000E+00 -0.45593999997E+02  0.45594000000E+02  0.51100000000E-03 0.  1.
    9900012    2    1    2    0    0  0.32391714287E+02  0.42748860178E+01  0.24200567623E+02  0.50528864764E+02  0.30000014936E+02 0.  0.
         12    1    1    2    0    0 -0.32391714287E+02 -0.42748860178E+01 -0.24200567623E+02  0.40659135236E+02  0.00000000000E+00 0. -1.
         11    1    3    3    0    0  0.38374576560E+01 -0.62199889147E+01  0.26292527772E+01  0.77670659704E+01  0.51100000000E-03 0. -1.
        -11    1    3    3    0    0  0.17153568002E+02 -0.75045046339E+00  0.17187707936E+01  0.17255788721E+02  0.51100000000E-03 0.  1.
        -12    1    3    3    0    0  0.11400688629E+02  0.11245325396E+02  0.19852544052E+02  0.25506010072E+02  0.00000000000E+00 0.  1.
</event>
<event>
 7    1  0.6245487E-013  0.5052888E+02  0.7816164E-02  0.1300439E+00
        -11   -1    0    0    0    0  0.00000000000E+00  0.00000000000E+00  0.45593999997E+02  0.45594000000E+02  0.51100000000E-03 0.  1.
         11   -1    0    0    0    0 -0.00000000000E+00 -0.00000000000E+00 -0.45593999997E+02  0.45594000000E+02  0.51100000000E-03 0. -1.
    9900012    2    1    2    0    0  0.15181951723E+02 -0.36390936721E+02  0.99182650090E+01  0.50528881535E+02  0.30000065913E+02 0.  0.
         12    1    1    2    0    0 -0.15181951723E+02  0.36390936721E+02 -0.99182650090E+01  0.40659118465E+02  0.00000000000E+00 0. -1.
         11    1    3    3    0    0  0.23351786755E+02 -0.33250103474E+02  0.82376733429E+01  0.41457624004E+02  0.51100000000E-03 0.  1.
        -11    1    3    3    0    0 -0.18551337959E+01 -0.15108470810E+01  0.44377451481E+00  0.24333344168E+01  0.51100000000E-03 0. -1.
        -12    1    3    3    0    0 -0.63147012361E+01 -0.16299861659E+01  0.12368171513E+01  0.66379231140E+01  0.00000000000E+00 0.  1.
</event>
<event>
 7    1  0.6245487E-013  0.5052886E+02  0.7816164E-02  0.1300439E+00
        -11   -1    0    0    0    0  0.00000000000E+00  0.00000000000E+00  0.45593999997E+02  0.45594000000E+02  0.51100000000E-03 0. -1.
         11   -1    0    0    0    0 -0.00000000000E+00 -0.00000000000E+00 -0.45593999997E+02  0.45594000000E+02  0.51100000000E-03 0.  1.
    9900012    2    1    2    0    0 -0.25999368291E+02 -0.27236660480E+02  0.15341543137E+02  0.50528858697E+02  0.29999996497E+02 0.  0.
         12    1    1    2    0    0  0.25999368291E+02  0.27236660480E+02 -0.15341543137E+02  0.40659141303E+02  0.00000000000E+00 0. -1.
         11    1    3    3    0    0 -0.22428628273E+02 -0.14590668798E+02  0.54098748774E+01  0.27298309996E+02  0.51100000000E-03 0. -1.
        -11    1    3    3    0    0 -0.47908040341E+01  0.14105760361E+01 -0.13408938500E+01  0.51710274245E+01  0.51100000000E-03 0.  1.
         12    1    3    3    0    0  0.12200640168E+01 -0.14056567719E+02  0.11272562110E+02  0.18059521277E+02  0.00000000000E+00 0. -1.
</event>
<event>
 7    1  0.6245487E-013  0.5052889E+02  0.7816164E-02  0.1300439E+00
        -11   -1    0    0    0    0  0.00000000000E+00  0.00000000000E+00  0.45593999997E+02  0.45594000000E+02  0.51100000000E-03 0. -1.
         11   -1    0    0    0    0 -0.00000000000E+00 -0.00000000000E+00 -0.45593999997E+02  0.45594000000E+02  0.51100000000E-03 0.  1.
    9900012    2    1    2    0    0 -0.70057677726E+01  0.22460858623E+02 -0.33160100697E+02  0.50528889945E+02  0.30000091477E+02 0.  0.
         12    1    1    2    0    0  0.70057677726E+01 -0.22460858623E+02  0.33160100697E+02  0.40659110055E+02  0.00000000000E+00 0. -1.
         11    1    3    3    0    0  0.26304055710E+01  0.95215875333E+01 -0.15989790895E+02  0.18795027953E+02  0.51100000000E-03 0. -1.
        -11    1    3    3    0    0 -0.83081252245E+01  0.17561088681E+02 -0.18413394101E+02  0.26766954683E+02  0.51100000000E-03 0.  1.
         12    1    3    3    0    0 -0.13280481191E+01 -0.46218175906E+01  0.12430842989E+01  0.49669073096E+01  0.00000000000E+00 0. -1.
</event>
<event>
 7    1  0.6245487E-013  0.5052895E+02  0.7816164E-02  0.1300438E+00
        -11   -1    0    0    0    0  0.00000000000E+00  0.00000000000E+00  0.45593999997E+02  0.45594000000E+02  0.51100000000E-03 0.  1.
         11   -1    0    0    0    0 -0.00000000000E+00 -0.00000000000E+00 -0.45593999997E+02  0.45594000000E+02  0.51100000000E-03 0. -1.
    9900012    2    1    2    0    0  0.19560647492E+01  0.41387818589E+01  0.40400531925E+02  0.50528945849E+02  0.30000261402E+02 0.  0.
         12    1    1    2    0    0 -0.19560647492E+01 -0.41387818589E+01 -0.40400531925E+02  0.40659054151E+02  0.00000000000E+00 0. -1.
         11    1    3    3    0    0 -0.68859629440E+01 -0.28178664067E+01  0.14363183475E+02  0.16175842994E+02  0.51100000000E-03 0. -1.
        -11    1    3    3    0    0  0.10254483437E+02 -0.42600669902E+01  0.12970151476E+02  0.17074174384E+02  0.51100000000E-03 0.  1.
        -12    1    3    3    0    0 -0.14124557441E+01  0.11216715256E+02  0.13067196974E+02  0.17278928471E+02  0.00000000000E+00 0.  1.
</event>
<event>
 7    1  0.6245487E-013  0.5052886E+02  0.7816164E-02  0.1300439E+00
        -11   -1    0    0    0    0  0.00000000000E+00  0.00000000000E+00  0.45593999997E+02  0.45594000000E+02  0.51100000000E-03 0. -1.
         11   -1    0    0    0    0 -0.00000000000E+00 -0.00000000000E+00 -0.45593999997E+02  0.45594000000E+02  0.51100000000E-03 0.  1.
    9900012    2    1    2    0    0  0.25473206891E+02 -0.11629254840E+02 -0.29479512137E+02  0.50528862365E+02  0.30000007644E+02 0.  0.
         12    1    1    2    0    0 -0.25473206891E+02  0.11629254840E+02  0.29479512137E+02  0.40659137635E+02  0.00000000000E+00 0. -1.
         11    1    3    3    0    0 -0.38397541354E+00  0.20177850764E+01 -0.25851941913E+01  0.33018363073E+01  0.51100000000E-03 0. -1.
        -11    1    3    3    0    0  0.27559303174E+02 -0.13015334254E+02 -0.12867217272E+02  0.33082917008E+02  0.51100000000E-03 0.  1.
        -12    1    3    3    0    0 -0.17021208698E+01 -0.63170566230E+00 -0.14027100673E+02  0.14144109049E+02  0.00000000000E+00 0.  1.
</event>
<event>
 7    1  0.6245487E-013  0.5052885E+02  0.7816164E-02  0.1300439E+00
        -11   -1    0    0    0    0  0.00000000000E+00  0.00000000000E+00  0.45593999997E+02  0.45594000000E+02  0.51100000000E-03 0.  1.
         11   -1    0    0    0    0 -0.00000000000E+00 -0.00000000000E+00 -0.45593999997E+02  0.45594000000E+02  0.51100000000E-03 0. -1.
    9900012    2    1    2    0    0  0.51097001485E+00  0.21437042363E+02  0.34545027138E+02  0.50528846349E+02  0.29999958961E+02 0.  0.
         12    1    1    2    0    0 -0.51097001485E+00 -0.21437042363E+02 -0.34545027138E+02  0.40659153651E+02  0.00000000000E+00 0. -1.
         11    1    3    3    0    0 -0.58420976676E+01  0.11795724431E+01  0.90601417452E+01  0.10844706774E+02  0.51100000000E-03 0. -1.
        -11    1    3    3    0    0  0.67104129922E+01 -0.27606925125E+01  0.78105736733E+01  0.10660962763E+02  0.51100000000E-03 0.  1.
        -12    1    3    3    0    0 -0.35734530974E+00  0.23018162433E+02  0.17674311720E+02  0.29023176811E+02  0.00000000000E+00 0.  1.
</event>
<event>
 7    1  0.6245487E-013  0.5052886E+02  0.7816164E-02  0.1300439E+00
        -11   -1    0    0    0    0  0.00000000000E+00  0.00000000000E+00  0.45593999997E+02  0.45594000000E+02  0.51100000000E-03 0.  1.
         11   -1    0    0    0    0 -0.00000000000E+00 -0.00000000000E+00 -0.45593999997E+02  0.45594000000E+02  0.51100000000E-03 0. -1.
    9900012    2    1    2    0    0 -0.98881879144E+01  0.39410603004E+02  0.14812412029E+01  0.50528856319E+02  0.29999989268E+02 0.  0.
         12    1    1    2    0    0  0.98881879144E+01 -0.39410603004E+02 -0.14812412029E+01  0.40659143681E+02  0.00000000000E+00 0. -1.
         11    1    3    3    0    0 -0.53380443774E+01  0.84572329341E+00 -0.41916258014E-01  0.54047870354E+01  0.51100000000E-03 0. -1.
        -11    1    3    3    0    0 -0.12982427050E+02  0.24387069816E+02 -0.35764700916E+01  0.27857920326E+02  0.51100000000E-03 0.  1.
         12    1    3    3    0    0  0.84322835135E+01  0.14177809895E+02  0.50996275525E+01  0.17266148958E+02  0.00000000000E+00 0. -1.
</event>
<event>
 7    1  0.6245487E-013  0.5052885E+02  0.7816164E-02  0.1300439E+00
        -11   -1    0    0    0    0  0.00000000000E+00  0.00000000000E+00  0.45593999997E+02  0.45594000000E+02  0.51100000000E-03 0. -1.
         11   -1    0    0    0    0 -0.00000000000E+00 -0.00000000000E+00 -0.45593999997E+02  0.45594000000E+02  0.51100000000E-03 0.  1.
    9900012    2    1    2    0    0 -0.90168534988E+00  0.39106358885E+02 -0.11092598751E+02  0.50528854796E+02  0.29999984636E+02 0.  0.
         12    1    1    2    0    0  0.90168534988E+00 -0.39106358885E+02  0.11092598751E+02  0.40659145204E+02  0.00000000000E+00 0. -1.
         11    1    3    3    0    0  0.31340240140E+01 -0.18805519312E+01  0.29847620227E+01  0.47188331905E+01  0.51100000000E-03 0. -1.
        -11    1    3    3    0    0  0.10458843358E+01  0.33052250909E+02 -0.64604191327E+01  0.33693948713E+02  0.51100000000E-03 0.  1.
        -12    1    3    3    0    0 -0.50815936997E+01  0.79346599066E+01 -0.76169416415E+01  0.12116072892E+02  0.00000000000E+00 0.  1.
</event>
<event>
 7    1  0.6245487E-013  0.5052886E+02  0.7816164E-02  0.1300439E+00
        -11   -1    0    0    0    0  0.00000000000E+00  0.00000000000E+00  0.45593999997E+02  0.45594000000E+02  0.51100000000E-03 0.  1.
         11   -1    0    0    0    0 -0.00000000000E+00 -0.00000000000E+00 -0.45593999997E+02  0.45594000000E+02  0.51100000000E-03 0. -1.
    9900012    2    1    2    0    0  0.27830607752E+02  0.26273450632E+02  0.13723294266E+02  0.50528859066E+02  0.29999997619E+02 0.  0.
         12    1    1    2    0    0 -0.27830607752E+02 -0.26273450632E+02 -0.13723294266E+02  0.40659140934E+02  0.00000000000E+00 0. -1.
         11    1    3    3    0    0  0.82868821651E+01  0.26446670561E+01  0.30442756063E+01  0.92159803648E+01  0.51100000000E-03 0. -1.
        -11    1    3    3    0    0  0.16917500483E+02  0.19245743803E+02 -0.38497560862E+01  0.25911794598E+02  0.51100000000E-03 0.  1.
         12    1    3    3    0    0  0.26262251038E+01  0.43830397732E+01  0.14528774746E+02  0.15401084104E+02  0.00000000000E+00 0. -1.
</event>
<event>
 7    1  0.6245487E-013  0.5052886E+02  0.7816164E-02  0.1300439E+00
        -11   -1    0    0    0    0  0.00000000000E+00  0.00000000000E+00  0.45593999997E+02  0.45594000000E+02  0.51100000000E-03 0. -1.
         11   -1    0    0    0    0 -0.00000000000E+00 -0.00000000000E+00 -0.45593999997E+02  0.45594000000E+02  0.51100000000E-03 0.  1.
    9900012    2    1    2    0    0 -0.23153777796E+02  0.82795699239E+01 -0.32380815994E+02  0.50528856516E+02  0.29999989867E+02 0.  0.
         12    1    1    2    0    0  0.23153777796E+02 -0.82795699239E+01  0.32380815994E+02  0.40659143484E+02  0.00000000000E+00 0. -1.
         11    1    3    3    0    0 -0.20027918781E+01  0.95587114153E+01 -0.15298168485E+02  0.18149768552E+02  0.51100000000E-03 0. -1.
        -11    1    3    3    0    0  0.26575226660E+01 -0.55158348731E+00  0.51684635157E+00  0.27629334910E+01  0.51100000000E-03 0.  1.
        -12    1    3    3    0    0 -0.23808508584E+02 -0.72755800401E+00 -0.17599493861E+02  0.29616154473E+02  0.00000000000E+00 0.  1.
</event>
<event>
 7    1  0.6245487E-013  0.5052884E+02  0.7816164E-02  0.1300439E+00
        -11   -1    0    0    0    0  0.00000000000E+00  0.00000000000E+00  0.45593999997E+02  0.45594000000E+02  0.51100000000E-03 0. -1.
         11   -1    0    0    0    0 -0.00000000000E+00 -0.00000000000E+00 -0.45593999997E+02  0.45594000000E+02  0.51100000000E-03 0.  1.
    9900012    2    1    2    0    0 -0.22616834692E+02 -0.33531387914E+02 -0.41583457624E+01  0.50528843265E+02  0.29999949588E+02 0.  0.
         12    1    1    2    0    0  0.22616834692E+02  0.33531387914E+02  0.41583457624E+01  0.40659156735E+02  0.00000000000E+00 0. -1.
         11    1    3    3    0    0 -0.67031476432E+01 -0.23375063559E+01 -0.33820556487E+01  0.78634868196E+01  0.51100000000E-03 0. -1.
        -11    1    3    3    0    0 -0.18154896295E+02 -0.28286250002E+02 -0.80108357276E+01  0.34552650954E+02  0.51100000000E-03 0.  1.
        -12    1    3    3    0    0  0.22412092459E+01 -0.29076315564E+01  0.72345456139E+01  0.81127054915E+01  0.00000000000E+00 0.  1.
</event>
<event>
 7    1  0.6245487E-013  0.5052886E+02  0.7816164E-02  0.1300439E+00
        -11   -1    0    0    0    0  0.00000000000E+00  0.00000000000E+00  0.45593999997E+02  0.45594000000E+02  0.51100000000E-03 0.  1.
         11   -1    0    0    0    0 -0.00000000000E+00 -0.00000000000E+00 -0.45593999997E+02  0.45594000000E+02  0.51100000000E-03 0. -1.
    9900012    2    1    2    0    0  0.16700120300E+02 -0.34528160946E+02 -0.13493612694E+02  0.50528862037E+02  0.30000006648E+02 0.  0.
         12    1    1    2    0    0 -0.16700120300E+02  0.34528160946E+02  0.13493612694E+02  0.40659137963E+02  0.00000000000E+00 0. -1.
         11    1    3    3    0    0 -0.55846541614E+01 -0.10172520754E+02  0.10257661418E+01  0.11649924336E+02  0.51100000000E-03 0. -1.
        -11    1    3    3    0    0  0.12650470404E+02 -0.15944969240E+02 -0.11629842320E+01  0.20386980602E+02  0.51100000000E-03 0.  1.
         12    1    3    3    0    0  0.96343040579E+01 -0.84106709520E+01 -0.13356394604E+02  0.18491957099E+02  0.00000000000E+00 0. -1.
</event>
<event>
 7    1  0.6245487E-013  0.5052886E+02  0.7816164E-02  0.1300439E+00
        -11   -1    0    0    0    0  0.00000000000E+00  0.00000000000E+00  0.45593999997E+02  0.45594000000E+02  0.51100000000E-03 0.  1.
         11   -1    0    0    0    0 -0.00000000000E+00 -0.00000000000E+00 -0.45593999997E+02  0.45594000000E+02  0.51100000000E-03 0. -1.
    9900012    2    1    2    0    0  0.17789712040E+02 -0.28692372153E+02  0.22659206171E+02  0.50528859594E+02  0.29999999223E+02 0.  0.
         12    1    1    2    0    0 -0.17789712040E+02  0.28692372153E+02 -0.22659206171E+02  0.40659140406E+02  0.00000000000E+00 0. -1.
         11    1    3    3    0    0  0.16439762989E+01 -0.13655585996E+02  0.46349554445E+01  0.14514148242E+02  0.51100000000E-03 0. -1.
        -11    1    3    3    0    0  0.63707751629E+01 -0.31191119820E+01 -0.47340233615E+01  0.85279899848E+01  0.51100000000E-03 0.  1.
        -12    1    3    3    0    0  0.97749605779E+01 -0.11917674175E+02  0.22758274089E+02  0.27486721367E+02  0.00000000000E+00 0.  1.
</event>
<event>
 7    1  0.6245487E-013  0.5052886E+02  0.7816164E-02  0.1300439E+00
        -11   -1    0    0    0    0  0.00000000000E+00  0.00000000000E+00  0.45593999997E+02  0.45594000000E+02  0.51100000000E-03 0.  1.
         11   -1    0    0    0    0 -0.00000000000E+00 -0.00000000000E+00 -0.45593999997E+02  0.45594000000E+02  0.51100000000E-03 0. -1.
    9900012    2    1    2    0    0  0.26016951641E+02  0.36971019895E+01  0.31026038626E+02  0.50528863159E+02  0.30000010058E+02 0.  0.
         12    1    1    2    0    0 -0.26016951641E+02 -0.36971019895E+01 -0.31026038626E+02  0.40659136841E+02  0.00000000000E+00 0. -1.
         11    1    3    3    0    0  0.94300452669E-01 -0.73986351831E+01  0.15734005509E+01  0.75646734697E+01  0.51100000000E-03 0. -1.
        -11    1    3    3    0    0  0.18825477299E+02  0.94568995195E+01  0.12459916169E+02  0.24476132359E+02  0.51100000000E-03 0.  1.
         12    1    3    3    0    0  0.70971738893E+01  0.16388376531E+01  0.16992721906E+02  0.18488057330E+02  0.00000000000E+00 0. -1.
</event>
<event>
 7    1  0.6245487E-013  0.5052885E+02  0.7816164E-02  0.1300439E+00
        -11   -1    0    0    0    0  0.00000000000E+00  0.00000000000E+00  0.45593999997E+02  0.45594000000E+02  0.51100000000E-03 0. -1.
         11   -1    0    0    0    0 -0.00000000000E+00 -0.00000000000E+00 -0.45593999997E+02  0.45594000000E+02  0.51100000000E-03 0.  1.
    9900012    2    1    2    0    0  0.83486152402E+01 -0.17961830800E+00 -0.39792400170E+02  0.50528846659E+02  0.29999959904E+02 0.  0.
         12    1    1    2    0    0 -0.83486152402E+01  0.17961830800E+00  0.39792400170E+02  0.40659153341E+02  0.00000000000E+00 0. -1.
         11    1    3    3    0    0 -0.24445075917E+01 -0.98046713344E+01 -0.88186542841E+01  0.13411780679E+02  0.51100000000E-03 0. -1.
        -11    1    3    3    0    0 -0.18871120262E+01  0.14455088555E+01 -0.14829745769E+02  0.15019056145E+02  0.51100000000E-03 0.  1.
        -12    1    3    3    0    0  0.12680234858E+02  0.81795441709E+01 -0.16144000117E+02  0.22098009835E+02  0.00000000000E+00 0.  1.
</event>
<event>
 7    1  0.6245487E-013  0.5052887E+02  0.7816164E-02  0.1300439E+00
        -11   -1    0    0    0    0  0.00000000000E+00  0.00000000000E+00  0.45593999997E+02  0.45594000000E+02  0.51100000000E-03 0.  1.
         11   -1    0    0    0    0 -0.00000000000E+00 -0.00000000000E+00 -0.45593999997E+02  0.45594000000E+02  0.51100000000E-03 0. -1.
    9900012    2    1    2    0    0  0.26447396043E+02  0.19777588602E+02  0.23718079345E+02  0.50528867494E+02  0.30000023233E+02 0.  0.
         12    1    1    2    0    0 -0.26447396043E+02 -0.19777588602E+02 -0.23718079345E+02  0.40659132506E+02  0.00000000000E+00 0. -1.
         11    1    3    3    0    0  0.10913027019E+02  0.10312462874E+02 -0.31129794139E+01  0.15334004380E+02  0.51100000000E-03 0. -1.
        -11    1    3    3    0    0  0.12755102401E+02  0.75468261454E+01  0.96505286344E+01  0.17685585241E+02  0.51100000000E-03 0.  1.
         12    1    3    3    0    0  0.27792666232E+01  0.19182995827E+01  0.17180530125E+02  0.17509277872E+02  0.00000000000E+00 0. -1.
</event>
<event>
 7    1  0.6245487E-013  0.5052885E+02  0.7816164E-02  0.1300439E+00
        -11   -1    0    0    0    0  0.00000000000E+00  0.00000000000E+00  0.45593999997E+02  0.45594000000E+02  0.51100000000E-03 0.  1.
         11   -1    0    0    0    0 -0.00000000000E+00 -0.00000000000E+00 -0.45593999997E+02  0.45594000000E+02  0.51100000000E-03 0. -1.
    9900012    2    1    2    0    0 -0.24298560630E+02 -0.18585492428E+02  0.26782942024E+02  0.50528848989E+02  0.29999966986E+02 0.  0.
         12    1    1    2    0    0  0.24298560630E+02  0.18585492428E+02 -0.26782942024E+02  0.40659151011E+02  0.00000000000E+00 0. -1.
         11    1    3    3    0    0 -0.95452565071E+01 -0.88258165965E+01  0.15255865044E+02  0.20043661813E+02  0.51100000000E-03 0.  1.
        -11    1    3    3    0    0 -0.30954889080E+00 -0.11946646329E+02  0.12088225568E+00  0.11951267372E+02  0.51100000000E-03 0. -1.
         12    1    3    3    0    0 -0.14443755233E+02  0.21869704977E+01  0.11406194724E+02  0.18533919803E+02  0.00000000000E+00 0. -1.
</event>
<event>
 7    1  0.6245487E-013  0.5052891E+02  0.7816164E-02  0.1300439E+00
        -11   -1    0    0    0    0  0.00000000000E+00  0.00000000000E+00  0.45593999997E+02  0.45594000000E+02  0.51100000000E-03 0. -1.
         11   -1    0    0    0    0 -0.00000000000E+00 -0.00000000000E+00 -0.45593999997E+02  0.45594000000E+02  0.51100000000E-03 0.  1.
    9900012    2    1    2    0    0 -0.10874672763E+02  0.64310150573E+01 -0.38646407810E+02  0.50528913698E+02  0.30000163675E+02 0.  0.
         12    1    1    2    0    0  0.10874672763E+02 -0.64310150573E+01  0.38646407810E+02  0.40659086302E+02  0.00000000000E+00 0. -1.
         11    1    3    3    0    0 -0.14017426742E+02  0.24299132688E+01 -0.22750804730E+02  0.26832663809E+02  0.51100000000E-03 0. -1.
        -11    1    3    3    0    0  0.41367444363E+01 -0.33821984415E+00 -0.18211282376E+02  0.18678272223E+02  0.51100000000E-03 0.  1.
         12    1    3    3    0    0 -0.99399045684E+00  0.43393216326E+01  0.23156792958E+01  0.50179776664E+01  0.00000000000E+00 0. -1.
</event>
<event>
 7    1  0.6245487E-013  0.5052887E+02  0.7816164E-02  0.1300439E+00
        -11   -1    0    0    0    0  0.00000000000E+00  0.00000000000E+00  0.45593999997E+02  0.45594000000E+02  0.51100000000E-03 0.  1.
         11   -1    0    0    0    0 -0.00000000000E+00 -0.00000000000E+00 -0.45593999997E+02  0.45594000000E+02  0.51100000000E-03 0. -1.
    9900012    2    1    2    0    0  0.39792470965E+02  0.66213214339E+01  0.50874328693E+01  0.50528872903E+02  0.30000039677E+02 0.  0.
         12    1    1    2    0    0 -0.39792470965E+02 -0.66213214339E+01 -0.50874328693E+01  0.40659127097E+02  0.00000000000E+00 0. -1.
         11    1    3    3    0    0  0.89728127393E+01  0.90038870252E+01  0.87890240198E+01  0.15454070451E+02  0.51100000000E-03 0. -1.
        -11    1    3    3    0    0  0.15218727514E+02  0.64810398847E+01 -0.44057692090E+01  0.17117953959E+02  0.51100000000E-03 0.  1.
         12    1    3    3    0    0  0.15600930711E+02 -0.88636054760E+01  0.70417805842E+00  0.17956848494E+02  0.00000000000E+00 0. -1.
</event>
<event>
 7    1  0.6245487E-013  0.5052885E+02  0.7816164E-02  0.1300439E+00
        -11   -1    0    0    0    0  0.00000000000E+00  0.00000000000E+00  0.45593999997E+02  0.45594000000E+02  0.51100000000E-03 0. -1.
         11   -1    0    0    0    0 -0.00000000000E+00 -0.00000000000E+00 -0.45593999997E+02  0.45594000000E+02  0.51100000000E-03 0.  1.
    9900012    2    1    2    0    0 -0.16113922877E+02 -0.32551042301E+02 -0.18273959919E+02  0.50528850027E+02  0.29999970142E+02 0.  0.
         12    1    1    2    0    0  0.16113922877E+02  0.32551042301E+02  0.18273959919E+02  0.40659149973E+02  0.00000000000E+00 0. -1.
         11    1    3    3    0    0 -0.11101864753E+02 -0.17479929851E+02 -0.55722641627E+01  0.21444101212E+02  0.51100000000E-03 0. -1.
        -11    1    3    3    0    0 -0.93653315945E+01 -0.23345122891E+01  0.12099193151E+01  0.97274502576E+01  0.51100000000E-03 0.  1.
        -12    1    3    3    0    0  0.43532734706E+01 -0.12736600161E+02 -0.13911615071E+02  0.19357298558E+02  0.00000000000E+00 0.  1.
</event>
<event>
 7    1  0.6245487E-013  0.5052893E+02  0.7816164E-02  0.1300439E+00
        -11   -1    0    0    0    0  0.00000000000E+00  0.00000000000E+00  0.45593999997E+02  0.45594000000E+02  0.51100000000E-03 0. -1.
         11   -1    0    0    0    0 -0.00000000000E+00 -0.00000000000E+00 -0.45593999997E+02  0.45594000000E+02  0.51100000000E-03 0.  1.
    9900012    2    1    2    0    0  0.38237557984E+02  0.51894118250E+00 -0.13812317539E+02  0.50528926519E+02  0.30000202647E+02 0.  0.
         12    1    1    2    0    0 -0.38237557984E+02 -0.51894118250E+00  0.13812317539E+02  0.40659073481E+02  0.00000000000E+00 0. -1.
         11    1    3    3    0    0  0.11223732876E+02  0.12677685429E+01 -0.91104220183E+01  0.14511347503E+02  0.51100000000E-03 0. -1.
        -11    1    3    3    0    0  0.13274577151E+02 -0.12043319624E+02 -0.23689593579E+01  0.18079488787E+02  0.51100000000E-03 0.  1.
         12    1    3    3    0    0  0.13739247956E+02  0.11294492264E+02 -0.23329361633E+01  0.17938090228E+02  0.00000000000E+00 0. -1.
</event>
<event>
 7    1  0.6245487E-013  0.5052887E+02  0.7816164E-02  0.1300439E+00
        -11   -1    0    0    0    0  0.00000000000E+00  0.00000000000E+00  0.45593999997E+02  0.45594000000E+02  0.51100000000E-03 0. -1.
         11   -1    0    0    0    0 -0.00000000000E+00 -0.00000000000E+00 -0.45593999997E+02  0.45594000000E+02  0.51100000000E-03 0.  1.
    9900012    2    1    2    0    0  0.17657810649E+02 -0.13760486267E+02  0.33941357705E+02  0.50528867913E+02  0.30000024508E+02 0.  0.
         12    1    1    2    0    0 -0.17657810649E+02  0.13760486267E+02 -0.33941357705E+02  0.40659132087E+02  0.00000000000E+00 0. -1.
         11    1    3    3    0    0  0.81973728259E+01  0.39472772110E+01 -0.91156543451E-01  0.90986937746E+01  0.51100000000E-03 0. -1.
        -11    1    3    3    0    0  0.10561766236E+01 -0.59721889090E+01  0.21540914012E+01  0.64360437733E+01  0.51100000000E-03 0.  1.
         12    1    3    3    0    0  0.84042611992E+01 -0.11735574569E+02  0.31878422847E+02  0.34994130365E+02  0.00000000000E+00 0. -1.
</event>
<event>
 7    1  0.6245487E-013  0.5052886E+02  0.7816164E-02  0.1300439E+00
        -11   -1    0    0    0    0  0.00000000000E+00  0.00000000000E+00  0.45593999997E+02  0.45594000000E+02  0.51100000000E-03 0.  1.
         11   -1    0    0    0    0 -0.00000000000E+00 -0.00000000000E+00 -0.45593999997E+02  0.45594000000E+02  0.51100000000E-03 0. -1.
    9900012    2    1    2    0    0  0.15110941879E+02  0.35383287298E+02 -0.13147176219E+02  0.50528858014E+02  0.29999994420E+02 0.  0.
         12    1    1    2    0    0 -0.15110941879E+02 -0.35383287298E+02  0.13147176219E+02  0.40659141986E+02  0.00000000000E+00 0. -1.
         11    1    3    3    0    0 -0.13498301675E+01  0.99649867456E+01 -0.10790539482E+02  0.14749872708E+02  0.51100000000E-03 0. -1.
        -11    1    3    3    0    0 -0.18852065583E+01  0.27531675728E+01  0.47129783512E+01  0.57746082682E+01  0.51100000000E-03 0.  1.
        -12    1    3    3    0    0  0.18345978604E+02  0.22665132980E+02 -0.70696150887E+01  0.30004377038E+02  0.00000000000E+00 0.  1.
</event>
<event>
 7    1  0.6245487E-013  0.5052887E+02  0.7816164E-02  0.1300439E+00
        -11   -1    0    0    0    0  0.00000000000E+00  0.00000000000E+00  0.45593999997E+02  0.45594000000E+02  0.51100000000E-03 0.  1.
         11   -1    0    0    0    0 -0.00000000000E+00 -0.00000000000E+00 -0.45593999997E+02  0.45594000000E+02  0.51100000000E-03 0. -1.
    9900012    2    1    2    0    0  0.30859496619E+02  0.16490844469E+02  0.20710109286E+02  0.50528866838E+02  0.30000021239E+02 0.  0.
         12    1    1    2    0    0 -0.30859496619E+02 -0.16490844469E+02 -0.20710109286E+02  0.40659133162E+02  0.00000000000E+00 0. -1.
         11    1    3    3    0    0  0.18510102972E+01 -0.48068345807E+01  0.47653527465E+01  0.70171564658E+01  0.51100000000E-03 0. -1.
        -11    1    3    3    0    0  0.52511789330E+01  0.85889752402E+01  0.12950277378E+02  0.16402897924E+02  0.51100000000E-03 0.  1.
         12    1    3    3    0    0  0.23757307389E+02  0.12708703810E+02  0.29944791613E+01  0.27108812448E+02  0.00000000000E+00 0. -1.
</event>
<event>
 7    1  0.6245487E-013  0.5052886E+02  0.7816164E-02  0.1300439E+00
        -11   -1    0    0    0    0  0.00000000000E+00  0.00000000000E+00  0.45593999997E+02  0.45594000000E+02  0.51100000000E-03 0.  1.
         11   -1    0    0    0    0 -0.00000000000E+00 -0.00000000000E+00 -0.45593999997E+02  0.45594000000E+02  0.51100000000E-03 0. -1.
    9900012    2    1    2    0    0 -0.34160849721E+02  0.10672883010E+02  0.19294848653E+02  0.50528864865E+02  0.30000015243E+02 0.  0.
         12    1    1    2    0    0  0.34160849721E+02 -0.10672883010E+02 -0.19294848653E+02  0.40659135135E+02  0.00000000000E+00 0. -1.
         11    1    3    3    0    0 -0.18760933248E+02  0.79877334142E+01 -0.23087101099E+01  0.20520883121E+02  0.51100000000E-03 0. -1.
        -11    1    3    3    0    0 -0.14510234800E+02  0.22354980439E+01  0.86992108778E+01  0.17065187829E+02  0.51100000000E-03 0.  1.
         12    1    3    3    0    0 -0.88968167250E+00  0.44965155207E+00  0.12904347885E+02  0.12942793916E+02  0.00000000000E+00 0. -1.
</event>
<event>
 7    1  0.6245487E-013  0.5052885E+02  0.7816164E-02  0.1300439E+00
        -11   -1    0    0    0    0  0.00000000000E+00  0.00000000000E+00  0.45593999997E+02  0.45594000000E+02  0.51100000000E-03 0. -1.
         11   -1    0    0    0    0 -0.00000000000E+00 -0.00000000000E+00 -0.45593999997E+02  0.45594000000E+02  0.51100000000E-03 0.  1.
    9900012    2    1    2    0    0  0.73303611240E+01  0.39778590788E+02 -0.41347054920E+01  0.50528852581E+02  0.29999977906E+02 0.  0.
         12    1    1    2    0    0 -0.73303611240E+01 -0.39778590788E+02  0.41347054920E+01  0.40659147419E+02  0.00000000000E+00 0. -1.
         11    1    3    3    0    0  0.20951732135E+01  0.11025644040E+02  0.11660317870E+01  0.11283359769E+02  0.51100000000E-03 0. -1.
        -11    1    3    3    0    0 -0.39749842161E+01  0.22574260328E+02 -0.12416327009E+02  0.26068427369E+02  0.51100000000E-03 0.  1.
         12    1    3    3    0    0  0.92101721266E+01  0.61786864210E+01  0.71155897300E+01  0.13177065443E+02  0.00000000000E+00 0. -1.
</event>
<event>
 7    1  0.6245487E-013  0.5052886E+02  0.7816164E-02  0.1300439E+00
        -11   -1    0    0    0    0  0.00000000000E+00  0.00000000000E+00  0.45593999997E+02  0.45594000000E+02  0.51100000000E-03 0. -1.
         11   -1    0    0    0    0 -0.00000000000E+00 -0.00000000000E+00 -0.45593999997E+02  0.45594000000E+02  0.51100000000E-03 0.  1.
    9900012    2    1    2    0    0 -0.21672724317E+02  0.29790448815E+02 -0.17204302597E+02  0.50528857759E+02  0.29999993645E+02 0.  0.
         12    1    1    2    0    0  0.21672724317E+02 -0.29790448815E+02  0.17204302597E+02  0.40659142241E+02  0.00000000000E+00 0. -1.
         11    1    3    3    0    0  0.71275457815E+00  0.40407938464E+01 -0.20526451461E+01  0.45879610236E+01  0.51100000000E-03 0. -1.
        -11    1    3    3    0    0 -0.19988789850E+02  0.14841443918E+02 -0.21672813363E+02  0.33008044725E+02  0.51100000000E-03 0.  1.
         12    1    3    3    0    0 -0.23966890451E+01  0.10908211050E+02  0.65211559123E+01  0.12932852010E+02  0.00000000000E+00 0. -1.
</event>
<event>
 7    1  0.6245487E-013  0.5052875E+02  0.7816164E-02  0.1300439E+00
        -11   -1    0    0    0    0  0.00000000000E+00  0.00000000000E+00  0.45593999997E+02  0.45594000000E+02  0.51100000000E-03 0.  1.
         11   -1    0    0    0    0 -0.00000000000E+00 -0.00000000000E+00 -0.45593999997E+02  0.45594000000E+02  0.51100000000E-03 0. -1.
    9900012    2    1    2    0    0 -0.10293656957E+02 -0.38062851099E+02  0.99214350289E+01  0.50528746682E+02  0.29999656014E+02 0.  0.
         12    1    1    2    0    0  0.10293656957E+02  0.38062851099E+02 -0.99214350289E+01  0.40659253318E+02  0.00000000000E+00 0. -1.
         11    1    3    3    0    0  0.48271274574E+01 -0.10774748134E+02 -0.25422976269E+01  0.12077236204E+02  0.51100000000E-03 0. -1.
        -11    1    3    3    0    0 -0.11244527540E+01  0.28836007344E+01  0.70750342961E+00  0.31749186691E+01  0.51100000000E-03 0.  1.
        -12    1    3    3    0    0 -0.13996331661E+02 -0.30171703699E+02  0.11756229226E+02  0.35276591809E+02  0.00000000000E+00 0.  1.
</event>
<event>
 7    1  0.6245487E-013  0.5052886E+02  0.7816164E-02  0.1300439E+00
        -11   -1    0    0    0    0  0.00000000000E+00  0.00000000000E+00  0.45593999997E+02  0.45594000000E+02  0.51100000000E-03 0. -1.
         11   -1    0    0    0    0 -0.00000000000E+00 -0.00000000000E+00 -0.45593999997E+02  0.45594000000E+02  0.51100000000E-03 0.  1.
    9900012    2    1    2    0    0  0.37145577344E+02  0.42594258852E+01 -0.15975890743E+02  0.50528859452E+02  0.29999998789E+02 0.  0.
         12    1    1    2    0    0 -0.37145577344E+02 -0.42594258852E+01  0.15975890743E+02  0.40659140548E+02  0.00000000000E+00 0. -1.
         11    1    3    3    0    0 -0.10980625861E+01 -0.33728517763E+01 -0.24835156404E+01  0.43300947733E+01  0.51100000000E-03 0. -1.
        -11    1    3    3    0    0  0.32203201022E+02  0.12899195145E+02 -0.59569351061E+01  0.35198302055E+02  0.51100000000E-03 0.  1.
         12    1    3    3    0    0  0.60404389084E+01 -0.52669174837E+01 -0.75354399962E+01  0.11000462623E+02  0.00000000000E+00 0. -1.
</event>
<event>
 7    1  0.6245487E-013  0.5052886E+02  0.7816164E-02  0.1300439E+00
        -11   -1    0    0    0    0  0.00000000000E+00  0.00000000000E+00  0.45593999997E+02  0.45594000000E+02  0.51100000000E-03 0.  1.
         11   -1    0    0    0    0 -0.00000000000E+00 -0.00000000000E+00 -0.45593999997E+02  0.45594000000E+02  0.51100000000E-03 0. -1.
    9900012    2    1    2    0    0 -0.34755967703E+02 -0.76493753264E+01  0.19664066613E+02  0.50528858966E+02  0.29999997314E+02 0.  0.
         12    1    1    2    0    0  0.34755967703E+02  0.76493753264E+01 -0.19664066613E+02  0.40659141034E+02  0.00000000000E+00 0. -1.
         11    1    3    3    0    0 -0.14396815633E+02 -0.97701439327E+01  0.91668159710E+01  0.19666075565E+02  0.51100000000E-03 0.  1.
        -11    1    3    3    0    0 -0.21470003084E+02  0.14747312052E+01  0.14966012765E+02  0.26212924349E+02  0.51100000000E-03 0. -1.
         12    1    3    3    0    0  0.11108510143E+01  0.64603740112E+00 -0.44687621226E+01  0.46498590525E+01  0.00000000000E+00 0. -1.
</event>
<event>
 7    1  0.6245487E-013  0.5052886E+02  0.7816164E-02  0.1300439E+00
        -11   -1    0    0    0    0  0.00000000000E+00  0.00000000000E+00  0.45593999997E+02  0.45594000000E+02  0.51100000000E-03 0.  1.
         11   -1    0    0    0    0 -0.00000000000E+00 -0.00000000000E+00 -0.45593999997E+02  0.45594000000E+02  0.51100000000E-03 0. -1.
    9900012    2    1    2    0    0 -0.11819625687E+02  0.17992951316E+02  0.34492256260E+02  0.50528860925E+02  0.30000003267E+02 0.  0.
         12    1    1    2    0    0  0.11819625687E+02 -0.17992951316E+02 -0.34492256260E+02  0.40659139075E+02  0.00000000000E+00 0. -1.
         11    1    3    3    0    0 -0.15528363451E+01  0.14699456643E+02  0.10774214013E+02  0.18291227793E+02  0.51100000000E-03 0. -1.
        -11    1    3    3    0    0 -0.50712891661E+01  0.27885405343E+01 -0.19014575129E+01  0.60917545134E+01  0.51100000000E-03 0.  1.
         12    1    3    3    0    0 -0.51955001759E+01  0.50495413815E+00  0.25619499760E+02  0.26145878618E+02  0.00000000000E+00 0. -1.
</event>
<event>
 7    1  0.6245487E-013  0.5052886E+02  0.7816164E-02  0.1300439E+00
        -11   -1    0    0    0    0  0.00000000000E+00  0.00000000000E+00  0.45593999997E+02  0.45594000000E+02  0.51100000000E-03 0.  1.
         11   -1    0    0    0    0 -0.00000000000E+00 -0.00000000000E+00 -0.45593999997E+02  0.45594000000E+02  0.51100000000E-03 0. -1.
    9900012    2    1    2    0    0  0.23228798380E+02  0.92612135648E+01  0.32059609416E+02  0.50528859493E+02  0.29999998915E+02 0.  0.
         12    1    1    2    0    0 -0.23228798380E+02 -0.92612135648E+01 -0.32059609416E+02  0.40659140507E+02  0.00000000000E+00 0. -1.
         11    1    3    3    0    0  0.25798214322E+01 -0.46583413507E+01  0.84121108092E+01  0.99558641658E+01  0.51100000000E-03 0. -1.
        -11    1    3    3    0    0  0.19427844008E+02  0.27827205332E+01  0.21598556358E+02  0.29183596306E+02  0.51100000000E-03 0.  1.
         12    1    3    3    0    0  0.12211329399E+01  0.11136834382E+02  0.20489422490E+01  0.11389399021E+02  0.00000000000E+00 0. -1.
</event>
<event>
 7    1  0.6245487E-013  0.5052887E+02  0.7816164E-02  0.1300439E+00
        -11   -1    0    0    0    0  0.00000000000E+00  0.00000000000E+00  0.45593999997E+02  0.45594000000E+02  0.51100000000E-03 0.  1.
         11   -1    0    0    0    0 -0.00000000000E+00 -0.00000000000E+00 -0.45593999997E+02  0.45594000000E+02  0.51100000000E-03 0. -1.
    9900012    2    1    2    0    0 -0.15697555802E+02 -0.47114977570E+01  0.37209586324E+02  0.50528870845E+02  0.30000033420E+02 0.  0.
         12    1    1    2    0    0  0.15697555802E+02  0.47114977570E+01 -0.37209586324E+02  0.40659129155E+02  0.00000000000E+00 0. -1.
         11    1    3    3    0    0 -0.18600683549E+01 -0.78150850633E+00 -0.33649199723E+01  0.39234291776E+01  0.51100000000E-03 0. -1.
        -11    1    3    3    0    0  0.41803583606E+00  0.23554476190E+01  0.22981369317E+02  0.23105545295E+02  0.51100000000E-03 0.  1.
         12    1    3    3    0    0 -0.14255523284E+02 -0.62854368696E+01  0.17593136979E+02  0.23499896372E+02  0.00000000000E+00 0. -1.
</event>
<event>
 7    1  0.6245487E-013  0.5052886E+02  0.7816164E-02  0.1300439E+00
        -11   -1    0    0    0    0  0.00000000000E+00  0.00000000000E+00  0.45593999997E+02  0.45594000000E+02  0.51100000000E-03 0.  1.
         11   -1    0    0    0    0 -0.00000000000E+00 -0.00000000000E+00 -0.45593999997E+02  0.45594000000E+02  0.51100000000E-03 0. -1.
    9900012    2    1    2    0    0 -0.36503587838E+02 -0.25439493913E+01  0.17725183449E+02  0.50528859185E+02  0.29999997977E+02 0.  0.
         12    1    1    2    0    0  0.36503587838E+02  0.25439493913E+01 -0.17725183449E+02  0.40659140815E+02  0.00000000000E+00 0. -1.
         11    1    3    3    0    0 -0.17714496186E+02 -0.71134132717E+01  0.12068230080E+02  0.22584202466E+02  0.51100000000E-03 0. -1.
        -11    1    3    3    0    0 -0.22113683605E+02  0.26785058377E+01  0.77496013640E+01  0.23584862044E+02  0.51100000000E-03 0.  1.
         12    1    3    3    0    0  0.33245919530E+01  0.18909580426E+01 -0.20926479945E+01  0.43597946742E+01  0.00000000000E+00 0. -1.
</event>
<event>
 7    1  0.6245487E-013  0.5052886E+02  0.7816164E-02  0.1300439E+00
        -11   -1    0    0    0    0  0.00000000000E+00  0.00000000000E+00  0.45593999997E+02  0.45594000000E+02  0.51100000000E-03 0.  1.
         11   -1    0    0    0    0 -0.00000000000E+00 -0.00000000000E+00 -0.45593999997E+02  0.45594000000E+02  0.51100000000E-03 0. -1.
    9900012    2    1    2    0    0  0.14597116580E+01  0.25011849429E+02  0.32022530636E+02  0.50528857875E+02  0.29999993997E+02 0.  0.
         12    1    1    2    0    0 -0.14597116580E+01 -0.25011849429E+02 -0.32022530636E+02  0.40659142125E+02  0.00000000000E+00 0. -1.
         11    1    3    3    0    0 -0.90795529669E+01  0.37840023988E+01  0.31255850641E+01  0.10321154901E+02  0.51100000000E-03 0. -1.
        -11    1    3    3    0    0  0.53026361765E+01  0.54758728750E+01  0.19936615691E+02  0.21344127521E+02  0.51100000000E-03 0.  1.
         12    1    3    3    0    0  0.52366284485E+01  0.15751974156E+02  0.89603298813E+01  0.18863575453E+02  0.00000000000E+00 0. -1.
</event>
<event>
 7    1  0.6245487E-013  0.5052886E+02  0.7816164E-02  0.1300439E+00
        -11   -1    0    0    0    0  0.00000000000E+00  0.00000000000E+00  0.45593999997E+02  0.45594000000E+02  0.51100000000E-03 0.  1.
         11   -1    0    0    0    0 -0.00000000000E+00 -0.00000000000E+00 -0.45593999997E+02  0.45594000000E+02  0.51100000000E-03 0. -1.
    9900012    2    1    2    0    0  0.16899010576E+02  0.34320061456E+02  0.13773970207E+02  0.50528862872E+02  0.30000009184E+02 0.  0.
         12    1    1    2    0    0 -0.16899010576E+02 -0.34320061456E+02 -0.13773970207E+02  0.40659137128E+02  0.00000000000E+00 0. -1.
         11    1    3    3    0    0 -0.17068731702E+01  0.32114522196E+01 -0.48267672938E+01  0.60435522788E+01  0.51100000000E-03 0. -1.
        -11    1    3    3    0    0  0.65913639273E+01 -0.34475366684E+00  0.17204593568E+01  0.68209173996E+01  0.51100000000E-03 0.  1.
        -12    1    3    3    0    0  0.12014519819E+02  0.31453362903E+02  0.16880278144E+02  0.37664393193E+02  0.00000000000E+00 0.  1.
</event>
<event>
 7    1  0.6245487E-013  0.5052886E+02  0.7816164E-02  0.1300439E+00
        -11   -1    0    0    0    0  0.00000000000E+00  0.00000000000E+00  0.45593999997E+02  0.45594000000E+02  0.51100000000E-03 0. -1.
         11   -1    0    0    0    0 -0.00000000000E+00 -0.00000000000E+00 -0.45593999997E+02  0.45594000000E+02  0.51100000000E-03 0.  1.
    9900012    2    1    2    0    0 -0.31242198567E+02  0.14028578833E+02 -0.21915509869E+02  0.50528861197E+02  0.30000004095E+02 0.  0.
         12    1    1    2    0    0  0.31242198567E+02 -0.14028578833E+02  0.21915509869E+02  0.40659138803E+02  0.00000000000E+00 0. -1.
         11    1    3    3    0    0  0.35461132492E+01  0.24905307288E+01 -0.46199971398E+01  0.63341957911E+01  0.51100000000E-03 0. -1.
        -11    1    3    3    0    0 -0.11114970703E+02  0.11733572964E+02 -0.11457101435E+02  0.19811221108E+02  0.51100000000E-03 0.  1.
        -12    1    3    3    0    0 -0.23673341113E+02 -0.19552485952E+00 -0.58384112941E+01  0.24383444298E+02  0.00000000000E+00 0.  1.
</event>
<event>
 7    1  0.6245487E-013  0.5052886E+02  0.7816164E-02  0.1300439E+00
        -11   -1    0    0    0    0  0.00000000000E+00  0.00000000000E+00  0.45593999997E+02  0.45594000000E+02  0.51100000000E-03 0.  1.
         11   -1    0    0    0    0 -0.00000000000E+00 -0.00000000000E+00 -0.45593999997E+02  0.45594000000E+02  0.51100000000E-03 0. -1.
    9900012    2    1    2    0    0  0.18318925156E+00  0.30726554701E+02  0.26627261775E+02  0.50528858449E+02  0.29999995740E+02 0.  0.
         12    1    1    2    0    0 -0.18318925156E+00 -0.30726554701E+02 -0.26627261775E+02  0.40659141551E+02  0.00000000000E+00 0. -1.
         11    1    3    3    0    0  0.67071427662E+01  0.37169034425E+01  0.10813043777E+02  0.13256057154E+02  0.51100000000E-03 0. -1.
        -11    1    3    3    0    0 -0.14750332510E+00  0.12592202393E+02 -0.27789202658E+01  0.12896034911E+02  0.51100000000E-03 0.  1.
        -12    1    3    3    0    0 -0.63764501896E+01  0.14417448866E+02  0.18593138263E+02  0.24376766383E+02  0.00000000000E+00 0.  1.
</event>
<event>
 7    1  0.6245487E-013  0.5052884E+02  0.7816164E-02  0.1300439E+00
        -11   -1    0    0    0    0  0.00000000000E+00  0.00000000000E+00  0.45593999997E+02  0.45594000000E+02  0.51100000000E-03 0.  1.
         11   -1    0    0    0    0 -0.00000000000E+00 -0.00000000000E+00 -0.45593999997E+02  0.45594000000E+02  0.51100000000E-03 0. -1.
    9900012    2    1    2    0    0 -0.36227007955E+02  0.12347624877E+02  0.13722514628E+02  0.50528839246E+02  0.29999937373E+02 0.  0.
         12    1    1    2    0    0  0.36227007955E+02 -0.12347624877E+02 -0.13722514628E+02  0.40659160754E+02  0.00000000000E+00 0. -1.
         11    1    3    3    0    0  0.46016058364E+00 -0.53883064056E+00  0.36492943773E+00  0.79703198028E+00  0.51100000000E-03 0. -1.
        -11    1    3    3    0    0 -0.33720504385E+02  0.18129505882E+02  0.38524919527E+01  0.38478475724E+02  0.51100000000E-03 0.  1.
        -12    1    3    3    0    0 -0.29666641536E+01 -0.52430503652E+01  0.95050932380E+01  0.11253331542E+02  0.00000000000E+00 0.  1.
</event>
<event>
 7    1  0.6245487E-013  0.5052884E+02  0.7816164E-02  0.1300439E+00
        -11   -1    0    0    0    0  0.00000000000E+00  0.00000000000E+00  0.45593999997E+02  0.45594000000E+02  0.51100000000E-03 0. -1.
         11   -1    0    0    0    0 -0.00000000000E+00 -0.00000000000E+00 -0.45593999997E+02  0.45594000000E+02  0.51100000000E-03 0.  1.
    9900012    2    1    2    0    0  0.71606181529E+01 -0.74878845700E+01 -0.39316970050E+02  0.50528843570E+02  0.29999950515E+02 0.  0.
         12    1    1    2    0    0 -0.71606181529E+01  0.74878845700E+01  0.39316970050E+02  0.40659156430E+02  0.00000000000E+00 0. -1.
         11    1    3    3    0    0 -0.34569937249E+01  0.38638212086E+01  0.26799165818E+00  0.51915064996E+01  0.51100000000E-03 0. -1.
        -11    1    3    3    0    0  0.94873060242E+01 -0.20009276675E+01 -0.86273497617E+01  0.12978592038E+02  0.51100000000E-03 0.  1.
         12    1    3    3    0    0  0.11303058536E+01 -0.93507781110E+01 -0.30957611947E+02  0.32358745032E+02  0.00000000000E+00 0. -1.
</event>
<event>
 7    1  0.6245487E-013  0.5052886E+02  0.7816164E-02  0.1300439E+00
        -11   -1    0    0    0    0  0.00000000000E+00  0.00000000000E+00  0.45593999997E+02  0.45594000000E+02  0.51100000000E-03 0. -1.
         11   -1    0    0    0    0 -0.00000000000E+00 -0.00000000000E+00 -0.45593999997E+02  0.45594000000E+02  0.51100000000E-03 0.  1.
    9900012    2    1    2    0    0 -0.39861888950E+02  0.43664428162E+01 -0.67178312141E+01  0.50528864867E+02  0.30000015249E+02 0.  0.
         12    1    1    2    0    0  0.39861888950E+02 -0.43664428162E+01  0.67178312141E+01  0.40659135133E+02  0.00000000000E+00 0. -1.
         11    1    3    3    0    0 -0.35195073648E+02  0.20074710420E+01  0.29396138053E+01  0.35374630439E+02  0.51100000000E-03 0. -1.
        -11    1    3    3    0    0 -0.73592701975E+01 -0.43013254723E+00 -0.42771219545E+01  0.85227721032E+01  0.51100000000E-03 0.  1.
         12    1    3    3    0    0  0.26924548955E+01  0.27891043215E+01 -0.53803230649E+01  0.66314623246E+01  0.00000000000E+00 0. -1.
</event>
<event>
 7    1  0.6245487E-013  0.5052886E+02  0.7816164E-02  0.1300439E+00
        -11   -1    0    0    0    0  0.00000000000E+00  0.00000000000E+00  0.45593999997E+02  0.45594000000E+02  0.51100000000E-03 0.  1.
         11   -1    0    0    0    0 -0.00000000000E+00 -0.00000000000E+00 -0.45593999997E+02  0.45594000000E+02  0.51100000000E-03 0. -1.
    9900012    2    1    2    0    0 -0.14709853599E+02  0.20612871567E+02  0.31810306943E+02  0.50528857179E+02  0.29999991880E+02 0.  0.
         12    1    1    2    0    0  0.14709853599E+02 -0.20612871567E+02 -0.31810306943E+02  0.40659142821E+02  0.00000000000E+00 0. -1.
         11    1    3    3    0    0 -0.10543410477E+02 -0.16186207226E+01  0.18316687091E+02  0.21196331376E+02  0.51100000000E-03 0. -1.
        -11    1    3    3    0    0 -0.31531249324E+01  0.81073959047E+01  0.12376968835E+02  0.15128166544E+02  0.51100000000E-03 0.  1.
         12    1    3    3    0    0 -0.10133181901E+01  0.14124096385E+02  0.11166510168E+01  0.14204359258E+02  0.00000000000E+00 0. -1.
</event>
<event>
 7    1  0.6245487E-013  0.5052887E+02  0.7816164E-02  0.1300439E+00
        -11   -1    0    0    0    0  0.00000000000E+00  0.00000000000E+00  0.45593999997E+02  0.45594000000E+02  0.51100000000E-03 0. -1.
         11   -1    0    0    0    0 -0.00000000000E+00 -0.00000000000E+00 -0.45593999997E+02  0.45594000000E+02  0.51100000000E-03 0.  1.
    9900012    2    1    2    0    0  0.48168365972E+01  0.39546707341E+02 -0.81253221091E+01  0.50528870205E+02  0.30000031475E+02 0.  0.
         12    1    1    2    0    0 -0.48168365972E+01 -0.39546707341E+02  0.81253221091E+01  0.40659129795E+02  0.00000000000E+00 0. -1.
         11    1    3    3    0    0  0.81385158708E+01  0.12474075272E+02 -0.11721819625E+01  0.14940281299E+02  0.51100000000E-03 0. -1.
        -11    1    3    3    0    0  0.16493822862E+01  0.19482224286E+02 -0.14044062678E+02  0.24073080855E+02  0.51100000000E-03 0.  1.
         12    1    3    3    0    0 -0.49710615599E+01  0.75904077823E+01  0.70909225314E+01  0.11515508051E+02  0.00000000000E+00 0. -1.
</event>
<event>
 7    1  0.6245487E-013  0.5052887E+02  0.7816164E-02  0.1300439E+00
        -11   -1    0    0    0    0  0.00000000000E+00  0.00000000000E+00  0.45593999997E+02  0.45594000000E+02  0.51100000000E-03 0. -1.
         11   -1    0    0    0    0 -0.00000000000E+00 -0.00000000000E+00 -0.45593999997E+02  0.45594000000E+02  0.51100000000E-03 0.  1.
    9900012    2    1    2    0    0 -0.21589418052E+01  0.11805885331E+02 -0.38847460151E+02  0.50528866729E+02  0.30000020909E+02 0.  0.
         12    1    1    2    0    0  0.21589418052E+01 -0.11805885331E+02  0.38847460151E+02  0.40659133271E+02  0.00000000000E+00 0. -1.
         11    1    3    3    0    0 -0.71099141891E+01 -0.27913934397E+01 -0.15565516852E+01  0.77952299852E+01  0.51100000000E-03 0. -1.
        -11    1    3    3    0    0 -0.41084165407E+01  0.59368721612E+01 -0.74830541612E+01  0.10398155479E+02  0.51100000000E-03 0.  1.
         12    1    3    3    0    0  0.90593889246E+01  0.86604066095E+01 -0.29807854305E+02  0.32335481264E+02  0.00000000000E+00 0. -1.
</event>
<event>
 7    1  0.6983096E-013  0.5052887E+02  0.7816164E-02  0.1300439E+00
        -11   -1    0    0    0    0  0.00000000000E+00  0.00000000000E+00  0.45593999997E+02  0.45594000000E+02  0.51100000000E-03 0.  1.
         11   -1    0    0    0    0 -0.00000000000E+00 -0.00000000000E+00 -0.45593999997E+02  0.45594000000E+02  0.51100000000E-03 0. -1.
    9900012    2    1    2    0    0  0.30404875123E+02  0.25270427138E+02  0.94928369605E+01  0.50528869752E+02  0.30000030097E+02 0.  0.
         12    1    1    2    0    0 -0.30404875123E+02 -0.25270427138E+02 -0.94928369605E+01  0.40659130248E+02  0.00000000000E+00 0. -1.
         11    1    3    3    0    0 -0.22937949287E+01 -0.18698186452E+00 -0.32759099066E+01  0.40035038866E+01  0.51100000000E-03 0. -1.
        -11    1    3    3    0    0  0.77707252696E+01  0.10631876916E+02  0.11517492981E+02  0.17494959926E+02  0.51100000000E-03 0.  1.
        -12    1    3    3    0    0  0.24927944782E+02  0.14825532087E+02  0.12512538857E+01  0.29030405939E+02  0.00000000000E+00 0.  1.
</event>
<event>
 7    1  0.6245487E-013  0.5052887E+02  0.7816164E-02  0.1300439E+00
        -11   -1    0    0    0    0  0.00000000000E+00  0.00000000000E+00  0.45593999997E+02  0.45594000000E+02  0.51100000000E-03 0. -1.
         11   -1    0    0    0    0 -0.00000000000E+00 -0.00000000000E+00 -0.45593999997E+02  0.45594000000E+02  0.51100000000E-03 0.  1.
    9900012    2    1    2    0    0  0.52226221472E+01  0.32245355376E+02 -0.24210037737E+02  0.50528872456E+02  0.30000038316E+02 0.  0.
         12    1    1    2    0    0 -0.52226221472E+01 -0.32245355376E+02  0.24210037737E+02  0.40659127544E+02  0.00000000000E+00 0. -1.
         11    1    3    3    0    0  0.18636493605E+01  0.10762313928E+02  0.10082320325E+01  0.10968916178E+02  0.51100000000E-03 0. -1.
        -11    1    3    3    0    0  0.70765268019E+01  0.24615206212E+02 -0.20889685170E+02  0.33050938795E+02  0.51100000000E-03 0.  1.
        -12    1    3    3    0    0 -0.37175540153E+01 -0.31321647638E+01 -0.43285845997E+01  0.65090174835E+01  0.00000000000E+00 0.  1.
</event>
<event>
 7    1  0.6245487E-013  0.5052887E+02  0.7816164E-02  0.1300439E+00
        -11   -1    0    0    0    0  0.00000000000E+00  0.00000000000E+00  0.45593999997E+02  0.45594000000E+02  0.51100000000E-03 0. -1.
         11   -1    0    0    0    0 -0.00000000000E+00 -0.00000000000E+00 -0.45593999997E+02  0.45594000000E+02  0.51100000000E-03 0.  1.
    9900012    2    1    2    0    0 -0.16765617244E+02  0.37024622756E+02 -0.11208890085E+01  0.50528868136E+02  0.30000025186E+02 0.  0.
         12    1    1    2    0    0  0.16765617244E+02 -0.37024622756E+02  0.11208890085E+01  0.40659131864E+02  0.00000000000E+00 0. -1.
         11    1    3    3    0    0 -0.13462031073E+02  0.20379159083E+02 -0.41712058005E+01  0.24777719096E+02  0.51100000000E-03 0.  1.
        -11    1    3    3    0    0  0.45424674686E+01  0.35894720219E+01  0.78740833778E+01  0.97734082797E+01  0.51100000000E-03 0. -1.
         12    1    3    3    0    0 -0.78460536401E+01  0.13055991651E+02 -0.48237665858E+01  0.15977740760E+02  0.00000000000E+00 0. -1.
</event>
<event>
 7    1  0.6245487E-013  0.5052884E+02  0.7816164E-02  0.1300439E+00
        -11   -1    0    0    0    0  0.00000000000E+00  0.00000000000E+00  0.45593999997E+02  0.45594000000E+02  0.51100000000E-03 0.  1.
         11   -1    0    0    0    0 -0.00000000000E+00 -0.00000000000E+00 -0.45593999997E+02  0.45594000000E+02  0.51100000000E-03 0. -1.
    9900012    2    1    2    0    0 -0.37571595569E+02  0.47406152949E+01 -0.14800975062E+02  0.50528842486E+02  0.29999947220E+02 0.  0.
         12    1    1    2    0    0  0.37571595569E+02 -0.47406152949E+01  0.14800975062E+02  0.40659157514E+02  0.00000000000E+00 0. -1.
         11    1    3    3    0    0 -0.18939430882E+02 -0.44729165424E+00 -0.10268116385E+02  0.21548464593E+02  0.51100000000E-03 0.  1.
        -11    1    3    3    0    0 -0.31812912179E+00 -0.63630723784E+01 -0.35777581442E+01  0.73068632005E+01  0.51100000000E-03 0. -1.
         12    1    3    3    0    0 -0.18314035565E+02  0.11550979328E+02 -0.95510053309E+00  0.21673514692E+02  0.00000000000E+00 0. -1.
</event>
<event>
 7    1  0.6245487E-013  0.5052887E+02  0.7816164E-02  0.1300439E+00
        -11   -1    0    0    0    0  0.00000000000E+00  0.00000000000E+00  0.45593999997E+02  0.45594000000E+02  0.51100000000E-03 0.  1.
         11   -1    0    0    0    0 -0.00000000000E+00 -0.00000000000E+00 -0.45593999997E+02  0.45594000000E+02  0.51100000000E-03 0. -1.
    9900012    2    1    2    0    0  0.11852400207E+02 -0.11170602968E+02  0.37254573234E+02  0.50528868330E+02  0.30000025774E+02 0.  0.
         12    1    1    2    0    0 -0.11852400207E+02  0.11170602968E+02 -0.37254573234E+02  0.40659131670E+02  0.00000000000E+00 0. -1.
         11    1    3    3    0    0  0.15342250936E+01  0.47928014372E+01  0.16231676710E+01  0.52876711134E+01  0.51100000000E-03 0. -1.
        -11    1    3    3    0    0  0.49553361142E+01 -0.13122401651E+02  0.64559931175E+01  0.15441263824E+02  0.51100000000E-03 0.  1.
         12    1    3    3    0    0  0.53628389994E+01 -0.28410027536E+01  0.29175412446E+02  0.29799933392E+02  0.00000000000E+00 0. -1.
</event>
<event>
 7    1  0.6245487E-013  0.5052884E+02  0.7816164E-02  0.1300439E+00
        -11   -1    0    0    0    0  0.00000000000E+00  0.00000000000E+00  0.45593999997E+02  0.45594000000E+02  0.51100000000E-03 0.  1.
         11   -1    0    0    0    0 -0.00000000000E+00 -0.00000000000E+00 -0.45593999997E+02  0.45594000000E+02  0.51100000000E-03 0. -1.
    9900012    2    1    2    0    0 -0.27835964616E+02 -0.13816938325E+02  0.26218672012E+02  0.50528837775E+02  0.29999932900E+02 0.  0.
         12    1    1    2    0    0  0.27835964616E+02  0.13816938325E+02 -0.26218672012E+02  0.40659162225E+02  0.00000000000E+00 0. -1.
         11    1    3    3    0    0 -0.73360952071E+01  0.22307120839E+01  0.23429648648E+01  0.80177212416E+01  0.51100000000E-03 0.  1.
        -11    1    3    3    0    0 -0.12582487722E+02 -0.21842468758E+02  0.15352643726E+02  0.29514676152E+02  0.51100000000E-03 0. -1.
         12    1    3    3    0    0 -0.79173816872E+01  0.57948183496E+01  0.85230634218E+01  0.12996440381E+02  0.00000000000E+00 0. -1.
</event>
<event>
 7    1  0.6245487E-013  0.5052886E+02  0.7816164E-02  0.1300439E+00
        -11   -1    0    0    0    0  0.00000000000E+00  0.00000000000E+00  0.45593999997E+02  0.45594000000E+02  0.51100000000E-03 0.  1.
         11   -1    0    0    0    0 -0.00000000000E+00 -0.00000000000E+00 -0.45593999997E+02  0.45594000000E+02  0.51100000000E-03 0. -1.
    9900012    2    1    2    0    0  0.15594314633E+02 -0.37368089193E+02  0.36890333600E+01  0.50528859503E+02  0.29999998946E+02 0.  0.
         12    1    1    2    0    0 -0.15594314633E+02  0.37368089193E+02 -0.36890333600E+01  0.40659140497E+02  0.00000000000E+00 0. -1.
         11    1    3    3    0    0  0.17545918516E+01  0.10817700392E+01 -0.58878565632E+01  0.62382428739E+01  0.51100000000E-03 0. -1.
        -11    1    3    3    0    0  0.51049834278E+01 -0.11078765182E+02 -0.35477186725E+01  0.12703786907E+02  0.51100000000E-03 0.  1.
        -12    1    3    3    0    0  0.87347393539E+01 -0.27371094051E+02  0.13124608596E+02  0.31586829722E+02  0.00000000000E+00 0.  1.
</event>
<event>
 7    1  0.6245487E-013  0.5052885E+02  0.7816164E-02  0.1300439E+00
        -11   -1    0    0    0    0  0.00000000000E+00  0.00000000000E+00  0.45593999997E+02  0.45594000000E+02  0.51100000000E-03 0.  1.
         11   -1    0    0    0    0 -0.00000000000E+00 -0.00000000000E+00 -0.45593999997E+02  0.45594000000E+02  0.51100000000E-03 0. -1.
    9900012    2    1    2    0    0  0.16010558362E+02 -0.37258038926E+02  0.29440283461E+01  0.50528846706E+02  0.29999960048E+02 0.  0.
         12    1    1    2    0    0 -0.16010558362E+02  0.37258038926E+02 -0.29440283461E+01  0.40659153294E+02  0.00000000000E+00 0. -1.
         11    1    3    3    0    0  0.41689437568E+01 -0.50609035088E+00 -0.52196543798E+01  0.66993291901E+01  0.51100000000E-03 0. -1.
        -11    1    3    3    0    0  0.10524011684E+02 -0.10394994275E+02  0.91990704105E+01  0.17419346273E+02  0.51100000000E-03 0.  1.
         12    1    3    3    0    0  0.13176029214E+01 -0.26356954300E+02 -0.10353876845E+01  0.26410171243E+02  0.00000000000E+00 0. -1.
</event>
<event>
 7    1  0.6245487E-013  0.5052886E+02  0.7816164E-02  0.1300439E+00
        -11   -1    0    0    0    0  0.00000000000E+00  0.00000000000E+00  0.45593999997E+02  0.45594000000E+02  0.51100000000E-03 0.  1.
         11   -1    0    0    0    0 -0.00000000000E+00 -0.00000000000E+00 -0.45593999997E+02  0.45594000000E+02  0.51100000000E-03 0. -1.
    9900012    2    1    2    0    0 -0.21591195130E+02  0.17807780528E+02  0.29493545969E+02  0.50528855785E+02  0.29999987644E+02 0.  0.
         12    1    1    2    0    0  0.21591195130E+02 -0.17807780528E+02 -0.29493545969E+02  0.40659144215E+02  0.00000000000E+00 0. -1.
         11    1    3    3    0    0  0.34113206301E+01 -0.77398162491E+00 -0.29001984543E+01  0.45439308239E+01  0.51100000000E-03 0. -1.
        -11    1    3    3    0    0 -0.12939236376E+02  0.39396136479E+01  0.15612364874E+02  0.20656483992E+02  0.51100000000E-03 0.  1.
        -12    1    3    3    0    0 -0.12063279384E+02  0.14642148505E+02  0.16781379549E+02  0.25328440969E+02  0.00000000000E+00 0.  1.
</event>
<event>
 7    1  0.6245487E-013  0.5052885E+02  0.7816164E-02  0.1300439E+00
        -11   -1    0    0    0    0  0.00000000000E+00  0.00000000000E+00  0.45593999997E+02  0.45594000000E+02  0.51100000000E-03 0.  1.
         11   -1    0    0    0    0 -0.00000000000E+00 -0.00000000000E+00 -0.45593999997E+02  0.45594000000E+02  0.51100000000E-03 0. -1.
    9900012    2    1    2    0    0 -0.19507441365E+02 -0.53784743114E+01  0.35266101584E+02  0.50528853729E+02  0.29999981396E+02 0.  0.
         12    1    1    2    0    0  0.19507441365E+02  0.53784743114E+01 -0.35266101584E+02  0.40659146271E+02  0.00000000000E+00 0. -1.
         11    1    3    3    0    0 -0.11441733588E+02  0.24467122954E+01  0.33346382740E+01  0.12166325708E+02  0.51100000000E-03 0. -1.
        -11    1    3    3    0    0  0.30390330541E+01  0.35551377708E+01  0.11908789816E+02  0.12794295667E+02  0.51100000000E-03 0.  1.
         12    1    3    3    0    0 -0.11104740831E+02 -0.11380324378E+02  0.20022673494E+02  0.25568232354E+02  0.00000000000E+00 0. -1.
</event>
<event>
 7    1  0.6245487E-013  0.5052885E+02  0.7816164E-02  0.1300439E+00
        -11   -1    0    0    0    0  0.00000000000E+00  0.00000000000E+00  0.45593999997E+02  0.45594000000E+02  0.51100000000E-03 0. -1.
         11   -1    0    0    0    0 -0.00000000000E+00 -0.00000000000E+00 -0.45593999997E+02  0.45594000000E+02  0.51100000000E-03 0.  1.
    9900012    2    1    2    0    0  0.30447104864E+02 -0.24058576206E+02 -0.12137756931E+02  0.50528850637E+02  0.29999971995E+02 0.  0.
         12    1    1    2    0    0 -0.30447104864E+02  0.24058576206E+02  0.12137756931E+02  0.40659149363E+02  0.00000000000E+00 0. -1.
         11    1    3    3    0    0  0.20136845880E+02 -0.11142024690E+02  0.20252036686E+01  0.23102786117E+02  0.51100000000E-03 0. -1.
        -11    1    3    3    0    0  0.11112209790E+02 -0.16307829666E+02 -0.10435067301E+02  0.22323018269E+02  0.51100000000E-03 0.  1.
         12    1    3    3    0    0 -0.80195080652E+00  0.33912781496E+01 -0.37278932993E+01  0.51030462505E+01  0.00000000000E+00 0. -1.
</event>
<event>
 7    1  0.6245487E-013  0.5052888E+02  0.7816164E-02  0.1300439E+00
        -11   -1    0    0    0    0  0.00000000000E+00  0.00000000000E+00  0.45593999997E+02  0.45594000000E+02  0.51100000000E-03 0. -1.
         11   -1    0    0    0    0 -0.00000000000E+00 -0.00000000000E+00 -0.45593999997E+02  0.45594000000E+02  0.51100000000E-03 0.  1.
    9900012    2    1    2    0    0 -0.65654754974E+01 -0.37791880171E+02 -0.13484531384E+02  0.50528877260E+02  0.30000052919E+02 0.  0.
         12    1    1    2    0    0  0.65654754974E+01  0.37791880171E+02  0.13484531384E+02  0.40659122740E+02  0.00000000000E+00 0. -1.
         11    1    3    3    0    0 -0.29069130750E+01  0.35437480836E+01  0.89656805247E+00  0.46703456659E+01  0.51100000000E-03 0. -1.
        -11    1    3    3    0    0 -0.73488303985E+01 -0.14384163605E+02 -0.74413434505E+01  0.17784348834E+02  0.51100000000E-03 0.  1.
        -12    1    3    3    0    0  0.36902679760E+01 -0.26951464650E+02 -0.69397559859E+01  0.28074182760E+02  0.00000000000E+00 0.  1.
</event>
<event>
 7    1  0.6245487E-013  0.5052886E+02  0.7816164E-02  0.1300439E+00
        -11   -1    0    0    0    0  0.00000000000E+00  0.00000000000E+00  0.45593999997E+02  0.45594000000E+02  0.51100000000E-03 0.  1.
         11   -1    0    0    0    0 -0.00000000000E+00 -0.00000000000E+00 -0.45593999997E+02  0.45594000000E+02  0.51100000000E-03 0. -1.
    9900012    2    1    2    0    0  0.37729549088E+02 -0.14324985359E+02 -0.49438233414E+01  0.50528862415E+02  0.30000007796E+02 0.  0.
         12    1    1    2    0    0 -0.37729549088E+02  0.14324985359E+02  0.49438233414E+01  0.40659137585E+02  0.00000000000E+00 0. -1.
         11    1    3    3    0    0 -0.27165845951E+01 -0.31162458375E+01 -0.41849087961E+01  0.58825404270E+01  0.51100000000E-03 0. -1.
        -11    1    3    3    0    0  0.46645613631E+01  0.15068137637E+01  0.40640604410E+01  0.63675119126E+01  0.51100000000E-03 0.  1.
        -12    1    3    3    0    0  0.35781572320E+02 -0.12715553285E+02 -0.48229749863E+01  0.38278810075E+02  0.00000000000E+00 0.  1.
</event>
<event>
 7    1  0.6245487E-013  0.5052886E+02  0.7816164E-02  0.1300439E+00
        -11   -1    0    0    0    0  0.00000000000E+00  0.00000000000E+00  0.45593999997E+02  0.45594000000E+02  0.51100000000E-03 0. -1.
         11   -1    0    0    0    0 -0.00000000000E+00 -0.00000000000E+00 -0.45593999997E+02  0.45594000000E+02  0.51100000000E-03 0.  1.
    9900012    2    1    2    0    0  0.39397350886E+02 -0.92590725985E+01 -0.39094305369E+01  0.50528864134E+02  0.30000013022E+02 0.  0.
         12    1    1    2    0    0 -0.39397350886E+02  0.92590725985E+01  0.39094305369E+01  0.40659135866E+02  0.00000000000E+00 0. -1.
         11    1    3    3    0    0 -0.52240678192E+00  0.16922487374E+01 -0.20128869574E+00  0.17824511313E+01  0.51100000000E-03 0. -1.
        -11    1    3    3    0    0  0.28340829911E+02  0.32510220750E+01 -0.85736114635E+01  0.29787222065E+02  0.51100000000E-03 0.  1.
         12    1    3    3    0    0  0.11578927757E+02 -0.14202343411E+02  0.48654696223E+01  0.18959190938E+02  0.00000000000E+00 0. -1.
</event>
<event>
 7    1  0.6245487E-013  0.5052881E+02  0.7816164E-02  0.1300439E+00
        -11   -1    0    0    0    0  0.00000000000E+00  0.00000000000E+00  0.45593999997E+02  0.45594000000E+02  0.51100000000E-03 0.  1.
         11   -1    0    0    0    0 -0.00000000000E+00 -0.00000000000E+00 -0.45593999997E+02  0.45594000000E+02  0.51100000000E-03 0. -1.
    9900012    2    1    2    0    0  0.58227069332E+01  0.89663488173E+01  0.39228442723E+02  0.50528806137E+02  0.29999836734E+02 0.  0.
         12    1    1    2    0    0 -0.58227069332E+01 -0.89663488173E+01 -0.39228442723E+02  0.40659193863E+02  0.00000000000E+00 0. -1.
         11    1    3    3    0    0  0.49890952826E+01  0.79504130141E+01  0.18001143552E+02  0.20301263711E+02  0.51100000000E-03 0. -1.
        -11    1    3    3    0    0 -0.50429865591E+01 -0.23413796347E+01  0.22640795773E+02  0.23313502644E+02  0.51100000000E-03 0.  1.
         12    1    3    3    0    0  0.58765982098E+01  0.33573154380E+01 -0.14134966019E+01  0.69140397824E+01  0.00000000000E+00 0. -1.
</event>
<event>
 7    1  0.6245487E-013  0.5052886E+02  0.7816164E-02  0.1300439E+00
        -11   -1    0    0    0    0  0.00000000000E+00  0.00000000000E+00  0.45593999997E+02  0.45594000000E+02  0.51100000000E-03 0.  1.
         11   -1    0    0    0    0 -0.00000000000E+00 -0.00000000000E+00 -0.45593999997E+02  0.45594000000E+02  0.51100000000E-03 0. -1.
    9900012    2    1    2    0    0  0.35762334813E+02  0.21414586804E+01  0.19225899561E+02  0.50528860186E+02  0.30000001021E+02 0.  0.
         12    1    1    2    0    0 -0.35762334813E+02 -0.21414586804E+01 -0.19225899561E+02  0.40659139814E+02  0.00000000000E+00 0. -1.
         11    1    3    3    0    0  0.99328527493E+01  0.10336866274E+02  0.62529629180E+01  0.15640073964E+02  0.51100000000E-03 0. -1.
        -11    1    3    3    0    0  0.10994578660E+02  0.15204129750E+01  0.13080730248E+02  0.17155113512E+02  0.51100000000E-03 0.  1.
         12    1    3    3    0    0  0.14834903404E+02 -0.97158205681E+01 -0.10779360577E+00  0.17733672709E+02  0.00000000000E+00 0. -1.
</event>
<event>
 7    1  0.6245487E-013  0.5052887E+02  0.7816164E-02  0.1300439E+00
        -11   -1    0    0    0    0  0.00000000000E+00  0.00000000000E+00  0.45593999997E+02  0.45594000000E+02  0.51100000000E-03 0.  1.
         11   -1    0    0    0    0 -0.00000000000E+00 -0.00000000000E+00 -0.45593999997E+02  0.45594000000E+02  0.51100000000E-03 0. -1.
    9900012    2    1    2    0    0 -0.16997592191E+02 -0.36094221508E+02  0.78392550435E+01  0.50528869583E+02  0.30000029585E+02 0.  0.
         12    1    1    2    0    0  0.16997592191E+02  0.36094221508E+02 -0.78392550435E+01  0.40659130417E+02  0.00000000000E+00 0. -1.
         11    1    3    3    0    0 -0.12744641151E+01 -0.46978256447E+01  0.87248145256E+01  0.99908064407E+01  0.51100000000E-03 0. -1.
        -11    1    3    3    0    0 -0.11890605305E+02 -0.29875689666E+02  0.58091305317E+01  0.32675515686E+02  0.51100000000E-03 0.  1.
        -12    1    3    3    0    0 -0.38325227711E+01 -0.15207061980E+01 -0.66946900138E+01  0.78625474569E+01  0.00000000000E+00 0.  1.
</event>
<event>
 7    1  0.6245487E-013  0.5052886E+02  0.7816164E-02  0.1300439E+00
        -11   -1    0    0    0    0  0.00000000000E+00  0.00000000000E+00  0.45593999997E+02  0.45594000000E+02  0.51100000000E-03 0. -1.
         11   -1    0    0    0    0 -0.00000000000E+00 -0.00000000000E+00 -0.45593999997E+02  0.45594000000E+02  0.51100000000E-03 0.  1.
    9900012    2    1    2    0    0 -0.69342596011E+01 -0.36733717828E+02 -0.15991112988E+02  0.50528859868E+02  0.30000000055E+02 0.  0.
         12    1    1    2    0    0  0.69342596011E+01  0.36733717828E+02  0.15991112988E+02  0.40659140132E+02  0.00000000000E+00 0. -1.
         11    1    3    3    0    0 -0.50900151318E+00 -0.12559267721E+02 -0.10996976263E+02  0.16701130963E+02  0.51100000000E-03 0. -1.
        -11    1    3    3    0    0  0.13930598356E+01 -0.25436186462E+02 -0.46898505351E+01  0.25902411002E+02  0.51100000000E-03 0.  1.
         12    1    3    3    0    0 -0.78183179235E+01  0.12617363550E+01 -0.30428618957E+00  0.79253179032E+01  0.00000000000E+00 0. -1.
</event>
<event>
 7    1  0.6245487E-013  0.5052885E+02  0.7816164E-02  0.1300439E+00
        -11   -1    0    0    0    0  0.00000000000E+00  0.00000000000E+00  0.45593999997E+02  0.45594000000E+02  0.51100000000E-03 0. -1.
         11   -1    0    0    0    0 -0.00000000000E+00 -0.00000000000E+00 -0.45593999997E+02  0.45594000000E+02  0.51100000000E-03 0.  1.
    9900012    2    1    2    0    0 -0.36859903432E+01  0.93008082655E+01 -0.39409074636E+02  0.50528846998E+02  0.29999960934E+02 0.  0.
         12    1    1    2    0    0  0.36859903432E+01 -0.93008082655E+01  0.39409074636E+02  0.40659153002E+02  0.00000000000E+00 0. -1.
         11    1    3    3    0    0 -0.23225775567E+01 -0.50129387385E-01  0.32624635830E+01  0.40050653371E+01  0.51100000000E-03 0. -1.
        -11    1    3    3    0    0 -0.77052170451E+01  0.26811803320E+01 -0.12072958946E+02  0.14571047857E+02  0.51100000000E-03 0.  1.
         12    1    3    3    0    0  0.63418042586E+01  0.66697573209E+01 -0.30598579273E+02  0.31952733803E+02  0.00000000000E+00 0. -1.
</event>
<event>
 7    1  0.6245487E-013  0.5052886E+02  0.7816164E-02  0.1300439E+00
        -11   -1    0    0    0    0  0.00000000000E+00  0.00000000000E+00  0.45593999997E+02  0.45594000000E+02  0.51100000000E-03 0. -1.
         11   -1    0    0    0    0 -0.00000000000E+00 -0.00000000000E+00 -0.45593999997E+02  0.45594000000E+02  0.51100000000E-03 0.  1.
    9900012    2    1    2    0    0 -0.26293921548E+02 -0.27112948061E+02 -0.15056011846E+02  0.50528858892E+02  0.29999997087E+02 0.  0.
         12    1    1    2    0    0  0.26293921548E+02  0.27112948061E+02  0.15056011846E+02  0.40659141108E+02  0.00000000000E+00 0. -1.
         11    1    3    3    0    0 -0.19298973009E+02 -0.69628477492E+01  0.73441393314E+00  0.20529758208E+02  0.51100000000E-03 0. -1.
        -11    1    3    3    0    0 -0.72128567413E+01 -0.21349224466E+02 -0.11037968272E+02  0.25092856185E+02  0.51100000000E-03 0.  1.
        -12    1    3    3    0    0  0.21790820277E+00  0.11991241541E+01 -0.47524575074E+01  0.49062444987E+01  0.00000000000E+00 0.  1.
</event>
<event>
 7    1  0.6245487E-013  0.5052887E+02  0.7816164E-02  0.1300439E+00
        -11   -1    0    0    0    0  0.00000000000E+00  0.00000000000E+00  0.45593999997E+02  0.45594000000E+02  0.51100000000E-03 0. -1.
         11   -1    0    0    0    0 -0.00000000000E+00 -0.00000000000E+00 -0.45593999997E+02  0.45594000000E+02  0.51100000000E-03 0.  1.
    9900012    2    1    2    0    0 -0.32220085343E+01  0.85284764582E+01 -0.39623834256E+02  0.50528874446E+02  0.30000044365E+02 0.  0.
         12    1    1    2    0    0  0.32220085343E+01 -0.85284764582E+01  0.39623834256E+02  0.40659125554E+02  0.00000000000E+00 0. -1.
         11    1    3    3    0    0  0.26332387057E+01  0.39599834207E+01 -0.16006381785E+02  0.16697894265E+02  0.51100000000E-03 0. -1.
        -11    1    3    3    0    0 -0.13522292054E+02  0.78560241958E+01 -0.17604962235E+02  0.23547912733E+02  0.51100000000E-03 0.  1.
         12    1    3    3    0    0  0.76670448136E+01 -0.32875311583E+01 -0.60124902366E+01  0.10283067448E+02  0.00000000000E+00 0. -1.
</event>
<event>
 7    1  0.6245487E-013  0.5052880E+02  0.7816164E-02  0.1300439E+00
        -11   -1    0    0    0    0  0.00000000000E+00  0.00000000000E+00  0.45593999997E+02  0.45594000000E+02  0.51100000000E-03 0.  1.
         11   -1    0    0    0    0 -0.00000000000E+00 -0.00000000000E+00 -0.45593999997E+02  0.45594000000E+02  0.51100000000E-03 0. -1.
    9900012    2    1    2    0    0  0.24308981388E+01 -0.40837385805E+00  0.40584415015E+02  0.50528797142E+02  0.29999809391E+02 0.  0.
         12    1    1    2    0    0 -0.24308981388E+01  0.40837385805E+00 -0.40584415015E+02  0.40659202858E+02  0.00000000000E+00 0. -1.
         11    1    3    3    0    0  0.88588946261E+01  0.24417098849E+01  0.14532786006E+02  0.17194296453E+02  0.51100000000E-03 0. -1.
        -11    1    3    3    0    0 -0.34211382356E+01  0.75391109211E+01  0.18121656094E+02  0.19923272827E+02  0.51100000000E-03 0.  1.
         12    1    3    3    0    0 -0.30068582517E+01 -0.10389194664E+02  0.79299729148E+01  0.13411227861E+02  0.00000000000E+00 0. -1.
</event>
<event>
 7    1  0.6245487E-013  0.5052891E+02  0.7816164E-02  0.1300439E+00
        -11   -1    0    0    0    0  0.00000000000E+00  0.00000000000E+00  0.45593999997E+02  0.45594000000E+02  0.51100000000E-03 0.  1.
         11   -1    0    0    0    0 -0.00000000000E+00 -0.00000000000E+00 -0.45593999997E+02  0.45594000000E+02  0.51100000000E-03 0. -1.
    9900012    2    1    2    0    0  0.37096487031E+02  0.13283122251E+02 -0.10028493691E+02  0.50528912793E+02  0.30000160924E+02 0.  0.
         12    1    1    2    0    0 -0.37096487031E+02 -0.13283122251E+02  0.10028493691E+02  0.40659087207E+02  0.00000000000E+00 0. -1.
         11    1    3    3    0    0  0.15669076645E+02  0.32431102587E+01  0.48044077581E+01  0.16706886641E+02  0.51100000000E-03 0. -1.
        -11    1    3    3    0    0  0.42813840329E+01 -0.56944104716E+01 -0.34255875418E+01  0.79051382103E+01  0.51100000000E-03 0.  1.
         12    1    3    3    0    0  0.17146026353E+02  0.15734422464E+02 -0.11407313908E+02  0.25916887941E+02  0.00000000000E+00 0. -1.
</event>
<event>
 7    1  0.6245487E-013  0.5052886E+02  0.7816164E-02  0.1300439E+00
        -11   -1    0    0    0    0  0.00000000000E+00  0.00000000000E+00  0.45593999997E+02  0.45594000000E+02  0.51100000000E-03 0.  1.
         11   -1    0    0    0    0 -0.00000000000E+00 -0.00000000000E+00 -0.45593999997E+02  0.45594000000E+02  0.51100000000E-03 0. -1.
    9900012    2    1    2    0    0  0.30128799738E+02  0.20832205648E+02  0.17647675458E+02  0.50528858163E+02  0.29999994872E+02 0.  0.
         12    1    1    2    0    0 -0.30128799738E+02 -0.20832205648E+02 -0.17647675458E+02  0.40659141837E+02  0.00000000000E+00 0. -1.
         11    1    3    3    0    0  0.14136894373E+02 -0.34052405117E+01  0.69321377454E+01  0.16109065133E+02  0.51100000000E-03 0. -1.
        -11    1    3    3    0    0  0.15144979744E+02  0.97732230999E+01  0.78022619368E+01  0.19640814463E+02  0.51100000000E-03 0.  1.
        -12    1    3    3    0    0  0.84692562164E+00  0.14464223060E+02  0.29132757757E+01  0.14778978567E+02  0.00000000000E+00 0.  1.
</event>
<event>
 7    1  0.6245487E-013  0.5052886E+02  0.7816164E-02  0.1300439E+00
        -11   -1    0    0    0    0  0.00000000000E+00  0.00000000000E+00  0.45593999997E+02  0.45594000000E+02  0.51100000000E-03 0.  1.
         11   -1    0    0    0    0 -0.00000000000E+00 -0.00000000000E+00 -0.45593999997E+02  0.45594000000E+02  0.51100000000E-03 0. -1.
    9900012    2    1    2    0    0  0.38077177160E+02 -0.95438607963E+01  0.10592857489E+02  0.50528864137E+02  0.30000013031E+02 0.  0.
         12    1    1    2    0    0 -0.38077177160E+02  0.95438607963E+01 -0.10592857489E+02  0.40659135863E+02  0.00000000000E+00 0. -1.
         11    1    3    3    0    0  0.11323528086E+02 -0.74788494956E+01 -0.30141730006E+01  0.13901104892E+02  0.51100000000E-03 0. -1.
        -11    1    3    3    0    0  0.28974284296E+02 -0.64857350977E+00  0.74392230921E+01  0.29921093538E+02  0.51100000000E-03 0.  1.
         12    1    3    3    0    0 -0.22206352217E+01 -0.14164377909E+01  0.61678073979E+01  0.67066657067E+01  0.00000000000E+00 0. -1.
</event>
<event>
 7    1  0.6245487E-013  0.5052885E+02  0.7816164E-02  0.1300439E+00
        -11   -1    0    0    0    0  0.00000000000E+00  0.00000000000E+00  0.45593999997E+02  0.45594000000E+02  0.51100000000E-03 0.  1.
         11   -1    0    0    0    0 -0.00000000000E+00 -0.00000000000E+00 -0.45593999997E+02  0.45594000000E+02  0.51100000000E-03 0. -1.
    9900012    2    1    2    0    0  0.32606438399E+02 -0.24289574382E+02 -0.56523291124E-01  0.50528850432E+02  0.29999971372E+02 0.  0.
         12    1    1    2    0    0 -0.32606438399E+02  0.24289574382E+02  0.56523291124E-01  0.40659149568E+02  0.00000000000E+00 0. -1.
         11    1    3    3    0    0  0.19360061084E+01 -0.40290426257E+01  0.88843870116E+01  0.99455335184E+01  0.51100000000E-03 0. -1.
        -11    1    3    3    0    0  0.49396462227E+01  0.20452808437E+01 -0.25989635936E+01  0.59445681556E+01  0.51100000000E-03 0.  1.
         12    1    3    3    0    0  0.25730786068E+02 -0.22305812600E+02 -0.63419467091E+01  0.34638748758E+02  0.00000000000E+00 0. -1.
</event>
<event>
 7    1  0.6245487E-013  0.5052885E+02  0.7816164E-02  0.1300439E+00
        -11   -1    0    0    0    0  0.00000000000E+00  0.00000000000E+00  0.45593999997E+02  0.45594000000E+02  0.51100000000E-03 0. -1.
         11   -1    0    0    0    0 -0.00000000000E+00 -0.00000000000E+00 -0.45593999997E+02  0.45594000000E+02  0.51100000000E-03 0.  1.
    9900012    2    1    2    0    0 -0.21942622788E+02  0.20462308696E+02 -0.27440506549E+02  0.50528853776E+02  0.29999981539E+02 0.  0.
         12    1    1    2    0    0  0.21942622788E+02 -0.20462308696E+02  0.27440506549E+02  0.40659146224E+02  0.00000000000E+00 0. -1.
         11    1    3    3    0    0 -0.12892471126E+02  0.10586837759E+02 -0.22255998153E+02  0.27814140280E+02  0.51100000000E-03 0. -1.
        -11    1    3    3    0    0  0.51167242599E+01  0.24777187886E+01 -0.34225451920E+01  0.66357948582E+01  0.51100000000E-03 0.  1.
         12    1    3    3    0    0 -0.14166875922E+02  0.73977521484E+01 -0.17619632033E+01  0.16078918638E+02  0.00000000000E+00 0. -1.
</event>
<event>
 7    1  0.6245487E-013  0.5052888E+02  0.7816164E-02  0.1300439E+00
        -11   -1    0    0    0    0  0.00000000000E+00  0.00000000000E+00  0.45593999997E+02  0.45594000000E+02  0.51100000000E-03 0.  1.
         11   -1    0    0    0    0 -0.00000000000E+00 -0.00000000000E+00 -0.45593999997E+02  0.45594000000E+02  0.51100000000E-03 0. -1.
    9900012    2    1    2    0    0 -0.11469172795E+02  0.21885635257E+02  0.32289956982E+02  0.50528877074E+02  0.30000052355E+02 0.  0.
         12    1    1    2    0    0  0.11469172795E+02 -0.21885635257E+02 -0.32289956982E+02  0.40659122926E+02  0.00000000000E+00 0. -1.
         11    1    3    3    0    0 -0.53016020576E+01  0.93045783105E-01  0.13645992433E+02  0.14639971025E+02  0.51100000000E-03 0. -1.
        -11    1    3    3    0    0 -0.13467461238E+02  0.13334839840E+02  0.83977033866E+01  0.20729493197E+02  0.51100000000E-03 0.  1.
        -12    1    3    3    0    0  0.72998905015E+01  0.84577496343E+01  0.10246261163E+02  0.15159412852E+02  0.00000000000E+00 0.  1.
</event>
<event>
 7    1  0.6245487E-013  0.5052886E+02  0.7816164E-02  0.1300439E+00
        -11   -1    0    0    0    0  0.00000000000E+00  0.00000000000E+00  0.45593999997E+02  0.45594000000E+02  0.51100000000E-03 0.  1.
         11   -1    0    0    0    0 -0.00000000000E+00 -0.00000000000E+00 -0.45593999997E+02  0.45594000000E+02  0.51100000000E-03 0. -1.
    9900012    2    1    2    0    0  0.38165593940E+02  0.28305217177E-01  0.14019700543E+02  0.50528863692E+02  0.30000011679E+02 0.  0.
         12    1    1    2    0    0 -0.38165593940E+02 -0.28305217177E-01 -0.14019700543E+02  0.40659136308E+02  0.00000000000E+00 0. -1.
         11    1    3    3    0    0  0.11837480852E+02 -0.68424518395E+01  0.62114465697E+01  0.15017562014E+02  0.51100000000E-03 0. -1.
        -11    1    3    3    0    0  0.20953759882E+02  0.51069012212E+01  0.15067042905E+02  0.26308863059E+02  0.51100000000E-03 0.  1.
         12    1    3    3    0    0  0.53743532062E+01  0.17638558355E+01 -0.72587889316E+01  0.92024386196E+01  0.00000000000E+00 0. -1.
</event>
<event>
 7    1  0.6245487E-013  0.5052885E+02  0.7816164E-02  0.1300439E+00
        -11   -1    0    0    0    0  0.00000000000E+00  0.00000000000E+00  0.45593999997E+02  0.45594000000E+02  0.51100000000E-03 0.  1.
         11   -1    0    0    0    0 -0.00000000000E+00 -0.00000000000E+00 -0.45593999997E+02  0.45594000000E+02  0.51100000000E-03 0. -1.
    9900012    2    1    2    0    0  0.83787049723E+01  0.38596506064E+02  0.96578318857E+01  0.50528847352E+02  0.29999962011E+02 0.  0.
         12    1    1    2    0    0 -0.83787049723E+01 -0.38596506064E+02 -0.96578318857E+01  0.40659152648E+02  0.00000000000E+00 0. -1.
         11    1    3    3    0    0 -0.46996097987E+01  0.77010371016E+01  0.16158079427E+01  0.91653227041E+01  0.51100000000E-03 0. -1.
        -11    1    3    3    0    0  0.12528878426E+01  0.17191784199E+02  0.14106759852E+02  0.22273927486E+02  0.51100000000E-03 0.  1.
         12    1    3    3    0    0  0.11825426928E+02  0.13703684763E+02 -0.60647359093E+01  0.19089597161E+02  0.00000000000E+00 0. -1.
</event>
<event>
 7    1  0.6245487E-013  0.5052886E+02  0.7816164E-02  0.1300439E+00
        -11   -1    0    0    0    0  0.00000000000E+00  0.00000000000E+00  0.45593999997E+02  0.45594000000E+02  0.51100000000E-03 0.  1.
         11   -1    0    0    0    0 -0.00000000000E+00 -0.00000000000E+00 -0.45593999997E+02  0.45594000000E+02  0.51100000000E-03 0. -1.
    9900012    2    1    2    0    0 -0.31359848970E+02 -0.20675644663E+02  0.15564154903E+02  0.50528864158E+02  0.30000013093E+02 0.  0.
         12    1    1    2    0    0  0.31359848970E+02  0.20675644663E+02 -0.15564154903E+02  0.40659135842E+02  0.00000000000E+00 0. -1.
         11    1    3    3    0    0 -0.12122442965E+02  0.28921280447E+01  0.27410113715E+01  0.12760531794E+02  0.51100000000E-03 0. -1.
        -11    1    3    3    0    0 -0.15746968535E+02 -0.20603403343E+02  0.17451532232E+02  0.31257370729E+02  0.51100000000E-03 0.  1.
         12    1    3    3    0    0 -0.34904374697E+01 -0.29643693638E+01 -0.46283886998E+01  0.65109616349E+01  0.00000000000E+00 0. -1.
</event>
<event>
 7    1  0.6245487E-013  0.5052886E+02  0.7816164E-02  0.1300439E+00
        -11   -1    0    0    0    0  0.00000000000E+00  0.00000000000E+00  0.45593999997E+02  0.45594000000E+02  0.51100000000E-03 0.  1.
         11   -1    0    0    0    0 -0.00000000000E+00 -0.00000000000E+00 -0.45593999997E+02  0.45594000000E+02  0.51100000000E-03 0. -1.
    9900012    2    1    2    0    0  0.27312665548E+02  0.29992996552E+02  0.27576074296E+01  0.50528856622E+02  0.29999990188E+02 0.  0.
         12    1    1    2    0    0 -0.27312665548E+02 -0.29992996552E+02 -0.27576074296E+01  0.40659143378E+02  0.00000000000E+00 0. -1.
         11    1    3    3    0    0  0.30686336754E+01 -0.47659249537E+00 -0.18562156744E+01  0.36178985518E+01  0.51100000000E-03 0. -1.
        -11    1    3    3    0    0  0.28064955906E+02  0.24484151067E+02 -0.18757639761E+01  0.37291203979E+02  0.51100000000E-03 0.  1.
        -12    1    3    3    0    0 -0.38209240337E+01  0.59854379807E+01  0.64895870801E+01  0.96197540906E+01  0.00000000000E+00 0.  1.
</event>
<event>
 7    1  0.6245487E-013  0.5052890E+02  0.7816164E-02  0.1300439E+00
        -11   -1    0    0    0    0  0.00000000000E+00  0.00000000000E+00  0.45593999997E+02  0.45594000000E+02  0.51100000000E-03 0. -1.
         11   -1    0    0    0    0 -0.00000000000E+00 -0.00000000000E+00 -0.45593999997E+02  0.45594000000E+02  0.51100000000E-03 0.  1.
    9900012    2    1    2    0    0  0.20195960459E+02  0.19170387371E+02 -0.29627381828E+02  0.50528901083E+02  0.30000125330E+02 0.  0.
         12    1    1    2    0    0 -0.20195960459E+02 -0.19170387371E+02  0.29627381828E+02  0.40659098917E+02  0.00000000000E+00 0. -1.
         11    1    3    3    0    0 -0.32371431329E+00  0.84860290903E+01 -0.10445143895E+02  0.13461742529E+02  0.51100000000E-03 0. -1.
        -11    1    3    3    0    0  0.14261055722E+02  0.11122808293E+02 -0.23350019968E+02  0.29535030175E+02  0.51100000000E-03 0.  1.
         12    1    3    3    0    0  0.62586190496E+01 -0.43845001241E+00  0.41677820352E+01  0.75321283788E+01  0.00000000000E+00 0. -1.
</event>
<event>
 7    1  0.6245487E-013  0.5052886E+02  0.7816164E-02  0.1300439E+00
        -11   -1    0    0    0    0  0.00000000000E+00  0.00000000000E+00  0.45593999997E+02  0.45594000000E+02  0.51100000000E-03 0. -1.
         11   -1    0    0    0    0 -0.00000000000E+00 -0.00000000000E+00 -0.45593999997E+02  0.45594000000E+02  0.51100000000E-03 0.  1.
    9900012    2    1    2    0    0  0.22623228325E+02  0.25735349219E+02 -0.21887151663E+02  0.50528855060E+02  0.29999985442E+02 0.  0.
         12    1    1    2    0    0 -0.22623228325E+02 -0.25735349219E+02  0.21887151663E+02  0.40659144940E+02  0.00000000000E+00 0. -1.
         11    1    3    3    0    0 -0.20006935095E+01  0.67328364249E+01 -0.25526885901E+01  0.74732911186E+01  0.51100000000E-03 0. -1.
        -11    1    3    3    0    0  0.11698510516E+02  0.22033707094E+02 -0.14903932378E+02  0.29059707452E+02  0.51100000000E-03 0.  1.
         12    1    3    3    0    0  0.12925411318E+02 -0.30311943003E+01 -0.44305306955E+01  0.13995856490E+02  0.00000000000E+00 0. -1.
</event>
<event>
 7    1  0.6245487E-013  0.5052886E+02  0.7816164E-02  0.1300439E+00
        -11   -1    0    0    0    0  0.00000000000E+00  0.00000000000E+00  0.45593999997E+02  0.45594000000E+02  0.51100000000E-03 0.  1.
         11   -1    0    0    0    0 -0.00000000000E+00 -0.00000000000E+00 -0.45593999997E+02  0.45594000000E+02  0.51100000000E-03 0. -1.
    9900012    2    1    2    0    0 -0.11535666885E+02 -0.29483370003E+02  0.25511268813E+02  0.50528861375E+02  0.30000004637E+02 0.  0.
         12    1    1    2    0    0  0.11535666885E+02  0.29483370003E+02 -0.25511268813E+02  0.40659138625E+02  0.00000000000E+00 0. -1.
         11    1    3    3    0    0 -0.74962612197E+01 -0.99742959173E+01  0.20442446265E+02  0.23949407527E+02  0.51100000000E-03 0.  1.
        -11    1    3    3    0    0  0.41698958344E+01 -0.55265631589E+01  0.74739185358E+01  0.10187756876E+02  0.51100000000E-03 0. -1.
         12    1    3    3    0    0 -0.82093015002E+01 -0.13982510927E+02 -0.24050959875E+01  0.16391696973E+02  0.00000000000E+00 0. -1.
</event>
<event>
 7    1  0.6245487E-013  0.5052886E+02  0.7816164E-02  0.1300439E+00
        -11   -1    0    0    0    0  0.00000000000E+00  0.00000000000E+00  0.45593999997E+02  0.45594000000E+02  0.51100000000E-03 0.  1.
         11   -1    0    0    0    0 -0.00000000000E+00 -0.00000000000E+00 -0.45593999997E+02  0.45594000000E+02  0.51100000000E-03 0. -1.
    9900012    2    1    2    0    0  0.21588275734E+02  0.33638504720E+02 -0.74540338185E+01  0.50528864875E+02  0.30000015273E+02 0.  0.
         12    1    1    2    0    0 -0.21588275734E+02 -0.33638504720E+02  0.74540338185E+01  0.40659135125E+02  0.00000000000E+00 0. -1.
         11    1    3    3    0    0  0.27486996448E+01  0.13743592580E+01 -0.86361872739E+01  0.91666757333E+01  0.51100000000E-03 0. -1.
        -11    1    3    3    0    0 -0.30732593216E+01  0.16470479681E+01  0.12713388430E+01  0.37113329926E+01  0.51100000000E-03 0.  1.
        -12    1    3    3    0    0  0.21912835411E+02  0.30617097494E+02 -0.89185387571E-01  0.37650856149E+02  0.00000000000E+00 0.  1.
</event>
<event>
 7    1  0.6245487E-013  0.5052887E+02  0.7816164E-02  0.1300439E+00
        -11   -1    0    0    0    0  0.00000000000E+00  0.00000000000E+00  0.45593999997E+02  0.45594000000E+02  0.51100000000E-03 0.  1.
         11   -1    0    0    0    0 -0.00000000000E+00 -0.00000000000E+00 -0.45593999997E+02  0.45594000000E+02  0.51100000000E-03 0. -1.
    9900012    2    1    2    0    0  0.36624425188E+02  0.11098247183E+02  0.13734825514E+02  0.50528867658E+02  0.30000023734E+02 0.  0.
         12    1    1    2    0    0 -0.36624425188E+02 -0.11098247183E+02 -0.13734825514E+02  0.40659132342E+02  0.00000000000E+00 0. -1.
         11    1    3    3    0    0  0.26754137481E+02  0.11548554335E+02  0.12183026202E+02  0.31584475732E+02  0.51100000000E-03 0. -1.
        -11    1    3    3    0    0  0.11772274475E+02 -0.14606591148E+01 -0.43709698409E+01  0.12642205068E+02  0.51100000000E-03 0.  1.
         12    1    3    3    0    0 -0.19019867685E+01  0.10103519632E+01  0.59227691528E+01  0.63021868582E+01  0.00000000000E+00 0. -1.
</event>
<event>
 7    1  0.6245487E-013  0.5052886E+02  0.7816164E-02  0.1300439E+00
        -11   -1    0    0    0    0  0.00000000000E+00  0.00000000000E+00  0.45593999997E+02  0.45594000000E+02  0.51100000000E-03 0.  1.
         11   -1    0    0    0    0 -0.00000000000E+00 -0.00000000000E+00 -0.45593999997E+02  0.45594000000E+02  0.51100000000E-03 0. -1.
    9900012    2    1    2    0    0  0.15265735712E+02 -0.37064169137E+02  0.68096030471E+01  0.50528855711E+02  0.29999987419E+02 0.  0.
         12    1    1    2    0    0 -0.15265735712E+02  0.37064169137E+02 -0.68096030471E+01  0.40659144289E+02  0.00000000000E+00 0. -1.
         11    1    3    3    0    0 -0.21268361742E+01 -0.27533125249E+02  0.90077808637E+01  0.29047143309E+02  0.51100000000E-03 0.  1.
        -11    1    3    3    0    0  0.95804871156E+01 -0.82525502242E+01  0.15202984386E+01  0.12735840223E+02  0.51100000000E-03 0. -1.
        -12    1    3    3    0    0  0.78120847705E+01 -0.12784936642E+01 -0.37184762552E+01  0.87458721790E+01  0.00000000000E+00 0.  1.
</event>
<event>
 7    1  0.6245487E-013  0.5052887E+02  0.7816164E-02  0.1300439E+00
        -11   -1    0    0    0    0  0.00000000000E+00  0.00000000000E+00  0.45593999997E+02  0.45594000000E+02  0.51100000000E-03 0.  1.
         11   -1    0    0    0    0 -0.00000000000E+00 -0.00000000000E+00 -0.45593999997E+02  0.45594000000E+02  0.51100000000E-03 0. -1.
    9900012    2    1    2    0    0  0.17485180040E+02 -0.33493321570E+02  0.15021012080E+02  0.50528869233E+02  0.30000028521E+02 0.  0.
         12    1    1    2    0    0 -0.17485180040E+02  0.33493321570E+02 -0.15021012080E+02  0.40659130767E+02  0.00000000000E+00 0. -1.
         11    1    3    3    0    0  0.69396351630E+01 -0.21164603412E+02 -0.26669748021E+01  0.22432381252E+02  0.51100000000E-03 0. -1.
        -11    1    3    3    0    0  0.73399894884E+01 -0.81835861424E+01  0.15163747291E+01  0.11097113157E+02  0.51100000000E-03 0.  1.
         12    1    3    3    0    0  0.32055553890E+01 -0.41451320148E+01  0.16171612153E+02  0.16999374824E+02  0.00000000000E+00 0. -1.
</event>
<event>
 7    1  0.6245487E-013  0.5052886E+02  0.7816164E-02  0.1300439E+00
        -11   -1    0    0    0    0  0.00000000000E+00  0.00000000000E+00  0.45593999997E+02  0.45594000000E+02  0.51100000000E-03 0.  1.
         11   -1    0    0    0    0 -0.00000000000E+00 -0.00000000000E+00 -0.45593999997E+02  0.45594000000E+02  0.51100000000E-03 0. -1.
    9900012    2    1    2    0    0  0.32378223080E+02  0.24070181188E+02  0.50440593332E+01  0.50528862198E+02  0.30000007138E+02 0.  0.
         12    1    1    2    0    0 -0.32378223080E+02 -0.24070181188E+02 -0.50440593332E+01  0.40659137802E+02  0.00000000000E+00 0. -1.
         11    1    3    3    0    0  0.74939184254E+01  0.20990681360E+02  0.74901487439E+01  0.23513184510E+02  0.51100000000E-03 0. -1.
        -11    1    3    3    0    0  0.46121534588E+01  0.50340080242E+00  0.34100734104E+01  0.57579486643E+01  0.51100000000E-03 0.  1.
         12    1    3    3    0    0  0.20272151196E+02  0.25760990256E+01 -0.58561628211E+01  0.21257729024E+02  0.00000000000E+00 0. -1.
</event>
<event>
 7    1  0.6245487E-013  0.5052886E+02  0.7816164E-02  0.1300439E+00
        -11   -1    0    0    0    0  0.00000000000E+00  0.00000000000E+00  0.45593999997E+02  0.45594000000E+02  0.51100000000E-03 0.  1.
         11   -1    0    0    0    0 -0.00000000000E+00 -0.00000000000E+00 -0.45593999997E+02  0.45594000000E+02  0.51100000000E-03 0. -1.
    9900012    2    1    2    0    0 -0.28991005570E+02  0.29480065802E+01  0.28354829640E+02  0.50528861904E+02  0.30000006245E+02 0.  0.
         12    1    1    2    0    0  0.28991005570E+02 -0.29480065802E+01 -0.28354829640E+02  0.40659138096E+02  0.00000000000E+00 0. -1.
         11    1    3    3    0    0 -0.16813888860E+02 -0.26692196248E+01  0.41324252835E+01  0.17518805068E+02  0.51100000000E-03 0. -1.
        -11    1    3    3    0    0 -0.11612291111E+02 -0.23321730509E+01  0.21575181692E+02  0.24612452159E+02  0.51100000000E-03 0.  1.
         12    1    3    3    0    0 -0.56482559929E+00  0.79493992559E+01  0.26472226640E+01  0.83976046776E+01  0.00000000000E+00 0. -1.
</event>
<event>
 7    1  0.6245487E-013  0.5052886E+02  0.7816164E-02  0.1300439E+00
        -11   -1    0    0    0    0  0.00000000000E+00  0.00000000000E+00  0.45593999997E+02  0.45594000000E+02  0.51100000000E-03 0.  1.
         11   -1    0    0    0    0 -0.00000000000E+00 -0.00000000000E+00 -0.45593999997E+02  0.45594000000E+02  0.51100000000E-03 0. -1.
    9900012    2    1    2    0    0  0.38248531364E+02 -0.78341451963E+01  0.11350848824E+02  0.50528858943E+02  0.29999997242E+02 0.  0.
         12    1    1    2    0    0 -0.38248531364E+02  0.78341451963E+01 -0.11350848824E+02  0.40659141057E+02  0.00000000000E+00 0. -1.
         11    1    3    3    0    0  0.19789770787E+02 -0.32726633538E+01 -0.66413926546E+01  0.21129445092E+02  0.51100000000E-03 0.  1.
        -11    1    3    3    0    0  0.37865065508E+00 -0.15457472502E+00  0.84982724579E+01  0.85081081736E+01  0.51100000000E-03 0. -1.
        -12    1    3    3    0    0  0.18080109923E+02 -0.44069071175E+01  0.94939690205E+01  0.20891305678E+02  0.00000000000E+00 0.  1.
</event>
<event>
 7    1  0.6245487E-013  0.5052885E+02  0.7816164E-02  0.1300439E+00
        -11   -1    0    0    0    0  0.00000000000E+00  0.00000000000E+00  0.45593999997E+02  0.45594000000E+02  0.51100000000E-03 0.  1.
         11   -1    0    0    0    0 -0.00000000000E+00 -0.00000000000E+00 -0.45593999997E+02  0.45594000000E+02  0.51100000000E-03 0. -1.
    9900012    2    1    2    0    0 -0.20853368190E+02  0.19890972399E+02  0.28681916676E+02  0.50528854755E+02  0.29999984513E+02 0.  0.
         12    1    1    2    0    0  0.20853368190E+02 -0.19890972399E+02 -0.28681916676E+02  0.40659145245E+02  0.00000000000E+00 0. -1.
         11    1    3    3    0    0 -0.54949026763E+00  0.10028690893E+02  0.97593747770E+01  0.14004355640E+02  0.51100000000E-03 0. -1.
        -11    1    3    3    0    0  0.17616920809E+01  0.37774422052E+01  0.11859092548E+02  0.12570230902E+02  0.51100000000E-03 0.  1.
         12    1    3    3    0    0 -0.22065570004E+02  0.60848393000E+01  0.70634493507E+01  0.23954268213E+02  0.00000000000E+00 0. -1.
</event>
<event>
 7    1  0.6245487E-013  0.5052888E+02  0.7816164E-02  0.1300439E+00
        -11   -1    0    0    0    0  0.00000000000E+00  0.00000000000E+00  0.45593999997E+02  0.45594000000E+02  0.51100000000E-03 0.  1.
         11   -1    0    0    0    0 -0.00000000000E+00 -0.00000000000E+00 -0.45593999997E+02  0.45594000000E+02  0.51100000000E-03 0. -1.
    9900012    2    1    2    0    0  0.20114816940E+01 -0.22174341108E+01  0.40548745144E+02  0.50528882875E+02  0.30000069986E+02 0.  0.
         12    1    1    2    0    0 -0.20114816940E+01  0.22174341108E+01 -0.40548745144E+02  0.40659117125E+02  0.00000000000E+00 0. -1.
         11    1    3    3    0    0  0.10025065918E+02 -0.28350412893E+01  0.11053856493E+02  0.15189705376E+02  0.51100000000E-03 0. -1.
        -11    1    3    3    0    0 -0.37416093772E-01 -0.21519148693E+01  0.26180217654E+02  0.26268535061E+02  0.51100000000E-03 0.  1.
         12    1    3    3    0    0 -0.79761681305E+01  0.27695220478E+01  0.33146709964E+01  0.90706424377E+01  0.00000000000E+00 0. -1.
</event>
<event>
 7    1  0.6245487E-013  0.5052886E+02  0.7816164E-02  0.1300439E+00
        -11   -1    0    0    0    0  0.00000000000E+00  0.00000000000E+00  0.45593999997E+02  0.45594000000E+02  0.51100000000E-03 0. -1.
         11   -1    0    0    0    0 -0.00000000000E+00 -0.00000000000E+00 -0.45593999997E+02  0.45594000000E+02  0.51100000000E-03 0.  1.
    9900012    2    1    2    0    0 -0.12490328414E+02 -0.23031371773E+02 -0.31092016330E+02  0.50528857497E+02  0.29999992848E+02 0.  0.
         12    1    1    2    0    0  0.12490328414E+02  0.23031371773E+02  0.31092016330E+02  0.40659142503E+02  0.00000000000E+00 0. -1.
         11    1    3    3    0    0 -0.12242167618E+02 -0.16319835292E+02 -0.12532941045E+02  0.23943314379E+02  0.51100000000E-03 0. -1.
        -11    1    3    3    0    0 -0.40768733920E+01 -0.67914333942E+01 -0.20724132699E+02  0.22186350321E+02  0.51100000000E-03 0.  1.
         12    1    3    3    0    0  0.38287125953E+01  0.79896913854E-01  0.21650574144E+01  0.43991927966E+01  0.00000000000E+00 0. -1.
</event>
<event>
 7    1  0.6245487E-013  0.5052886E+02  0.7816164E-02  0.1300439E+00
        -11   -1    0    0    0    0  0.00000000000E+00  0.00000000000E+00  0.45593999997E+02  0.45594000000E+02  0.51100000000E-03 0. -1.
         11   -1    0    0    0    0 -0.00000000000E+00 -0.00000000000E+00 -0.45593999997E+02  0.45594000000E+02  0.51100000000E-03 0.  1.
    9900012    2    1    2    0    0 -0.33794519629E+02  0.24261464497E+00 -0.22606136487E+02  0.50528858030E+02  0.29999994469E+02 0.  0.
         12    1    1    2    0    0  0.33794519629E+02 -0.24261464497E+00  0.22606136487E+02  0.40659141970E+02  0.00000000000E+00 0. -1.
         11    1    3    3    0    0 -0.12642835033E+02  0.44858171197E+01 -0.17886773574E+01  0.13533779955E+02  0.51100000000E-03 0. -1.
        -11    1    3    3    0    0 -0.22345525047E+02  0.25244362584E+01 -0.19962694590E+02  0.30069992411E+02  0.51100000000E-03 0.  1.
         12    1    3    3    0    0  0.11938404509E+01 -0.67676387331E+01 -0.85476453981E+00  0.69250856647E+01  0.00000000000E+00 0. -1.
</event>
<event>
 7    1  0.6245487E-013  0.5052878E+02  0.7816164E-02  0.1300439E+00
        -11   -1    0    0    0    0  0.00000000000E+00  0.00000000000E+00  0.45593999997E+02  0.45594000000E+02  0.51100000000E-03 0. -1.
         11   -1    0    0    0    0 -0.00000000000E+00 -0.00000000000E+00 -0.45593999997E+02  0.45594000000E+02  0.51100000000E-03 0.  1.
    9900012    2    1    2    0    0  0.11125979909E+02  0.36534182481E+02 -0.13951284635E+02  0.50528778888E+02  0.29999753907E+02 0.  0.
         12    1    1    2    0    0 -0.11125979909E+02 -0.36534182481E+02  0.13951284635E+02  0.40659221112E+02  0.00000000000E+00 0. -1.
         11    1    3    3    0    0  0.40933166830E+01  0.17638086943E+02 -0.78965946386E+01  0.19753823924E+02  0.51100000000E-03 0. -1.
        -11    1    3    3    0    0  0.11361274643E+02  0.20116601685E+02  0.15991859780E+00  0.23103718295E+02  0.51100000000E-03 0.  1.
         12    1    3    3    0    0 -0.43286114167E+01 -0.12205061466E+01 -0.62146085939E+01  0.76712366687E+01  0.00000000000E+00 0. -1.
</event>
<event>
 7    1  0.6245487E-013  0.5052886E+02  0.7816164E-02  0.1300439E+00
        -11   -1    0    0    0    0  0.00000000000E+00  0.00000000000E+00  0.45593999997E+02  0.45594000000E+02  0.51100000000E-03 0. -1.
         11   -1    0    0    0    0 -0.00000000000E+00 -0.00000000000E+00 -0.45593999997E+02  0.45594000000E+02  0.51100000000E-03 0.  1.
    9900012    2    1    2    0    0  0.35904076392E+02 -0.16526501075E+02 -0.95361456153E+01  0.50528855732E+02  0.29999987484E+02 0.  0.
         12    1    1    2    0    0 -0.35904076392E+02  0.16526501075E+02  0.95361456153E+01  0.40659144268E+02  0.00000000000E+00 0. -1.
         11    1    3    3    0    0  0.86696550035E+01  0.13461306540E+01 -0.99401899277E+00  0.88296692824E+01  0.51100000000E-03 0. -1.
        -11    1    3    3    0    0  0.26135280530E+02 -0.53661270158E+01 -0.30264183554E+00  0.26682200056E+02  0.51100000000E-03 0.  1.
        -12    1    3    3    0    0  0.10991408593E+01 -0.12506504714E+02 -0.82394847870E+01  0.15016986393E+02  0.00000000000E+00 0.  1.
</event>
<event>
 7    1  0.6245487E-013  0.5052885E+02  0.7816164E-02  0.1300439E+00
        -11   -1    0    0    0    0  0.00000000000E+00  0.00000000000E+00  0.45593999997E+02  0.45594000000E+02  0.51100000000E-03 0. -1.
         11   -1    0    0    0    0 -0.00000000000E+00 -0.00000000000E+00 -0.45593999997E+02  0.45594000000E+02  0.51100000000E-03 0.  1.
    9900012    2    1    2    0    0 -0.93932795779E+01  0.14015163398E+02 -0.36993352466E+02  0.50528848103E+02  0.29999964293E+02 0.  0.
         12    1    1    2    0    0  0.93932795779E+01 -0.14015163398E+02  0.36993352466E+02  0.40659151897E+02  0.00000000000E+00 0. -1.
         11    1    3    3    0    0 -0.33077872854E+00 -0.21024295626E+01  0.22684357359E+01  0.31105346135E+01  0.51100000000E-03 0. -1.
        -11    1    3    3    0    0  0.29902835588E+00  0.11331178206E+02 -0.66238257375E+01  0.13128597989E+02  0.51100000000E-03 0.  1.
         12    1    3    3    0    0 -0.93615292053E+01  0.47864147548E+01 -0.32637962465E+02  0.34289715501E+02  0.00000000000E+00 0. -1.
</event>
<event>
 7    1  0.6245487E-013  0.5052887E+02  0.7816164E-02  0.1300439E+00
        -11   -1    0    0    0    0  0.00000000000E+00  0.00000000000E+00  0.45593999997E+02  0.45594000000E+02  0.51100000000E-03 0. -1.
         11   -1    0    0    0    0 -0.00000000000E+00 -0.00000000000E+00 -0.45593999997E+02  0.45594000000E+02  0.51100000000E-03 0.  1.
    9900012    2    1    2    0    0  0.31801763280E+02  0.20331714155E+02 -0.15114048164E+02  0.50528865724E+02  0.30000017854E+02 0.  0.
         12    1    1    2    0    0 -0.31801763280E+02 -0.20331714155E+02  0.15114048164E+02  0.40659134276E+02  0.00000000000E+00 0. -1.
         11    1    3    3    0    0  0.14770287620E+01 -0.67645539635E+00  0.33955312571E+01  0.37641517831E+01  0.51100000000E-03 0. -1.
        -11    1    3    3    0    0 -0.97166361301E-02  0.30025695502E+01 -0.10049737479E+02  0.10488695914E+02  0.51100000000E-03 0.  1.
         12    1    3    3    0    0  0.30334451154E+02  0.18005600001E+02 -0.84598419419E+01  0.36276018027E+02  0.00000000000E+00 0. -1.
</event>
<event>
 7    1  0.6245487E-013  0.5052886E+02  0.7816164E-02  0.1300439E+00
        -11   -1    0    0    0    0  0.00000000000E+00  0.00000000000E+00  0.45593999997E+02  0.45594000000E+02  0.51100000000E-03 0. -1.
         11   -1    0    0    0    0 -0.00000000000E+00 -0.00000000000E+00 -0.45593999997E+02  0.45594000000E+02  0.51100000000E-03 0.  1.
    9900012    2    1    2    0    0  0.27067732281E+02  0.14409268149E+02 -0.26699740971E+02  0.50528864405E+02  0.30000013847E+02 0.  0.
         12    1    1    2    0    0 -0.27067732281E+02 -0.14409268149E+02  0.26699740971E+02  0.40659135595E+02  0.00000000000E+00 0. -1.
         11    1    3    3    0    0  0.37561167448E+01 -0.15689556014E+01  0.57370812924E+00  0.41108607320E+01  0.51100000000E-03 0. -1.
        -11    1    3    3    0    0  0.21758208997E+02  0.23719276750E+01 -0.23708991720E+02  0.32267041827E+02  0.51100000000E-03 0.  1.
         12    1    3    3    0    0  0.15534065388E+01  0.13606296075E+02 -0.35644573804E+01  0.14150961846E+02  0.00000000000E+00 0. -1.
</event>
<event>
 7    1  0.6245487E-013  0.5052887E+02  0.7816164E-02  0.1300439E+00
        -11   -1    0    0    0    0  0.00000000000E+00  0.00000000000E+00  0.45593999997E+02  0.45594000000E+02  0.51100000000E-03 0. -1.
         11   -1    0    0    0    0 -0.00000000000E+00 -0.00000000000E+00 -0.45593999997E+02  0.45594000000E+02  0.51100000000E-03 0.  1.
    9900012    2    1    2    0    0 -0.65273126767E+01  0.39977298497E+02  0.35177925729E+01  0.50528867317E+02  0.30000022698E+02 0.  0.
         12    1    1    2    0    0  0.65273126767E+01 -0.39977298497E+02 -0.35177925729E+01  0.40659132683E+02  0.00000000000E+00 0. -1.
         11    1    3    3    0    0  0.19513334866E+01  0.18261588362E+02  0.55065870117E+01  0.19173309903E+02  0.51100000000E-03 0. -1.
        -11    1    3    3    0    0 -0.17769499066E+01  0.54580991281E+01  0.89599271083E+01  0.10640897101E+02  0.51100000000E-03 0.  1.
        -12    1    3    3    0    0 -0.67016962567E+01  0.16257611007E+02 -0.10948721547E+02  0.20714660313E+02  0.00000000000E+00 0.  1.
</event>
<event>
 7    1  0.6245487E-013  0.5052894E+02  0.7816164E-02  0.1300439E+00
        -11   -1    0    0    0    0  0.00000000000E+00  0.00000000000E+00  0.45593999997E+02  0.45594000000E+02  0.51100000000E-03 0.  1.
         11   -1    0    0    0    0 -0.00000000000E+00 -0.00000000000E+00 -0.45593999997E+02  0.45594000000E+02  0.51100000000E-03 0. -1.
    9900012    2    1    2    0    0  0.13649499098E+02  0.38203787230E+02 -0.27057032020E+01  0.50528941794E+02  0.30000249077E+02 0.  0.
         12    1    1    2    0    0 -0.13649499098E+02 -0.38203787230E+02  0.27057032020E+01  0.40659058206E+02  0.00000000000E+00 0. -1.
         11    1    3    3    0    0 -0.29106252578E+01 -0.10999812189E+01  0.54489360736E+00  0.31588933787E+01  0.51100000000E-03 0.  1.
        -11    1    3    3    0    0 -0.36038241664E+01  0.49484737863E+01 -0.43656433557E+01  0.75188951054E+01  0.51100000000E-03 0. -1.
        -12    1    3    3    0    0  0.20163948522E+02  0.34355294663E+02  0.11150465463E+01  0.39851153310E+02  0.00000000000E+00 0.  1.
</event>
<event>
 7    1  0.6245487E-013  0.5052885E+02  0.7816164E-02  0.1300439E+00
        -11   -1    0    0    0    0  0.00000000000E+00  0.00000000000E+00  0.45593999997E+02  0.45594000000E+02  0.51100000000E-03 0. -1.
         11   -1    0    0    0    0 -0.00000000000E+00 -0.00000000000E+00 -0.45593999997E+02  0.45594000000E+02  0.51100000000E-03 0.  1.
    9900012    2    1    2    0    0  0.39822058340E+02 -0.62645007036E+00  0.81840119355E+01  0.50528845785E+02  0.29999957249E+02 0.  0.
         12    1    1    2    0    0 -0.39822058340E+02  0.62645007036E+00 -0.81840119355E+01  0.40659154215E+02  0.00000000000E+00 0. -1.
         11    1    3    3    0    0  0.18489311406E+02 -0.64782720304E+01  0.67371271198E+01  0.20717420854E+02  0.51100000000E-03 0. -1.
        -11    1    3    3    0    0  0.21874904234E+02  0.90918885285E+01  0.57700658290E+01  0.24381704866E+02  0.51100000000E-03 0.  1.
        -12    1    3    3    0    0 -0.54215730000E+00 -0.32400665685E+01 -0.43231810133E+01  0.54297200646E+01  0.00000000000E+00 0.  1.
</event>
<event>
 7    1  0.6245487E-013  0.5052885E+02  0.7816164E-02  0.1300439E+00
        -11   -1    0    0    0    0  0.00000000000E+00  0.00000000000E+00  0.45593999997E+02  0.45594000000E+02  0.51100000000E-03 0.  1.
         11   -1    0    0    0    0 -0.00000000000E+00 -0.00000000000E+00 -0.45593999997E+02  0.45594000000E+02  0.51100000000E-03 0. -1.
    9900012    2    1    2    0    0 -0.18658476101E+02  0.30504664228E+02 -0.19351834113E+02  0.50528846620E+02  0.29999959786E+02 0.  0.
         12    1    1    2    0    0  0.18658476101E+02 -0.30504664228E+02  0.19351834113E+02  0.40659153380E+02  0.00000000000E+00 0. -1.
         11    1    3    3    0    0 -0.42325568800E+01  0.13868042085E+02  0.44658587120E+01  0.15171717876E+02  0.51100000000E-03 0.  1.
        -11    1    3    3    0    0 -0.89355187367E-01  0.48743550546E+01 -0.13009790455E+02  0.13893234666E+02  0.51100000000E-03 0. -1.
        -12    1    3    3    0    0 -0.14336564033E+02  0.11762267088E+02 -0.10807902370E+02  0.21463894078E+02  0.00000000000E+00 0.  1.
</event>
<event>
 7    1  0.6245487E-013  0.5052886E+02  0.7816164E-02  0.1300439E+00
        -11   -1    0    0    0    0  0.00000000000E+00  0.00000000000E+00  0.45593999997E+02  0.45594000000E+02  0.51100000000E-03 0. -1.
         11   -1    0    0    0    0 -0.00000000000E+00 -0.00000000000E+00 -0.45593999997E+02  0.45594000000E+02  0.51100000000E-03 0.  1.
    9900012    2    1    2    0    0  0.17390432666E+01  0.40615734570E+02  0.70964738865E+00  0.50528858770E+02  0.29999996716E+02 0.  0.
         12    1    1    2    0    0 -0.17390432666E+01 -0.40615734570E+02 -0.70964738865E+00  0.40659141230E+02  0.00000000000E+00 0. -1.
         11    1    3    3    0    0 -0.44311005777E+01 -0.46409520985E+00  0.26817764190E+01  0.52001886231E+01  0.51100000000E-03 0. -1.
        -11    1    3    3    0    0 -0.64246250678E+01  0.15025716307E+02 -0.37239811734E+00  0.16345844683E+02  0.51100000000E-03 0.  1.
        -12    1    3    3    0    0  0.12594768912E+02  0.26054113473E+02 -0.15997309130E+01  0.28982825463E+02  0.00000000000E+00 0.  1.
</event>
<event>
 7    1  0.6245487E-013  0.5052887E+02  0.7816164E-02  0.1300439E+00
        -11   -1    0    0    0    0  0.00000000000E+00  0.00000000000E+00  0.45593999997E+02  0.45594000000E+02  0.51100000000E-03 0.  1.
         11   -1    0    0    0    0 -0.00000000000E+00 -0.00000000000E+00 -0.45593999997E+02  0.45594000000E+02  0.51100000000E-03 0. -1.
    9900012    2    1    2    0    0  0.19458568417E+02  0.29534904864E+02  0.20055392187E+02  0.50528865160E+02  0.30000016139E+02 0.  0.
         12    1    1    2    0    0 -0.19458568417E+02 -0.29534904864E+02 -0.20055392187E+02  0.40659134840E+02  0.00000000000E+00 0. -1.
         11    1    3    3    0    0  0.97229715212E+01  0.40212248048E+01 -0.24410364520E+01  0.10801161204E+02  0.51100000000E-03 0. -1.
        -11    1    3    3    0    0 -0.49183300953E+01  0.43793954634E+01  0.21268058708E+01  0.69204319969E+01  0.51100000000E-03 0.  1.
        -12    1    3    3    0    0  0.14653926992E+02  0.21134284596E+02  0.20369622768E+02  0.32807271959E+02  0.00000000000E+00 0.  1.
</event>
<event>
 7    1  0.6245487E-013  0.5052886E+02  0.7816164E-02  0.1300439E+00
        -11   -1    0    0    0    0  0.00000000000E+00  0.00000000000E+00  0.45593999997E+02  0.45594000000E+02  0.51100000000E-03 0. -1.
         11   -1    0    0    0    0 -0.00000000000E+00 -0.00000000000E+00 -0.45593999997E+02  0.45594000000E+02  0.51100000000E-03 0.  1.
    9900012    2    1    2    0    0 -0.18014043750E+02 -0.27079748800E+02 -0.24399730555E+02  0.50528863039E+02  0.30000009693E+02 0.  0.
         12    1    1    2    0    0  0.18014043750E+02  0.27079748800E+02  0.24399730555E+02  0.40659136961E+02  0.00000000000E+00 0. -1.
         11    1    3    3    0    0 -0.15487297008E+02 -0.33761236205E+01 -0.11517082689E+02  0.19593309400E+02  0.51100000000E-03 0. -1.
        -11    1    3    3    0    0  0.11777200439E+01  0.16748675982E+01  0.34754888496E+00  0.20767754962E+01  0.51100000000E-03 0.  1.
        -12    1    3    3    0    0 -0.37044667855E+01 -0.25378492778E+02 -0.13230196751E+02  0.28858778143E+02  0.00000000000E+00 0.  1.
</event>
<event>
 7    1  0.6245487E-013  0.5052896E+02  0.7816164E-02  0.1300438E+00
        -11   -1    0    0    0    0  0.00000000000E+00  0.00000000000E+00  0.45593999997E+02  0.45594000000E+02  0.51100000000E-03 0.  1.
         11   -1    0    0    0    0 -0.00000000000E+00 -0.00000000000E+00 -0.45593999997E+02  0.45594000000E+02  0.51100000000E-03 0. -1.
    9900012    2    1    2    0    0  0.11035102143E+02  0.13098586618E+02  0.36875612703E+02  0.50528963330E+02  0.30000314536E+02 0.  0.
         12    1    1    2    0    0 -0.11035102143E+02 -0.13098586618E+02 -0.36875612703E+02  0.40659036670E+02  0.00000000000E+00 0. -1.
         11    1    3    3    0    0 -0.38534981097E+01 -0.56657675631E+01  0.63201736384E+01  0.93217468771E+01  0.51100000000E-03 0. -1.
        -11    1    3    3    0    0  0.74746064868E+01  0.91501978659E+00  0.45235703795E+01  0.87846281983E+01  0.51100000000E-03 0.  1.
        -12    1    3    3    0    0  0.74139937655E+01  0.17849334394E+02  0.26031868686E+02  0.32422588255E+02  0.00000000000E+00 0.  1.
</event>
<event>
 7    1  0.6245487E-013  0.5052880E+02  0.7816164E-02  0.1300439E+00
        -11   -1    0    0    0    0  0.00000000000E+00  0.00000000000E+00  0.45593999997E+02  0.45594000000E+02  0.51100000000E-03 0. -1.
         11   -1    0    0    0    0 -0.00000000000E+00 -0.00000000000E+00 -0.45593999997E+02  0.45594000000E+02  0.51100000000E-03 0.  1.
    9900012    2    1    2    0    0  0.12031710402E+02  0.32175486281E+02 -0.21751932428E+02  0.50528800094E+02  0.29999818366E+02 0.  0.
         12    1    1    2    0    0 -0.12031710402E+02 -0.32175486281E+02  0.21751932428E+02  0.40659199906E+02  0.00000000000E+00 0. -1.
         11    1    3    3    0    0  0.20938601869E+01  0.44642905409E+01 -0.12032315793E+02  0.13003490459E+02  0.51100000000E-03 0.  1.
        -11    1    3    3    0    0 -0.31175376732E+01  0.20983105152E+02 -0.31891694578E+01  0.21451819155E+02  0.51100000000E-03 0. -1.
         12    1    3    3    0    0  0.13055387889E+02  0.67280905881E+01 -0.65304471770E+01  0.16073490480E+02  0.00000000000E+00 0. -1.
</event>
<event>
 7    1  0.6245487E-013  0.5052886E+02  0.7816164E-02  0.1300439E+00
        -11   -1    0    0    0    0  0.00000000000E+00  0.00000000000E+00  0.45593999997E+02  0.45594000000E+02  0.51100000000E-03 0.  1.
         11   -1    0    0    0    0 -0.00000000000E+00 -0.00000000000E+00 -0.45593999997E+02  0.45594000000E+02  0.51100000000E-03 0. -1.
    9900012    2    1    2    0    0  0.19868663027E+02 -0.16350697106E+02  0.31481048443E+02  0.50528862313E+02  0.30000007487E+02 0.  0.
         12    1    1    2    0    0 -0.19868663027E+02  0.16350697106E+02 -0.31481048443E+02  0.40659137687E+02  0.00000000000E+00 0. -1.
         11    1    3    3    0    0  0.20324405285E+02  0.79407688994E+00  0.14697789151E+02  0.25094561452E+02  0.51100000000E-03 0. -1.
        -11    1    3    3    0    0  0.28510722127E+01 -0.42115133764E+01  0.79137282494E+01  0.94070480358E+01  0.51100000000E-03 0.  1.
        -12    1    3    3    0    0 -0.33068144701E+01 -0.12933260620E+02  0.88695310426E+01  0.16027252825E+02  0.00000000000E+00 0.  1.
</event>
<event>
 7    1  0.6245487E-013  0.5052887E+02  0.7816164E-02  0.1300439E+00
        -11   -1    0    0    0    0  0.00000000000E+00  0.00000000000E+00  0.45593999997E+02  0.45594000000E+02  0.51100000000E-03 0.  1.
         11   -1    0    0    0    0 -0.00000000000E+00 -0.00000000000E+00 -0.45593999997E+02  0.45594000000E+02  0.51100000000E-03 0. -1.
    9900012    2    1    2    0    0  0.33256822751E+02 -0.61300274572E+01  0.22573688650E+02  0.50528869225E+02  0.30000028496E+02 0.  0.
         12    1    1    2    0    0 -0.33256822751E+02  0.61300274572E+01 -0.22573688650E+02  0.40659130775E+02  0.00000000000E+00 0. -1.
         11    1    3    3    0    0  0.96009667627E+01 -0.10780838290E+02  0.14725811820E+02  0.20621701458E+02  0.51100000000E-03 0. -1.
        -11    1    3    3    0    0  0.62995857080E+01  0.52209768736E+01  0.94121245608E+01  0.12471225626E+02  0.51100000000E-03 0.  1.
        -12    1    3    3    0    0  0.17356270280E+02 -0.57016604067E+00 -0.15642477309E+01  0.17435942140E+02  0.00000000000E+00 0.  1.
</event>
<event>
 7    1  0.6245487E-013  0.5052886E+02  0.7816164E-02  0.1300439E+00
        -11   -1    0    0    0    0  0.00000000000E+00  0.00000000000E+00  0.45593999997E+02  0.45594000000E+02  0.51100000000E-03 0. -1.
         11   -1    0    0    0    0 -0.00000000000E+00 -0.00000000000E+00 -0.45593999997E+02  0.45594000000E+02  0.51100000000E-03 0.  1.
    9900012    2    1    2    0    0  0.37188197511E+02  0.11893395385E+02 -0.11346833230E+02  0.50528861885E+02  0.30000006185E+02 0.  0.
         12    1    1    2    0    0 -0.37188197511E+02 -0.11893395385E+02  0.11346833230E+02  0.40659138115E+02  0.00000000000E+00 0. -1.
         11    1    3    3    0    0  0.26696293678E+01 -0.50196202601E+01  0.18184692084E+01  0.59691154319E+01  0.51100000000E-03 0. -1.
        -11    1    3    3    0    0  0.95471417520E+01  0.13747726655E+00 -0.10752684659E+02  0.14380091908E+02  0.51100000000E-03 0.  1.
        -12    1    3    3    0    0  0.24971426391E+02  0.16775538379E+02 -0.24126177794E+01  0.30179654545E+02  0.00000000000E+00 0.  1.
</event>
<event>
 7    1  0.6245487E-013  0.5052883E+02  0.7816164E-02  0.1300439E+00
        -11   -1    0    0    0    0  0.00000000000E+00  0.00000000000E+00  0.45593999997E+02  0.45594000000E+02  0.51100000000E-03 0.  1.
         11   -1    0    0    0    0 -0.00000000000E+00 -0.00000000000E+00 -0.45593999997E+02  0.45594000000E+02  0.51100000000E-03 0. -1.
    9900012    2    1    2    0    0  0.12505793727E+02  0.21242118811E+02  0.32334893742E+02  0.50528833240E+02  0.29999919115E+02 0.  0.
         12    1    1    2    0    0 -0.12505793727E+02 -0.21242118811E+02 -0.32334893742E+02  0.40659166760E+02  0.00000000000E+00 0. -1.
         11    1    3    3    0    0  0.86777801000E+00  0.46618618150E+01 -0.22454108956E+01  0.52467003543E+01  0.51100000000E-03 0. -1.
        -11    1    3    3    0    0 -0.30436610050E+01  0.29138545838E+01  0.20116682454E+02  0.20553231718E+02  0.51100000000E-03 0.  1.
        -12    1    3    3    0    0  0.14681676722E+02  0.13666402412E+02  0.14463622184E+02  0.24728901167E+02  0.00000000000E+00 0.  1.
</event>
<event>
 7    1  0.6245487E-013  0.5052886E+02  0.7816164E-02  0.1300439E+00
        -11   -1    0    0    0    0  0.00000000000E+00  0.00000000000E+00  0.45593999997E+02  0.45594000000E+02  0.51100000000E-03 0.  1.
         11   -1    0    0    0    0 -0.00000000000E+00 -0.00000000000E+00 -0.45593999997E+02  0.45594000000E+02  0.51100000000E-03 0. -1.
    9900012    2    1    2    0    0 -0.13742941410E+02 -0.35003764527E+02  0.15460721473E+02  0.50528857386E+02  0.29999992510E+02 0.  0.
         12    1    1    2    0    0  0.13742941410E+02  0.35003764527E+02 -0.15460721473E+02  0.40659142614E+02  0.00000000000E+00 0. -1.
         11    1    3    3    0    0 -0.12513280961E+02 -0.15002297227E+02 -0.53711407755E+01  0.20260806400E+02  0.51100000000E-03 0. -1.
        -11    1    3    3    0    0  0.17757481402E+01 -0.15433058278E+02  0.11058575456E+02  0.19068944928E+02  0.51100000000E-03 0.  1.
        -12    1    3    3    0    0 -0.30054085890E+01 -0.45684090214E+01  0.97732867917E+01  0.11199106058E+02  0.00000000000E+00 0.  1.
</event>
<event>
 7    1  0.6245487E-013  0.5052887E+02  0.7816164E-02  0.1300439E+00
        -11   -1    0    0    0    0  0.00000000000E+00  0.00000000000E+00  0.45593999997E+02  0.45594000000E+02  0.51100000000E-03 0.  1.
         11   -1    0    0    0    0 -0.00000000000E+00 -0.00000000000E+00 -0.45593999997E+02  0.45594000000E+02  0.51100000000E-03 0. -1.
    9900012    2    1    2    0    0 -0.17649359292E+02  0.32026983552E+02  0.17774628936E+02  0.50528868275E+02  0.30000025607E+02 0.  0.
         12    1    1    2    0    0  0.17649359292E+02 -0.32026983552E+02 -0.17774628936E+02  0.40659131725E+02  0.00000000000E+00 0. -1.
         11    1    3    3    0    0 -0.75865022786E+01  0.40500473716E+01  0.23122413584E+01  0.89052995960E+01  0.51100000000E-03 0. -1.
        -11    1    3    3    0    0  0.80185244304E+01  0.12175243191E+02  0.47861305312E+01  0.15344064863E+02  0.51100000000E-03 0.  1.
         12    1    3    3    0    0 -0.18081381444E+02  0.15801692989E+02  0.10676257047E+02  0.26279503815E+02  0.00000000000E+00 0. -1.
</event>
<event>
 7    1  0.6245487E-013  0.5052886E+02  0.7816164E-02  0.1300439E+00
        -11   -1    0    0    0    0  0.00000000000E+00  0.00000000000E+00  0.45593999997E+02  0.45594000000E+02  0.51100000000E-03 0.  1.
         11   -1    0    0    0    0 -0.00000000000E+00 -0.00000000000E+00 -0.45593999997E+02  0.45594000000E+02  0.51100000000E-03 0. -1.
    9900012    2    1    2    0    0 -0.10344983297E+02 -0.34450519934E+02  0.18955432302E+02  0.50528863058E+02  0.30000009750E+02 0.  0.
         12    1    1    2    0    0  0.10344983297E+02  0.34450519934E+02 -0.18955432302E+02  0.40659136942E+02  0.00000000000E+00 0. -1.
         11    1    3    3    0    0  0.16611664587E+01 -0.14186933190E+02 -0.32111739442E+01  0.14640361529E+02  0.51100000000E-03 0. -1.
        -11    1    3    3    0    0  0.26678687190E+01 -0.46579801337E+01  0.97472887725E+01  0.11127620640E+02  0.51100000000E-03 0.  1.
        -12    1    3    3    0    0 -0.14674018474E+02 -0.15605606610E+02  0.12419317473E+02  0.24760880888E+02  0.00000000000E+00 0.  1.
</event>
<event>
 7    1  0.6245487E-013  0.5052886E+02  0.7816164E-02  0.1300439E+00
        -11   -1    0    0    0    0  0.00000000000E+00  0.00000000000E+00  0.45593999997E+02  0.45594000000E+02  0.51100000000E-03 0.  1.
         11   -1    0    0    0    0 -0.00000000000E+00 -0.00000000000E+00 -0.45593999997E+02  0.45594000000E+02  0.51100000000E-03 0. -1.
    9900012    2    1    2    0    0 -0.95722233037E+01  0.13571453489E+02  0.37112719806E+02  0.50528858590E+02  0.29999996170E+02 0.  0.
         12    1    1    2    0    0  0.95722233037E+01 -0.13571453489E+02 -0.37112719806E+02  0.40659141410E+02  0.00000000000E+00 0. -1.
         11    1    3    3    0    0 -0.24476771304E+01 -0.25774584251E+01 -0.25235809399E+01  0.43592288640E+01  0.51100000000E-03 0. -1.
        -11    1    3    3    0    0 -0.38507631026E+01  0.10480978567E+02  0.76855886595E+01  0.13555351766E+02  0.51100000000E-03 0.  1.
        -12    1    3    3    0    0 -0.32737830707E+01  0.56679333475E+01  0.31950712087E+02  0.32614277960E+02  0.00000000000E+00 0.  1.
</event>
<event>
 7    1  0.6245487E-013  0.5052886E+02  0.7816164E-02  0.1300439E+00
        -11   -1    0    0    0    0  0.00000000000E+00  0.00000000000E+00  0.45593999997E+02  0.45594000000E+02  0.51100000000E-03 0.  1.
         11   -1    0    0    0    0 -0.00000000000E+00 -0.00000000000E+00 -0.45593999997E+02  0.45594000000E+02  0.51100000000E-03 0. -1.
    9900012    2    1    2    0    0  0.32672816489E+02 -0.23883605469E+02 -0.39020280014E+01  0.50528863634E+02  0.30000011501E+02 0.  0.
         12    1    1    2    0    0 -0.32672816489E+02  0.23883605469E+02  0.39020280014E+01  0.40659136366E+02  0.00000000000E+00 0. -1.
         11    1    3    3    0    0  0.11234521944E+02 -0.14109507626E+02 -0.69809336954E+01  0.19339755021E+02  0.51100000000E-03 0. -1.
        -11    1    3    3    0    0  0.21293686191E+01 -0.10894626407E+02  0.40673541054E+01  0.11822455961E+02  0.51100000000E-03 0.  1.
        -12    1    3    3    0    0  0.19308925926E+02  0.11205285640E+01 -0.98844841133E+00  0.19366652652E+02  0.00000000000E+00 0.  1.
</event>
<event>
 7    1  0.6245487E-013  0.5052886E+02  0.7816164E-02  0.1300439E+00
        -11   -1    0    0    0    0  0.00000000000E+00  0.00000000000E+00  0.45593999997E+02  0.45594000000E+02  0.51100000000E-03 0. -1.
         11   -1    0    0    0    0 -0.00000000000E+00 -0.00000000000E+00 -0.45593999997E+02  0.45594000000E+02  0.51100000000E-03 0.  1.
    9900012    2    1    2    0    0  0.33097688391E+02 -0.17239373050E+01 -0.23552845997E+02  0.50528862144E+02  0.30000006972E+02 0.  0.
         12    1    1    2    0    0 -0.33097688391E+02  0.17239373050E+01  0.23552845997E+02  0.40659137856E+02  0.00000000000E+00 0. -1.
         11    1    3    3    0    0  0.26121398746E+01  0.38977261455E+01 -0.23319437343E+00  0.46978637386E+01  0.51100000000E-03 0. -1.
        -11    1    3    3    0    0  0.21019377567E+01 -0.22242684766E+01 -0.16044223316E+02  0.16333481401E+02  0.51100000000E-03 0.  1.
         12    1    3    3    0    0  0.28383610760E+02 -0.33973949739E+01 -0.72754283073E+01  0.29497517005E+02  0.00000000000E+00 0. -1.
</event>
<event>
 7    1  0.6245487E-013  0.5052884E+02  0.7816164E-02  0.1300439E+00
        -11   -1    0    0    0    0  0.00000000000E+00  0.00000000000E+00  0.45593999997E+02  0.45594000000E+02  0.51100000000E-03 0.  1.
         11   -1    0    0    0    0 -0.00000000000E+00 -0.00000000000E+00 -0.45593999997E+02  0.45594000000E+02  0.51100000000E-03 0. -1.
    9900012    2    1    2    0    0  0.13516458746E+02 -0.13867304912E+02  0.35751506621E+02  0.50528843243E+02  0.29999949521E+02 0.  0.
         12    1    1    2    0    0 -0.13516458746E+02  0.13867304912E+02 -0.35751506621E+02  0.40659156757E+02  0.00000000000E+00 0. -1.
         11    1    3    3    0    0  0.12421202638E+02 -0.17470829774E+02  0.10592070136E+02  0.23910418608E+02  0.51100000000E-03 0. -1.
        -11    1    3    3    0    0  0.32412340461E+01 -0.10967404513E+01  0.80840898515E+01  0.87784364637E+01  0.51100000000E-03 0.  1.
        -12    1    3    3    0    0 -0.21459779383E+01  0.47002653132E+01  0.17075346633E+02  0.17839988172E+02  0.00000000000E+00 0.  1.
</event>
<event>
 7    1  0.6245487E-013  0.5052900E+02  0.7816164E-02  0.1300438E+00
        -11   -1    0    0    0    0  0.00000000000E+00  0.00000000000E+00  0.45593999997E+02  0.45594000000E+02  0.51100000000E-03 0.  1.
         11   -1    0    0    0    0 -0.00000000000E+00 -0.00000000000E+00 -0.45593999997E+02  0.45594000000E+02  0.51100000000E-03 0. -1.
    9900012    2    1    2    0    0  0.16618707393E+02 -0.51978408665E+00  0.37103948591E+02  0.50528995930E+02  0.30000413625E+02 0.  0.
         12    1    1    2    0    0 -0.16618707393E+02  0.51978408665E+00 -0.37103948591E+02  0.40659004070E+02  0.00000000000E+00 0. -1.
         11    1    3    3    0    0  0.23618125852E+01  0.71209348585E+00  0.13178443660E+02  0.13407334313E+02  0.51100000000E-03 0. -1.
        -11    1    3    3    0    0 -0.65758111965E+01 -0.34120918217E+01  0.69874836938E+01  0.10183741558E+02  0.51100000000E-03 0.  1.
         12    1    3    3    0    0  0.20832706004E+02  0.21802142492E+01  0.16938021237E+02  0.26937920059E+02  0.00000000000E+00 0. -1.
</event>
<event>
 7    1  0.6245487E-013  0.5052887E+02  0.7816164E-02  0.1300439E+00
        -11   -1    0    0    0    0  0.00000000000E+00  0.00000000000E+00  0.45593999997E+02  0.45594000000E+02  0.51100000000E-03 0.  1.
         11   -1    0    0    0    0 -0.00000000000E+00 -0.00000000000E+00 -0.45593999997E+02  0.45594000000E+02  0.51100000000E-03 0. -1.
    9900012    2    1    2    0    0 -0.17291997366E+02  0.15313318747E+02  0.33461234076E+02  0.50528867079E+02  0.30000021974E+02 0.  0.
         12    1    1    2    0    0  0.17291997366E+02 -0.15313318747E+02 -0.33461234076E+02  0.40659132921E+02  0.00000000000E+00 0. -1.
         11    1    3    3    0    0 -0.74377361467E+01  0.61964260583E+01  0.10730381266E+02  0.14451875216E+02  0.51100000000E-03 0. -1.
        -11    1    3    3    0    0 -0.91245365072E+01  0.17342542231E+02  0.17704235792E+02  0.26409485091E+02  0.51100000000E-03 0.  1.
         12    1    3    3    0    0 -0.72972471196E+00 -0.82256495426E+01  0.50266170188E+01  0.96675067730E+01  0.00000000000E+00 0. -1.
</event>
<event>
 7    1  0.6245487E-013  0.5052885E+02  0.7816164E-02  0.1300439E+00
        -11   -1    0    0    0    0  0.00000000000E+00  0.00000000000E+00  0.45593999997E+02  0.45594000000E+02  0.51100000000E-03 0. -1.
         11   -1    0    0    0    0 -0.00000000000E+00 -0.00000000000E+00 -0.45593999997E+02  0.45594000000E+02  0.51100000000E-03 0.  1.
    9900012    2    1    2    0    0 -0.15186101967E+02  0.36795426523E+02  0.82852539518E+01  0.50528849259E+02  0.29999967806E+02 0.  0.
         12    1    1    2    0    0  0.15186101967E+02 -0.36795426523E+02 -0.82852539518E+01  0.40659150741E+02  0.00000000000E+00 0. -1.
         11    1    3    3    0    0 -0.13702449210E+02  0.18330785407E+02  0.12446909387E+01  0.22919949036E+02  0.51100000000E-03 0. -1.
        -11    1    3    3    0    0 -0.66650999118E+01  0.15497161801E+02 -0.17736003745E+01  0.16962642461E+02  0.51100000000E-03 0.  1.
         12    1    3    3    0    0  0.51814471549E+01  0.29674793148E+01  0.88141633877E+01  0.10646257762E+02  0.00000000000E+00 0. -1.
</event>
<event>
 7    1  0.8635821E-013  0.5052886E+02  0.7816164E-02  0.1300439E+00
        -11   -1    0    0    0    0  0.00000000000E+00  0.00000000000E+00  0.45593999997E+02  0.45594000000E+02  0.51100000000E-03 0.  1.
         11   -1    0    0    0    0 -0.00000000000E+00 -0.00000000000E+00 -0.45593999997E+02  0.45594000000E+02  0.51100000000E-03 0. -1.
    9900012    2    1    2    0    0  0.14650037205E+02 -0.36209495779E+02  0.11287802690E+02  0.50528860015E+02  0.30000000503E+02 0.  0.
         12    1    1    2    0    0 -0.14650037205E+02  0.36209495779E+02 -0.11287802690E+02  0.40659139985E+02  0.00000000000E+00 0. -1.
         11    1    3    3    0    0 -0.43206103606E+01 -0.16741045004E+01 -0.12546761415E+01  0.48004700028E+01  0.51100000000E-03 0. -1.
        -11    1    3    3    0    0  0.75040842698E+01 -0.87280391118E-01  0.68974766966E+00  0.75362225753E+01  0.51100000000E-03 0.  1.
        -12    1    3    3    0    0  0.11466563296E+02 -0.34448110888E+02  0.11852731162E+02  0.38192167437E+02  0.00000000000E+00 0.  1.
</event>
<event>
 7    1  0.6245487E-013  0.5052886E+02  0.7816164E-02  0.1300439E+00
        -11   -1    0    0    0    0  0.00000000000E+00  0.00000000000E+00  0.45593999997E+02  0.45594000000E+02  0.51100000000E-03 0.  1.
         11   -1    0    0    0    0 -0.00000000000E+00 -0.00000000000E+00 -0.45593999997E+02  0.45594000000E+02  0.51100000000E-03 0. -1.
    9900012    2    1    2    0    0 -0.12896589332E+02 -0.16260176675E+02  0.34963552444E+02  0.50528863740E+02  0.30000011825E+02 0.  0.
         12    1    1    2    0    0  0.12896589332E+02  0.16260176675E+02 -0.34963552444E+02  0.40659136260E+02  0.00000000000E+00 0. -1.
         11    1    3    3    0    0  0.19652981442E+01  0.56248944223E+01  0.61356027030E+01  0.85526285345E+01  0.51100000000E-03 0. -1.
        -11    1    3    3    0    0 -0.49796032229E+01 -0.12971499306E+02  0.24164773862E+02  0.27874585890E+02  0.51100000000E-03 0.  1.
        -12    1    3    3    0    0 -0.98822842536E+01 -0.89135717911E+01  0.46631758787E+01  0.14101649316E+02  0.00000000000E+00 0.  1.
</event>
<event>
 7    1  0.6245487E-013  0.5052887E+02  0.7816164E-02  0.1300439E+00
        -11   -1    0    0    0    0  0.00000000000E+00  0.00000000000E+00  0.45593999997E+02  0.45594000000E+02  0.51100000000E-03 0.  1.
         11   -1    0    0    0    0 -0.00000000000E+00 -0.00000000000E+00 -0.45593999997E+02  0.45594000000E+02  0.51100000000E-03 0. -1.
    9900012    2    1    2    0    0  0.16796342128E+02  0.29062087628E+02  0.22944350178E+02  0.50528865094E+02  0.30000015941E+02 0.  0.
         12    1    1    2    0    0 -0.16796342128E+02 -0.29062087628E+02 -0.22944350178E+02  0.40659134906E+02  0.00000000000E+00 0. -1.
         11    1    3    3    0    0  0.33486385471E+01  0.14533489585E+02  0.30883511214E+01  0.15230679977E+02  0.51100000000E-03 0. -1.
        -11    1    3    3    0    0  0.32429341961E+01  0.16873997770E+02  0.17580474533E+02  0.24582951572E+02  0.51100000000E-03 0.  1.
         12    1    3    3    0    0  0.10204769385E+02 -0.23453997273E+01  0.22755245242E+01  0.10715233546E+02  0.00000000000E+00 0. -1.
</event>
<event>
 7    1  0.6245487E-013  0.5052887E+02  0.7816164E-02  0.1300439E+00
        -11   -1    0    0    0    0  0.00000000000E+00  0.00000000000E+00  0.45593999997E+02  0.45594000000E+02  0.51100000000E-03 0. -1.
         11   -1    0    0    0    0 -0.00000000000E+00 -0.00000000000E+00 -0.45593999997E+02  0.45594000000E+02  0.51100000000E-03 0.  1.
    9900012    2    1    2    0    0  0.36700541483E+01  0.35739757707E+02 -0.19035904878E+02  0.50528865074E+02  0.30000015880E+02 0.  0.
         12    1    1    2    0    0 -0.36700541483E+01 -0.35739757707E+02  0.19035904878E+02  0.40659134926E+02  0.00000000000E+00 0. -1.
         11    1    3    3    0    0  0.70232694296E+01  0.18702781066E+02 -0.19721808169E+02  0.28072585396E+02  0.51100000000E-03 0. -1.
        -11    1    3    3    0    0 -0.26654452354E+01  0.14896493877E+02 -0.53218873340E+01  0.16041590108E+02  0.51100000000E-03 0.  1.
         12    1    3    3    0    0 -0.68777004591E+00  0.21404827634E+01  0.60077906250E+01  0.64146895708E+01  0.00000000000E+00 0. -1.
</event>
<event>
 7    1  0.6245487E-013  0.5052886E+02  0.7816164E-02  0.1300439E+00
        -11   -1    0    0    0    0  0.00000000000E+00  0.00000000000E+00  0.45593999997E+02  0.45594000000E+02  0.51100000000E-03 0.  1.
         11   -1    0    0    0    0 -0.00000000000E+00 -0.00000000000E+00 -0.45593999997E+02  0.45594000000E+02  0.51100000000E-03 0. -1.
    9900012    2    1    2    0    0  0.22569782584E+02 -0.47156645526E+01  0.33489297586E+02  0.50528860426E+02  0.30000001752E+02 0.  0.
         12    1    1    2    0    0 -0.22569782584E+02  0.47156645526E+01 -0.33489297586E+02  0.40659139574E+02  0.00000000000E+00 0. -1.
         11    1    3    3    0    0  0.85910005222E+01 -0.58579346342E+01  0.13992647822E+02  0.17433154662E+02  0.51100000000E-03 0. -1.
        -11    1    3    3    0    0  0.56833401136E+01 -0.54603963448E+01 -0.28343993927E+01  0.83755658476E+01  0.51100000000E-03 0.  1.
         12    1    3    3    0    0  0.82954419482E+01  0.66026664263E+01  0.22331049157E+02  0.24720139916E+02  0.00000000000E+00 0. -1.
</event>
<event>
 7    1  0.6245487E-013  0.5052885E+02  0.7816164E-02  0.1300439E+00
        -11   -1    0    0    0    0  0.00000000000E+00  0.00000000000E+00  0.45593999997E+02  0.45594000000E+02  0.51100000000E-03 0.  1.
         11   -1    0    0    0    0 -0.00000000000E+00 -0.00000000000E+00 -0.45593999997E+02  0.45594000000E+02  0.51100000000E-03 0. -1.
    9900012    2    1    2    0    0 -0.65213092711E+01  0.22080405529E+02  0.33512601939E+02  0.50528852546E+02  0.29999977800E+02 0.  0.
         12    1    1    2    0    0  0.65213092711E+01 -0.22080405529E+02 -0.33512601939E+02  0.40659147454E+02  0.00000000000E+00 0. -1.
         11    1    3    3    0    0 -0.98781759240E+01  0.20844199437E+01  0.84982429551E+01  0.13196336600E+02  0.51100000000E-03 0. -1.
        -11    1    3    3    0    0  0.39718085962E+01 -0.98907227730E+00 -0.68290620464E+00  0.41496853664E+01  0.51100000000E-03 0.  1.
         12    1    3    3    0    0 -0.61494194341E+00  0.20985057862E+02  0.25697265189E+02  0.33182830579E+02  0.00000000000E+00 0. -1.
</event>
<event>
 7    1  0.6245487E-013  0.5052884E+02  0.7816164E-02  0.1300439E+00
        -11   -1    0    0    0    0  0.00000000000E+00  0.00000000000E+00  0.45593999997E+02  0.45594000000E+02  0.51100000000E-03 0.  1.
         11   -1    0    0    0    0 -0.00000000000E+00 -0.00000000000E+00 -0.45593999997E+02  0.45594000000E+02  0.51100000000E-03 0. -1.
    9900012    2    1    2    0    0  0.29089979714E+02 -0.54710579036E+01  0.27874863562E+02  0.50528838511E+02  0.29999935139E+02 0.  0.
         12    1    1    2    0    0 -0.29089979714E+02  0.54710579036E+01 -0.27874863562E+02  0.40659161489E+02  0.00000000000E+00 0. -1.
         11    1    3    3    0    0  0.10796789545E+02 -0.13317452199E+02  0.69981411324E+01  0.18517537016E+02  0.51100000000E-03 0. -1.
        -11    1    3    3    0    0  0.86454860757E+01 -0.12563754019E+01  0.15308172861E+02  0.17625636591E+02  0.51100000000E-03 0.  1.
        -12    1    3    3    0    0  0.96477040931E+01  0.91027696977E+01  0.55685495682E+01  0.14385664904E+02  0.00000000000E+00 0.  1.
</event>
<event>
 7    1  0.6245487E-013  0.5052886E+02  0.7816164E-02  0.1300439E+00
        -11   -1    0    0    0    0  0.00000000000E+00  0.00000000000E+00  0.45593999997E+02  0.45594000000E+02  0.51100000000E-03 0.  1.
         11   -1    0    0    0    0 -0.00000000000E+00 -0.00000000000E+00 -0.45593999997E+02  0.45594000000E+02  0.51100000000E-03 0. -1.
    9900012    2    1    2    0    0 -0.19511339443E+02 -0.35458238029E+02 -0.38969868998E+01  0.50528861816E+02  0.30000005976E+02 0.  0.
         12    1    1    2    0    0  0.19511339443E+02  0.35458238029E+02  0.38969868998E+01  0.40659138184E+02  0.00000000000E+00 0. -1.
         11    1    3    3    0    0 -0.37879544032E+01 -0.79843835037E+01  0.30680848965E+01  0.93547914829E+01  0.51100000000E-03 0. -1.
        -11    1    3    3    0    0 -0.20390981746E+02 -0.11009421026E+02 -0.64453886617E+01  0.24052910908E+02  0.51100000000E-03 0.  1.
         12    1    3    3    0    0  0.46675967070E+01 -0.16464433500E+02 -0.51968313463E+00  0.17121159425E+02  0.00000000000E+00 0. -1.
</event>
<event>
 7    1  0.6245487E-013  0.5052886E+02  0.7816164E-02  0.1300439E+00
        -11   -1    0    0    0    0  0.00000000000E+00  0.00000000000E+00  0.45593999997E+02  0.45594000000E+02  0.51100000000E-03 0.  1.
         11   -1    0    0    0    0 -0.00000000000E+00 -0.00000000000E+00 -0.45593999997E+02  0.45594000000E+02  0.51100000000E-03 0. -1.
    9900012    2    1    2    0    0 -0.10402896130E+02  0.43600702378E+01  0.39063217468E+02  0.50528863028E+02  0.30000009660E+02 0.  0.
         12    1    1    2    0    0  0.10402896130E+02 -0.43600702378E+01 -0.39063217468E+02  0.40659136972E+02  0.00000000000E+00 0. -1.
         11    1    3    3    0    0  0.19590878347E+01  0.65382346471E+00  0.30486257185E+00  0.20876905221E+01  0.51100000000E-03 0. -1.
        -11    1    3    3    0    0 -0.85349611072E+01  0.14027348152E+02  0.30643934272E+02  0.34765827549E+02  0.51100000000E-03 0.  1.
         12    1    3    3    0    0 -0.38270228579E+01 -0.10321101378E+02  0.81144206242E+01  0.13675344957E+02  0.00000000000E+00 0. -1.
</event>
<event>
 7    1  0.6245487E-013  0.5052888E+02  0.7816164E-02  0.1300439E+00
        -11   -1    0    0    0    0  0.00000000000E+00  0.00000000000E+00  0.45593999997E+02  0.45594000000E+02  0.51100000000E-03 0.  1.
         11   -1    0    0    0    0 -0.00000000000E+00 -0.00000000000E+00 -0.45593999997E+02  0.45594000000E+02  0.51100000000E-03 0. -1.
    9900012    2    1    2    0    0  0.12385134378E+02 -0.19153644196E+02  0.33658738405E+02  0.50528876662E+02  0.30000051103E+02 0.  0.
         12    1    1    2    0    0 -0.12385134378E+02  0.19153644196E+02 -0.33658738405E+02  0.40659123338E+02  0.00000000000E+00 0. -1.
         11    1    3    3    0    0 -0.67397865300E+00 -0.96528371310E+01  0.61779449929E+01  0.11480353501E+02  0.51100000000E-03 0.  1.
        -11    1    3    3    0    0  0.41164115551E+01 -0.17657631611E+01 -0.36307971001E+01  0.57658868767E+01  0.51100000000E-03 0. -1.
         12    1    3    3    0    0  0.89427014763E+01 -0.77350439039E+01  0.31111590512E+02  0.33282636285E+02  0.00000000000E+00 0. -1.
</event>
<event>
 7    1  0.6245487E-013  0.5052885E+02  0.7816164E-02  0.1300439E+00
        -11   -1    0    0    0    0  0.00000000000E+00  0.00000000000E+00  0.45593999997E+02  0.45594000000E+02  0.51100000000E-03 0. -1.
         11   -1    0    0    0    0 -0.00000000000E+00 -0.00000000000E+00 -0.45593999997E+02  0.45594000000E+02  0.51100000000E-03 0.  1.
    9900012    2    1    2    0    0  0.15502108832E+02 -0.24767400987E+02 -0.28274143464E+02  0.50528847051E+02  0.29999961096E+02 0.  0.
         12    1    1    2    0    0 -0.15502108832E+02  0.24767400987E+02  0.28274143464E+02  0.40659152949E+02  0.00000000000E+00 0. -1.
         11    1    3    3    0    0  0.61661182604E+01 -0.12744656251E+02 -0.37531939829E+01  0.14646970427E+02  0.51100000000E-03 0. -1.
        -11    1    3    3    0    0  0.14309752027E+02 -0.14552184393E+02 -0.21001025615E+02  0.29284435300E+02  0.51100000000E-03 0.  1.
         12    1    3    3    0    0 -0.49737614559E+01  0.25294396565E+01 -0.35199238660E+01  0.65974413236E+01  0.00000000000E+00 0. -1.
</event>
<event>
 7    1  0.6245487E-013  0.5052887E+02  0.7816164E-02  0.1300439E+00
        -11   -1    0    0    0    0  0.00000000000E+00  0.00000000000E+00  0.45593999997E+02  0.45594000000E+02  0.51100000000E-03 0.  1.
         11   -1    0    0    0    0 -0.00000000000E+00 -0.00000000000E+00 -0.45593999997E+02  0.45594000000E+02  0.51100000000E-03 0. -1.
    9900012    2    1    2    0    0 -0.16006548114E+02  0.24150249071E+02  0.28525796897E+02  0.50528865709E+02  0.30000017809E+02 0.  0.
         12    1    1    2    0    0  0.16006548114E+02 -0.24150249071E+02 -0.28525796897E+02  0.40659134291E+02  0.00000000000E+00 0. -1.
         11    1    3    3    0    0 -0.39477398543E+01  0.18526515825E+02  0.37944699082E+01  0.19318758778E+02  0.51100000000E-03 0. -1.
        -11    1    3    3    0    0  0.16184134192E+01  0.38223486424E+01  0.10950502727E+02  0.11710812157E+02  0.51100000000E-03 0.  1.
        -12    1    3    3    0    0 -0.13677221679E+02  0.18013846029E+01  0.13780824261E+02  0.19499294774E+02  0.00000000000E+00 0.  1.
</event>
<event>
 7    1  0.6245487E-013  0.5052886E+02  0.7816164E-02  0.1300439E+00
        -11   -1    0    0    0    0  0.00000000000E+00  0.00000000000E+00  0.45593999997E+02  0.45594000000E+02  0.51100000000E-03 0.  1.
         11   -1    0    0    0    0 -0.00000000000E+00 -0.00000000000E+00 -0.45593999997E+02  0.45594000000E+02  0.51100000000E-03 0. -1.
    9900012    2    1    2    0    0  0.13929574957E+02 -0.42969007242E+01  0.37956152308E+02  0.50528856965E+02  0.29999991231E+02 0.  0.
         12    1    1    2    0    0 -0.13929574957E+02  0.42969007242E+01 -0.37956152308E+02  0.40659143035E+02  0.00000000000E+00 0. -1.
         11    1    3    3    0    0  0.50974816804E+01  0.65500993291E+01  0.10279119203E+02  0.13211677129E+02  0.51100000000E-03 0. -1.
        -11    1    3    3    0    0  0.13143827628E+02 -0.13510383321E+01  0.92013233134E+01  0.16101237849E+02  0.51100000000E-03 0.  1.
         12    1    3    3    0    0 -0.43117343510E+01 -0.94959617212E+01  0.18475709791E+02  0.21215941987E+02  0.00000000000E+00 0. -1.
</event>
<event>
 7    1  0.6245487E-013  0.5052886E+02  0.7816164E-02  0.1300439E+00
        -11   -1    0    0    0    0  0.00000000000E+00  0.00000000000E+00  0.45593999997E+02  0.45594000000E+02  0.51100000000E-03 0.  1.
         11   -1    0    0    0    0 -0.00000000000E+00 -0.00000000000E+00 -0.45593999997E+02  0.45594000000E+02  0.51100000000E-03 0. -1.
    9900012    2    1    2    0    0 -0.34444035060E+02  0.39003508548E+01  0.21249975077E+02  0.50528859223E+02  0.29999998093E+02 0.  0.
         12    1    1    2    0    0  0.34444035060E+02 -0.39003508548E+01 -0.21249975077E+02  0.40659140777E+02  0.00000000000E+00 0. -1.
         11    1    3    3    0    0 -0.29237645952E+01 -0.37929130865E+01 -0.12266495511E+00  0.47905778401E+01  0.51100000000E-03 0. -1.
        -11    1    3    3    0    0 -0.23396524674E+02 -0.67459961310E+00  0.24273573831E+02  0.33720303057E+02  0.51100000000E-03 0.  1.
         12    1    3    3    0    0 -0.81237457906E+01  0.83678635544E+01 -0.29009337990E+01  0.12017978326E+02  0.00000000000E+00 0. -1.
</event>
<event>
 7    1  0.9600769E-013  0.5052885E+02  0.7816164E-02  0.1300439E+00
        -11   -1    0    0    0    0  0.00000000000E+00  0.00000000000E+00  0.45593999997E+02  0.45594000000E+02  0.51100000000E-03 0. -1.
         11   -1    0    0    0    0 -0.00000000000E+00 -0.00000000000E+00 -0.45593999997E+02  0.45594000000E+02  0.51100000000E-03 0.  1.
    9900012    2    1    2    0    0 -0.22019798258E+02 -0.30468521686E+02 -0.15490771059E+02  0.50528851988E+02  0.29999976103E+02 0.  0.
         12    1    1    2    0    0  0.22019798258E+02  0.30468521686E+02  0.15490771059E+02  0.40659148012E+02  0.00000000000E+00 0. -1.
         11    1    3    3    0    0 -0.35292451384E+01 -0.43692374842E+01  0.58550024342E+01  0.81133754508E+01  0.51100000000E-03 0. -1.
        -11    1    3    3    0    0  0.17615221941E+00 -0.58430046646E+01 -0.11964418467E+02  0.13316119654E+02  0.51100000000E-03 0.  1.
        -12    1    3    3    0    0 -0.18666705339E+02 -0.20256279537E+02 -0.93813550262E+01  0.29099356883E+02  0.00000000000E+00 0.  1.
</event>
<event>
 7    1  0.6245487E-013  0.5052886E+02  0.7816164E-02  0.1300439E+00
        -11   -1    0    0    0    0  0.00000000000E+00  0.00000000000E+00  0.45593999997E+02  0.45594000000E+02  0.51100000000E-03 0.  1.
         11   -1    0    0    0    0 -0.00000000000E+00 -0.00000000000E+00 -0.45593999997E+02  0.45594000000E+02  0.51100000000E-03 0. -1.
    9900012    2    1    2    0    0 -0.21288143319E+02 -0.11073847303E+01 -0.34623027202E+02  0.50528863763E+02  0.30000011894E+02 0.  0.
         12    1    1    2    0    0  0.21288143319E+02  0.11073847303E+01  0.34623027202E+02  0.40659136237E+02  0.00000000000E+00 0. -1.
         11    1    3    3    0    0 -0.47642192432E+01  0.17443361639E+01 -0.81127602470E+01  0.95685616859E+01  0.51100000000E-03 0. -1.
        -11    1    3    3    0    0 -0.17864260212E+02 -0.11735888394E+02 -0.13974362536E+02  0.25537143104E+02  0.51100000000E-03 0.  1.
         12    1    3    3    0    0  0.13403361365E+01  0.88841674999E+01 -0.12535904419E+02  0.15423158973E+02  0.00000000000E+00 0. -1.
</event>
<event>
 7    1  0.6245487E-013  0.5052885E+02  0.7816164E-02  0.1300439E+00
        -11   -1    0    0    0    0  0.00000000000E+00  0.00000000000E+00  0.45593999997E+02  0.45594000000E+02  0.51100000000E-03 0.  1.
         11   -1    0    0    0    0 -0.00000000000E+00 -0.00000000000E+00 -0.45593999997E+02  0.45594000000E+02  0.51100000000E-03 0. -1.
    9900012    2    1    2    0    0  0.13824671401E+02 -0.37300139280E+02  0.84109626531E+01  0.50528853152E+02  0.29999979641E+02 0.  0.
         12    1    1    2    0    0 -0.13824671401E+02  0.37300139280E+02 -0.84109626531E+01  0.40659146848E+02  0.00000000000E+00 0. -1.
         11    1    3    3    0    0  0.17372598135E+02 -0.18874988726E+02  0.40645706245E+00  0.25656141038E+02  0.51100000000E-03 0. -1.
        -11    1    3    3    0    0  0.44251486950E+01 -0.12362487456E+02  0.67922019525E+01  0.14783336724E+02  0.51100000000E-03 0.  1.
         12    1    3    3    0    0 -0.79730754294E+01 -0.60626630977E+01  0.12123036381E+01  0.10089375389E+02  0.00000000000E+00 0. -1.
</event>
<event>
 7    1  0.1817542E-012  0.5052890E+02  0.7816164E-02  0.1300439E+00
        -11   -1    0    0    0    0  0.00000000000E+00  0.00000000000E+00  0.45593999997E+02  0.45594000000E+02  0.51100000000E-03 0. -1.
         11   -1    0    0    0    0 -0.00000000000E+00 -0.00000000000E+00 -0.45593999997E+02  0.45594000000E+02  0.51100000000E-03 0.  1.
    9900012    2    1    2    0    0  0.81418821455E-01  0.40490279954E+02  0.37003663925E+01  0.50528903709E+02  0.30000133312E+02 0.  0.
         12    1    1    2    0    0 -0.81418821455E-01 -0.40490279954E+02 -0.37003663925E+01  0.40659096291E+02  0.00000000000E+00 0. -1.
         11    1    3    3    0    0  0.94791155703E+00 -0.23633905949E+00  0.43716054534E+01  0.44794337781E+01  0.51100000000E-03 0. -1.
        -11    1    3    3    0    0  0.20113585372E+00  0.30480691713E+01 -0.71755799761E+01  0.77987261497E+01  0.51100000000E-03 0.  1.
        -12    1    3    3    0    0 -0.10676285893E+01  0.37678549842E+02  0.65043409152E+01  0.38250743781E+02  0.00000000000E+00 0.  1.
</event>
<event>
 7    1  0.6245487E-013  0.5052883E+02  0.7816164E-02  0.1300439E+00
        -11   -1    0    0    0    0  0.00000000000E+00  0.00000000000E+00  0.45593999997E+02  0.45594000000E+02  0.51100000000E-03 0. -1.
         11   -1    0    0    0    0 -0.00000000000E+00 -0.00000000000E+00 -0.45593999997E+02  0.45594000000E+02  0.51100000000E-03 0.  1.
    9900012    2    1    2    0    0 -0.10009178059E+02  0.35558031427E+02 -0.16988551528E+02  0.50528829726E+02  0.29999908435E+02 0.  0.
         12    1    1    2    0    0  0.10009178059E+02 -0.35558031427E+02  0.16988551528E+02  0.40659170274E+02  0.00000000000E+00 0. -1.
         11    1    3    3    0    0  0.25908913897E+01 -0.15311166219E+01 -0.70350516153E+01  0.76517310325E+01  0.51100000000E-03 0.  1.
        -11    1    3    3    0    0  0.84886729953E+00 -0.80772533593E+00 -0.12884713033E+01  0.17415953810E+01  0.51100000000E-03 0. -1.
         12    1    3    3    0    0 -0.13448936748E+02  0.37896873384E+02 -0.86650286093E+01  0.41135503313E+02  0.00000000000E+00 0. -1.
</event>
<event>
 7    1  0.6245487E-013  0.5052886E+02  0.7816164E-02  0.1300439E+00
        -11   -1    0    0    0    0  0.00000000000E+00  0.00000000000E+00  0.45593999997E+02  0.45594000000E+02  0.51100000000E-03 0.  1.
         11   -1    0    0    0    0 -0.00000000000E+00 -0.00000000000E+00 -0.45593999997E+02  0.45594000000E+02  0.51100000000E-03 0. -1.
    9900012    2    1    2    0    0 -0.70813196026E+00 -0.10768505341E+02  0.39200808730E+02  0.50528861258E+02  0.30000004279E+02 0.  0.
         12    1    1    2    0    0  0.70813196026E+00  0.10768505341E+02 -0.39200808730E+02  0.40659138742E+02  0.00000000000E+00 0. -1.
         11    1    3    3    0    0 -0.48414872140E+01  0.12679456844E+01  0.12802355745E+02  0.13745835645E+02  0.51100000000E-03 0. -1.
        -11    1    3    3    0    0  0.27463324161E+00 -0.17305990177E+02  0.12264519689E+02  0.21212995142E+02  0.51100000000E-03 0.  1.
         12    1    3    3    0    0  0.38587220122E+01  0.52695391515E+01  0.14133933296E+02  0.15570030471E+02  0.00000000000E+00 0. -1.
</event>
<event>
 7    1  0.6245487E-013  0.5052886E+02  0.7816164E-02  0.1300439E+00
        -11   -1    0    0    0    0  0.00000000000E+00  0.00000000000E+00  0.45593999997E+02  0.45594000000E+02  0.51100000000E-03 0.  1.
         11   -1    0    0    0    0 -0.00000000000E+00 -0.00000000000E+00 -0.45593999997E+02  0.45594000000E+02  0.51100000000E-03 0. -1.
    9900012    2    1    2    0    0 -0.19168140565E+01  0.38479694128E+02 -0.12992497494E+02  0.50528855549E+02  0.29999986927E+02 0.  0.
         12    1    1    2    0    0  0.19168140565E+01 -0.38479694128E+02  0.12992497494E+02  0.40659144451E+02  0.00000000000E+00 0. -1.
         11    1    3    3    0    0 -0.44704355517E+00  0.38781852650E+01  0.57533990576E+01  0.69528245963E+01  0.51100000000E-03 0. -1.
        -11    1    3    3    0    0  0.29382387797E+01  0.18305365774E+02 -0.25987627301E+00  0.18541499378E+02  0.51100000000E-03 0.  1.
         12    1    3    3    0    0 -0.44080092810E+01  0.16296143090E+02 -0.18486020279E+02  0.25034531575E+02  0.00000000000E+00 0. -1.
</event>
<event>
 7    1  0.6245487E-013  0.5052886E+02  0.7816164E-02  0.1300439E+00
        -11   -1    0    0    0    0  0.00000000000E+00  0.00000000000E+00  0.45593999997E+02  0.45594000000E+02  0.51100000000E-03 0. -1.
         11   -1    0    0    0    0 -0.00000000000E+00 -0.00000000000E+00 -0.45593999997E+02  0.45594000000E+02  0.51100000000E-03 0.  1.
    9900012    2    1    2    0    0  0.14399521489E+02  0.90612279313E+01 -0.36928494116E+02  0.50528858981E+02  0.29999997359E+02 0.  0.
         12    1    1    2    0    0 -0.14399521489E+02 -0.90612279313E+01  0.36928494116E+02  0.40659141019E+02  0.00000000000E+00 0. -1.
         11    1    3    3    0    0 -0.59358473310E+01  0.34426344082E+01 -0.14307072887E+02  0.15867525013E+02  0.51100000000E-03 0. -1.
        -11    1    3    3    0    0  0.72707227970E+01  0.13877957459E+01 -0.19100423495E+02  0.20484520130E+02  0.51100000000E-03 0.  1.
        -12    1    3    3    0    0  0.13064646023E+02  0.42307977772E+01 -0.35209977342E+01  0.14176813837E+02  0.00000000000E+00 0.  1.
</event>
<event>
 7    1  0.6245487E-013  0.5052886E+02  0.7816164E-02  0.1300439E+00
        -11   -1    0    0    0    0  0.00000000000E+00  0.00000000000E+00  0.45593999997E+02  0.45594000000E+02  0.51100000000E-03 0. -1.
         11   -1    0    0    0    0 -0.00000000000E+00 -0.00000000000E+00 -0.45593999997E+02  0.45594000000E+02  0.51100000000E-03 0.  1.
    9900012    2    1    2    0    0  0.30915931800E+02  0.56825454459E+01 -0.25789138431E+02  0.50528858066E+02  0.29999994577E+02 0.  0.
         12    1    1    2    0    0 -0.30915931800E+02 -0.56825454459E+01  0.25789138431E+02  0.40659141934E+02  0.00000000000E+00 0. -1.
         11    1    3    3    0    0 -0.30882702667E+01  0.17801619796E+01  0.12264924452E+01  0.37697047488E+01  0.51100000000E-03 0. -1.
        -11    1    3    3    0    0  0.18020246662E+02 -0.41089601417E+01 -0.20811616655E+02  0.27834083984E+02  0.51100000000E-03 0.  1.
        -12    1    3    3    0    0  0.15983955405E+02  0.80113436079E+01 -0.62040142220E+01  0.18925069333E+02  0.00000000000E+00 0.  1.
</event>
<event>
 7    1  0.6245487E-013  0.5052886E+02  0.7816164E-02  0.1300439E+00
        -11   -1    0    0    0    0  0.00000000000E+00  0.00000000000E+00  0.45593999997E+02  0.45594000000E+02  0.51100000000E-03 0.  1.
         11   -1    0    0    0    0 -0.00000000000E+00 -0.00000000000E+00 -0.45593999997E+02  0.45594000000E+02  0.51100000000E-03 0. -1.
    9900012    2    1    2    0    0  0.27473020216E+02  0.19918209235E+02  0.22397853459E+02  0.50528859103E+02  0.29999997730E+02 0.  0.
         12    1    1    2    0    0 -0.27473020216E+02 -0.19918209235E+02 -0.22397853459E+02  0.40659140897E+02  0.00000000000E+00 0. -1.
         11    1    3    3    0    0  0.12447387839E+02  0.71049062673E+01  0.92281413651E-01  0.14332678508E+02  0.51100000000E-03 0. -1.
        -11    1    3    3    0    0  0.96793199664E+01 -0.42337531573E+01  0.70267537433E+01  0.12688150741E+02  0.51100000000E-03 0.  1.
        -12    1    3    3    0    0  0.53463124102E+01  0.17047056125E+02  0.15278818302E+02  0.23508029854E+02  0.00000000000E+00 0.  1.
</event>
<event>
 7    1  0.6245487E-013  0.5052886E+02  0.7816164E-02  0.1300439E+00
        -11   -1    0    0    0    0  0.00000000000E+00  0.00000000000E+00  0.45593999997E+02  0.45594000000E+02  0.51100000000E-03 0.  1.
         11   -1    0    0    0    0 -0.00000000000E+00 -0.00000000000E+00 -0.45593999997E+02  0.45594000000E+02  0.51100000000E-03 0. -1.
    9900012    2    1    2    0    0  0.32604819001E+02 -0.17496270730E+02  0.16851464670E+02  0.50528861137E+02  0.30000003913E+02 0.  0.
         12    1    1    2    0    0 -0.32604819001E+02  0.17496270730E+02 -0.16851464670E+02  0.40659138863E+02  0.00000000000E+00 0. -1.
         11    1    3    3    0    0  0.26959317439E+02 -0.97077045676E+01  0.15666424310E+02  0.32657023374E+02  0.51100000000E-03 0.  1.
        -11    1    3    3    0    0  0.55970873526E+01 -0.26458621335E+01  0.75016087194E+01  0.97263614421E+01  0.51100000000E-03 0. -1.
         12    1    3    3    0    0  0.48414208749E-01 -0.51427040288E+01 -0.63165683589E+01  0.81454763210E+01  0.00000000000E+00 0. -1.
</event>
<event>
 7    1  0.6245487E-013  0.5052886E+02  0.7816164E-02  0.1300439E+00
        -11   -1    0    0    0    0  0.00000000000E+00  0.00000000000E+00  0.45593999997E+02  0.45594000000E+02  0.51100000000E-03 0.  1.
         11   -1    0    0    0    0 -0.00000000000E+00 -0.00000000000E+00 -0.45593999997E+02  0.45594000000E+02  0.51100000000E-03 0. -1.
    9900012    2    1    2    0    0 -0.13402883905E+02  0.82628125488E+01  0.37486723817E+02  0.50528857969E+02  0.29999994283E+02 0.  0.
         12    1    1    2    0    0  0.13402883905E+02 -0.82628125488E+01 -0.37486723817E+02  0.40659142031E+02  0.00000000000E+00 0. -1.
         11    1    3    3    0    0 -0.30307449056E-01  0.40975826751E+01  0.13511453665E+01  0.43147069870E+01  0.51100000000E-03 0. -1.
        -11    1    3    3    0    0  0.57015339686E+01 -0.37042404541E+01  0.15995596109E+02  0.17380678413E+02  0.51100000000E-03 0.  1.
        -12    1    3    3    0    0 -0.19074110424E+02  0.78694703278E+01  0.20139982341E+02  0.28833472570E+02  0.00000000000E+00 0.  1.
</event>
<event>
 7    1  0.6245487E-013  0.5052875E+02  0.7816164E-02  0.1300439E+00
        -11   -1    0    0    0    0  0.00000000000E+00  0.00000000000E+00  0.45593999997E+02  0.45594000000E+02  0.51100000000E-03 0. -1.
         11   -1    0    0    0    0 -0.00000000000E+00 -0.00000000000E+00 -0.45593999997E+02  0.45594000000E+02  0.51100000000E-03 0.  1.
    9900012    2    1    2    0    0 -0.22842522698E+02  0.33596459982E+02 -0.16344279214E+01  0.50528753559E+02  0.29999676916E+02 0.  0.
         12    1    1    2    0    0  0.22842522698E+02 -0.33596459982E+02  0.16344279214E+01  0.40659246441E+02  0.00000000000E+00 0. -1.
         11    1    3    3    0    0  0.38561053614E+01 -0.11206506632E+01  0.33348559741E+01  0.52198343936E+01  0.51100000000E-03 0. -1.
        -11    1    3    3    0    0 -0.14378465793E+02  0.10918815050E+02 -0.29599795853E-02  0.18054384777E+02  0.51100000000E-03 0.  1.
        -12    1    3    3    0    0 -0.12320162267E+02  0.23798295595E+02 -0.49663239159E+01  0.27254534389E+02  0.00000000000E+00 0.  1.
</event>
<event>
 7    1  0.6245487E-013  0.5052886E+02  0.7816164E-02  0.1300439E+00
        -11   -1    0    0    0    0  0.00000000000E+00  0.00000000000E+00  0.45593999997E+02  0.45594000000E+02  0.51100000000E-03 0.  1.
         11   -1    0    0    0    0 -0.00000000000E+00 -0.00000000000E+00 -0.45593999997E+02  0.45594000000E+02  0.51100000000E-03 0. -1.
    9900012    2    1    2    0    0  0.34324610298E+02 -0.10113188717E+02  0.19305704878E+02  0.50528859589E+02  0.29999999206E+02 0.  0.
         12    1    1    2    0    0 -0.34324610298E+02  0.10113188717E+02 -0.19305704878E+02  0.40659140411E+02  0.00000000000E+00 0. -1.
         11    1    3    3    0    0  0.27085925751E+02 -0.12042567219E+02  0.15396274890E+02  0.33402336442E+02  0.51100000000E-03 0.  1.
        -11    1    3    3    0    0  0.77414162664E+01 -0.40260876630E+01 -0.17454737532E+01  0.88986283530E+01  0.51100000000E-03 0. -1.
         12    1    3    3    0    0 -0.50273171929E+00  0.59554661649E+01  0.56549037406E+01  0.82278947938E+01  0.00000000000E+00 0. -1.
</event>
<event>
 7    1  0.6245487E-013  0.5052886E+02  0.7816164E-02  0.1300439E+00
        -11   -1    0    0    0    0  0.00000000000E+00  0.00000000000E+00  0.45593999997E+02  0.45594000000E+02  0.51100000000E-03 0. -1.
         11   -1    0    0    0    0 -0.00000000000E+00 -0.00000000000E+00 -0.45593999997E+02  0.45594000000E+02  0.51100000000E-03 0.  1.
    9900012    2    1    2    0    0  0.31967627707E+02 -0.20443150875E+02 -0.14605270875E+02  0.50528861098E+02  0.30000003795E+02 0.  0.
         12    1    1    2    0    0 -0.31967627707E+02  0.20443150875E+02  0.14605270875E+02  0.40659138902E+02  0.00000000000E+00 0. -1.
         11    1    3    3    0    0  0.56727548441E+01 -0.81718357885E+00 -0.10796313799E+00  0.57323287434E+01  0.51100000000E-03 0.  1.
        -11    1    3    3    0    0  0.17560190462E+01 -0.14797526241E+02 -0.12945237145E+02  0.19739036216E+02  0.51100000000E-03 0. -1.
         12    1    3    3    0    0  0.24538853816E+02 -0.48284410552E+01 -0.15520705927E+01  0.25057496139E+02  0.00000000000E+00 0. -1.
</event>
<event>
 7    1  0.6245487E-013  0.5052886E+02  0.7816164E-02  0.1300439E+00
        -11   -1    0    0    0    0  0.00000000000E+00  0.00000000000E+00  0.45593999997E+02  0.45594000000E+02  0.51100000000E-03 0.  1.
         11   -1    0    0    0    0 -0.00000000000E+00 -0.00000000000E+00 -0.45593999997E+02  0.45594000000E+02  0.51100000000E-03 0. -1.
    9900012    2    1    2    0    0  0.28158217771E+02  0.12450484180E+02  0.26556841111E+02  0.50528860877E+02  0.30000003123E+02 0.  0.
         12    1    1    2    0    0 -0.28158217771E+02 -0.12450484180E+02 -0.26556841111E+02  0.40659139123E+02  0.00000000000E+00 0. -1.
         11    1    3    3    0    0  0.54181655463E+01 -0.18674397332E+00  0.20674648396E+01  0.58022239118E+01  0.51100000000E-03 0. -1.
        -11    1    3    3    0    0  0.28902606523E+02  0.95162030628E+01  0.18717466133E+02  0.35724813831E+02  0.51100000000E-03 0.  1.
         12    1    3    3    0    0 -0.61625542983E+01  0.31210250910E+01  0.57719101382E+01  0.90018231343E+01  0.00000000000E+00 0. -1.
</event>
<event>
 7    1  0.6245487E-013  0.5052886E+02  0.7816164E-02  0.1300439E+00
        -11   -1    0    0    0    0  0.00000000000E+00  0.00000000000E+00  0.45593999997E+02  0.45594000000E+02  0.51100000000E-03 0.  1.
         11   -1    0    0    0    0 -0.00000000000E+00 -0.00000000000E+00 -0.45593999997E+02  0.45594000000E+02  0.51100000000E-03 0. -1.
    9900012    2    1    2    0    0  0.37162895228E+02 -0.89616263080E+01  0.13848249118E+02  0.50528861649E+02  0.30000005468E+02 0.  0.
         12    1    1    2    0    0 -0.37162895228E+02  0.89616263080E+01 -0.13848249118E+02  0.40659138351E+02  0.00000000000E+00 0. -1.
         11    1    3    3    0    0  0.99088308389E+01  0.27332284800E+01  0.10986552952E+02  0.15045258806E+02  0.51100000000E-03 0.  1.
        -11    1    3    3    0    0 -0.27846956916E+01 -0.13026606189E+00  0.17194220122E+01  0.32753490897E+01  0.51100000000E-03 0. -1.
         12    1    3    3    0    0  0.30038760081E+02 -0.11564588726E+02  0.11422741536E+01  0.32208253753E+02  0.00000000000E+00 0. -1.
</event>
<event>
 7    1  0.6245487E-013  0.5052886E+02  0.7816164E-02  0.1300439E+00
        -11   -1    0    0    0    0  0.00000000000E+00  0.00000000000E+00  0.45593999997E+02  0.45594000000E+02  0.51100000000E-03 0. -1.
         11   -1    0    0    0    0 -0.00000000000E+00 -0.00000000000E+00 -0.45593999997E+02  0.45594000000E+02  0.51100000000E-03 0.  1.
    9900012    2    1    2    0    0  0.33397024123E+02  0.38327129002E+01  0.22871699843E+02  0.50528861271E+02  0.30000004319E+02 0.  0.
         12    1    1    2    0    0 -0.33397024123E+02 -0.38327129002E+01 -0.22871699843E+02  0.40659138729E+02  0.00000000000E+00 0. -1.
         11    1    3    3    0    0  0.70445041309E+01 -0.38966724152E+01  0.14299545692E+02  0.16409939111E+02  0.51100000000E-03 0. -1.
        -11    1    3    3    0    0  0.19969737149E+02  0.12475648667E+02  0.10732084926E+02  0.25876820875E+02  0.51100000000E-03 0.  1.
         12    1    3    3    0    0  0.63827828434E+01 -0.47462633520E+01 -0.21599307755E+01  0.82421012847E+01  0.00000000000E+00 0. -1.
</event>
<event>
 7    1  0.6245487E-013  0.5052886E+02  0.7816164E-02  0.1300439E+00
        -11   -1    0    0    0    0  0.00000000000E+00  0.00000000000E+00  0.45593999997E+02  0.45594000000E+02  0.51100000000E-03 0.  1.
         11   -1    0    0    0    0 -0.00000000000E+00 -0.00000000000E+00 -0.45593999997E+02  0.45594000000E+02  0.51100000000E-03 0. -1.
    9900012    2    1    2    0    0  0.31519109695E+02 -0.13036242097E+02  0.22130699432E+02  0.50528859068E+02  0.29999997622E+02 0.  0.
         12    1    1    2    0    0 -0.31519109695E+02  0.13036242097E+02 -0.22130699432E+02  0.40659140932E+02  0.00000000000E+00 0. -1.
         11    1    3    3    0    0 -0.55190806403E+00 -0.36168540795E+01  0.12197657428E+01  0.38566908966E+01  0.51100000000E-03 0. -1.
        -11    1    3    3    0    0  0.16906447099E+02 -0.76721242373E+01  0.24742743089E+02  0.30933683577E+02  0.51100000000E-03 0.  1.
         12    1    3    3    0    0  0.15164570661E+02 -0.17472637799E+01 -0.38318093996E+01  0.15738484594E+02  0.00000000000E+00 0. -1.
</event>
<event>
 7    1  0.6245487E-013  0.5052886E+02  0.7816164E-02  0.1300439E+00
        -11   -1    0    0    0    0  0.00000000000E+00  0.00000000000E+00  0.45593999997E+02  0.45594000000E+02  0.51100000000E-03 0. -1.
         11   -1    0    0    0    0 -0.00000000000E+00 -0.00000000000E+00 -0.45593999997E+02  0.45594000000E+02  0.51100000000E-03 0.  1.
    9900012    2    1    2    0    0 -0.17263892355E+02  0.82434141639E+01 -0.35877147110E+02  0.50528861530E+02  0.30000005107E+02 0.  0.
         12    1    1    2    0    0  0.17263892355E+02 -0.82434141639E+01  0.35877147110E+02  0.40659138470E+02  0.00000000000E+00 0. -1.
         11    1    3    3    0    0  0.39578262861E+01  0.70466109815E+01 -0.67628865824E+01  0.10538299219E+02  0.51100000000E-03 0. -1.
        -11    1    3    3    0    0 -0.15827683008E+02  0.80498461264E+01 -0.14297612375E+02  0.22797747519E+02  0.51100000000E-03 0.  1.
         12    1    3    3    0    0 -0.53940356337E+01 -0.68530429440E+01 -0.14816648152E+02  0.17192814792E+02  0.00000000000E+00 0. -1.
</event>
<event>
 7    1  0.6245487E-013  0.5052886E+02  0.7816164E-02  0.1300439E+00
        -11   -1    0    0    0    0  0.00000000000E+00  0.00000000000E+00  0.45593999997E+02  0.45594000000E+02  0.51100000000E-03 0.  1.
         11   -1    0    0    0    0 -0.00000000000E+00 -0.00000000000E+00 -0.45593999997E+02  0.45594000000E+02  0.51100000000E-03 0. -1.
    9900012    2    1    2    0    0 -0.14316884906E+02 -0.11971008956E+02  0.36123227444E+02  0.50528858226E+02  0.29999995065E+02 0.  0.
         12    1    1    2    0    0  0.14316884906E+02  0.11971008956E+02 -0.36123227444E+02  0.40659141774E+02  0.00000000000E+00 0. -1.
         11    1    3    3    0    0 -0.12026401975E+02 -0.10621910932E+01  0.78265803539E+01  0.14388118525E+02  0.51100000000E-03 0. -1.
        -11    1    3    3    0    0 -0.53527570809E+01  0.32304301457E+01  0.15913857840E+02  0.17097910951E+02  0.51100000000E-03 0.  1.
        -12    1    3    3    0    0  0.30622741502E+01 -0.14139248008E+02  0.12382789250E+02  0.19042828751E+02  0.00000000000E+00 0.  1.
</event>
<event>
 7    1  0.6245487E-013  0.5052887E+02  0.7816164E-02  0.1300439E+00
        -11   -1    0    0    0    0  0.00000000000E+00  0.00000000000E+00  0.45593999997E+02  0.45594000000E+02  0.51100000000E-03 0.  1.
         11   -1    0    0    0    0 -0.00000000000E+00 -0.00000000000E+00 -0.45593999997E+02  0.45594000000E+02  0.51100000000E-03 0. -1.
    9900012    2    1    2    0    0  0.24594778809E+02 -0.32233595740E+02 -0.30425672777E+01  0.50528867512E+02  0.30000023291E+02 0.  0.
         12    1    1    2    0    0 -0.24594778809E+02  0.32233595740E+02  0.30425672777E+01  0.40659132488E+02  0.00000000000E+00 0. -1.
         11    1    3    3    0    0  0.14871767863E+02 -0.17169334288E+02 -0.65690330023E+01  0.23645458636E+02  0.51100000000E-03 0. -1.
        -11    1    3    3    0    0  0.47955701402E+01 -0.24811502092E+01 -0.76385745031E+01  0.93542193704E+01  0.51100000000E-03 0.  1.
         12    1    3    3    0    0  0.49274408058E+01 -0.12583111243E+02  0.11165040228E+02  0.17529189506E+02  0.00000000000E+00 0. -1.
</event>
<event>
 7    1  0.6245487E-013  0.5052885E+02  0.7816164E-02  0.1300439E+00
        -11   -1    0    0    0    0  0.00000000000E+00  0.00000000000E+00  0.45593999997E+02  0.45594000000E+02  0.51100000000E-03 0. -1.
         11   -1    0    0    0    0 -0.00000000000E+00 -0.00000000000E+00 -0.45593999997E+02  0.45594000000E+02  0.51100000000E-03 0.  1.
    9900012    2    1    2    0    0  0.35901544244E+02 -0.19084031969E+02  0.21334677425E+00  0.50528847622E+02  0.29999962831E+02 0.  0.
         12    1    1    2    0    0 -0.35901544244E+02  0.19084031969E+02 -0.21334677425E+00  0.40659152378E+02  0.00000000000E+00 0. -1.
         11    1    3    3    0    0  0.21243455324E+02 -0.43329617148E+01 -0.98491219400E+01  0.23813108881E+02  0.51100000000E-03 0. -1.
        -11    1    3    3    0    0  0.15776187626E+02 -0.10252712582E+02  0.42637914135E+01  0.19292126082E+02  0.51100000000E-03 0.  1.
         12    1    3    3    0    0 -0.11180987061E+01 -0.44983576725E+01  0.57986773007E+01  0.74236126585E+01  0.00000000000E+00 0. -1.
</event>
<event>
 7    1  0.6245487E-013  0.5052886E+02  0.7816164E-02  0.1300439E+00
        -11   -1    0    0    0    0  0.00000000000E+00  0.00000000000E+00  0.45593999997E+02  0.45594000000E+02  0.51100000000E-03 0. -1.
         11   -1    0    0    0    0 -0.00000000000E+00 -0.00000000000E+00 -0.45593999997E+02  0.45594000000E+02  0.51100000000E-03 0.  1.
    9900012    2    1    2    0    0  0.34076912143E+01  0.39352725009E+02  0.96393092613E+01  0.50528860707E+02  0.30000002604E+02 0.  0.
         12    1    1    2    0    0 -0.34076912143E+01 -0.39352725009E+02 -0.96393092613E+01  0.40659139293E+02  0.00000000000E+00 0. -1.
         11    1    3    3    0    0  0.21012043596E+01 -0.28627281118E+01 -0.10217608179E+01  0.36951681197E+01  0.51100000000E-03 0. -1.
        -11    1    3    3    0    0  0.72548460338E+01  0.89497388321E+01  0.44333833518E+00  0.11529404377E+02  0.51100000000E-03 0.  1.
        -12    1    3    3    0    0 -0.59483591792E+01  0.33265714289E+02  0.10217731744E+02  0.35304288210E+02  0.00000000000E+00 0.  1.
</event>
<event>
 7    1  0.6245487E-013  0.5052886E+02  0.7816164E-02  0.1300439E+00
        -11   -1    0    0    0    0  0.00000000000E+00  0.00000000000E+00  0.45593999997E+02  0.45594000000E+02  0.51100000000E-03 0. -1.
         11   -1    0    0    0    0 -0.00000000000E+00 -0.00000000000E+00 -0.45593999997E+02  0.45594000000E+02  0.51100000000E-03 0.  1.
    9900012    2    1    2    0    0 -0.37415494471E+02 -0.12934248499E+02 -0.92710012000E+01  0.50528862356E+02  0.30000007616E+02 0.  0.
         12    1    1    2    0    0  0.37415494471E+02  0.12934248499E+02  0.92710012000E+01  0.40659137644E+02  0.00000000000E+00 0. -1.
         11    1    3    3    0    0 -0.12534097786E+02 -0.42830609970E+01  0.26509398291E+01  0.13508356711E+02  0.51100000000E-03 0.  1.
        -11    1    3    3    0    0 -0.54029638238E+00  0.28843946190E+01  0.45740546410E+01  0.54344851292E+01  0.51100000000E-03 0. -1.
        -12    1    3    3    0    0 -0.24341100303E+02 -0.11535582121E+02 -0.16495995670E+02  0.31586020515E+02  0.00000000000E+00 0.  1.
</event>
<event>
 7    1  0.6245487E-013  0.5052887E+02  0.7816164E-02  0.1300439E+00
        -11   -1    0    0    0    0  0.00000000000E+00  0.00000000000E+00  0.45593999997E+02  0.45594000000E+02  0.51100000000E-03 0.  1.
         11   -1    0    0    0    0 -0.00000000000E+00 -0.00000000000E+00 -0.45593999997E+02  0.45594000000E+02  0.51100000000E-03 0. -1.
    9900012    2    1    2    0    0  0.58477005217E+01 -0.49357238060E+01  0.39932546119E+02  0.50528865597E+02  0.30000017467E+02 0.  0.
         12    1    1    2    0    0 -0.58477005217E+01  0.49357238060E+01 -0.39932546119E+02  0.40659134403E+02  0.00000000000E+00 0. -1.
         11    1    3    3    0    0  0.61046691922E+01 -0.11978482431E+02  0.12380922379E+02  0.18276713777E+02  0.51100000000E-03 0. -1.
        -11    1    3    3    0    0  0.46607083564E+01  0.21038034655E+01  0.15658145210E+01  0.53478936770E+01  0.51100000000E-03 0.  1.
        -12    1    3    3    0    0 -0.49176770269E+01  0.49389551590E+01  0.25985809219E+02  0.26904258142E+02  0.00000000000E+00 0.  1.
</event>
<event>
 7    1  0.6245487E-013  0.5052887E+02  0.7816164E-02  0.1300439E+00
        -11   -1    0    0    0    0  0.00000000000E+00  0.00000000000E+00  0.45593999997E+02  0.45594000000E+02  0.51100000000E-03 0.  1.
         11   -1    0    0    0    0 -0.00000000000E+00 -0.00000000000E+00 -0.45593999997E+02  0.45594000000E+02  0.51100000000E-03 0. -1.
    9900012    2    1    2    0    0  0.31471098899E+02  0.25734785688E+02 -0.67516470528E+00  0.50528866860E+02  0.30000021307E+02 0.  0.
         12    1    1    2    0    0 -0.31471098899E+02 -0.25734785688E+02  0.67516470528E+00  0.40659133140E+02  0.00000000000E+00 0. -1.
         11    1    3    3    0    0  0.10449795910E+02  0.96975121249E+01 -0.69282080194E+01  0.15850553385E+02  0.51100000000E-03 0.  1.
        -11    1    3    3    0    0  0.19956983446E+02  0.24618807160E+01  0.11658474315E+01  0.20142026845E+02  0.51100000000E-03 0. -1.
         12    1    3    3    0    0  0.10643195428E+01  0.13575392848E+02  0.50871958826E+01  0.14536286631E+02  0.00000000000E+00 0. -1.
</event>
<event>
 7    1  0.6245487E-013  0.5052883E+02  0.7816164E-02  0.1300439E+00
        -11   -1    0    0    0    0  0.00000000000E+00  0.00000000000E+00  0.45593999997E+02  0.45594000000E+02  0.51100000000E-03 0.  1.
         11   -1    0    0    0    0 -0.00000000000E+00 -0.00000000000E+00 -0.45593999997E+02  0.45594000000E+02  0.51100000000E-03 0. -1.
    9900012    2    1    2    0    0  0.31179884076E+02 -0.43985755500E+01  0.25722276659E+02  0.50528829394E+02  0.29999907427E+02 0.  0.
         12    1    1    2    0    0 -0.31179884076E+02  0.43985755500E+01 -0.25722276659E+02  0.40659170606E+02  0.00000000000E+00 0. -1.
         11    1    3    3    0    0  0.70060804634E+01 -0.67025242162E+00  0.15931112639E+02  0.17416508030E+02  0.51100000000E-03 0. -1.
        -11    1    3    3    0    0  0.21605362411E+02 -0.87050808220E+01  0.12982167367E+02  0.26666585587E+02  0.51100000000E-03 0.  1.
         12    1    3    3    0    0  0.25684412012E+01  0.49767576936E+01 -0.31910033483E+01  0.64457357775E+01  0.00000000000E+00 0. -1.
</event>
<event>
 7    1  0.6245487E-013  0.5052891E+02  0.7816164E-02  0.1300439E+00
        -11   -1    0    0    0    0  0.00000000000E+00  0.00000000000E+00  0.45593999997E+02  0.45594000000E+02  0.51100000000E-03 0.  1.
         11   -1    0    0    0    0 -0.00000000000E+00 -0.00000000000E+00 -0.45593999997E+02  0.45594000000E+02  0.51100000000E-03 0. -1.
    9900012    2    1    2    0    0  0.12588181663E+02  0.42382604552E+01  0.38428332656E+02  0.50528906060E+02  0.30000140461E+02 0.  0.
         12    1    1    2    0    0 -0.12588181663E+02 -0.42382604552E+01 -0.38428332656E+02  0.40659093940E+02  0.00000000000E+00 0. -1.
         11    1    3    3    0    0  0.15775552334E+01  0.11267250853E+02  0.16067734640E+02  0.19687857146E+02  0.51100000000E-03 0. -1.
        -11    1    3    3    0    0  0.64891539946E+01 -0.22230937009E+01 -0.66223410865E+00  0.68912857614E+01  0.51100000000E-03 0.  1.
         12    1    3    3    0    0  0.45214724348E+01 -0.48058966966E+01  0.23022832125E+02  0.23949763153E+02  0.00000000000E+00 0. -1.
</event>
<event>
 7    1  0.6245487E-013  0.5052886E+02  0.7816164E-02  0.1300439E+00
        -11   -1    0    0    0    0  0.00000000000E+00  0.00000000000E+00  0.45593999997E+02  0.45594000000E+02  0.51100000000E-03 0. -1.
         11   -1    0    0    0    0 -0.00000000000E+00 -0.00000000000E+00 -0.45593999997E+02  0.45594000000E+02  0.51100000000E-03 0.  1.
    9900012    2    1    2    0    0 -0.93012836725E+01 -0.38290547723E+02  0.10024266084E+02  0.50528857936E+02  0.29999994182E+02 0.  0.
         12    1    1    2    0    0  0.93012836725E+01  0.38290547723E+02 -0.10024266084E+02  0.40659142064E+02  0.00000000000E+00 0. -1.
         11    1    3    3    0    0  0.70473613517E+01 -0.95647464183E+01 -0.19039647418E+01  0.12032238282E+02  0.51100000000E-03 0.  1.
        -11    1    3    3    0    0 -0.67110768610E+01 -0.21240882431E+02  0.12990138676E+01  0.22313697057E+02  0.51100000000E-03 0. -1.
         12    1    3    3    0    0 -0.96375681633E+01 -0.74849188740E+01  0.10629216958E+02  0.16182922597E+02  0.00000000000E+00 0. -1.
</event>
<event>
 7    1  0.6245487E-013  0.5052884E+02  0.7816164E-02  0.1300439E+00
        -11   -1    0    0    0    0  0.00000000000E+00  0.00000000000E+00  0.45593999997E+02  0.45594000000E+02  0.51100000000E-03 0. -1.
         11   -1    0    0    0    0 -0.00000000000E+00 -0.00000000000E+00 -0.45593999997E+02  0.45594000000E+02  0.51100000000E-03 0.  1.
    9900012    2    1    2    0    0  0.14171581307E+02  0.23671288894E+01 -0.38035909492E+02  0.50528838341E+02  0.29999934622E+02 0.  0.
         12    1    1    2    0    0 -0.14171581307E+02 -0.23671288894E+01  0.38035909492E+02  0.40659161659E+02  0.00000000000E+00 0. -1.
         11    1    3    3    0    0  0.67213902799E+01  0.34447830099E+00 -0.47257319433E+01  0.82236424567E+01  0.51100000000E-03 0. -1.
        -11    1    3    3    0    0  0.13710070036E+02  0.35183662805E+01 -0.81460535343E+01  0.16331047428E+02  0.51100000000E-03 0.  1.
        -12    1    3    3    0    0 -0.62598790084E+01 -0.14957156921E+01 -0.25164124014E+02  0.25974148456E+02  0.00000000000E+00 0.  1.
</event>
<event>
 7    1  0.6245487E-013  0.5052886E+02  0.7816164E-02  0.1300439E+00
        -11   -1    0    0    0    0  0.00000000000E+00  0.00000000000E+00  0.45593999997E+02  0.45594000000E+02  0.51100000000E-03 0. -1.
         11   -1    0    0    0    0 -0.00000000000E+00 -0.00000000000E+00 -0.45593999997E+02  0.45594000000E+02  0.51100000000E-03 0.  1.
    9900012    2    1    2    0    0 -0.17098561995E+01 -0.37462792791E+02 -0.15709283016E+02  0.50528855582E+02  0.29999987026E+02 0.  0.
         12    1    1    2    0    0  0.17098561995E+01  0.37462792791E+02  0.15709283016E+02  0.40659144418E+02  0.00000000000E+00 0. -1.
         11    1    3    3    0    0  0.28804668170E+01 -0.28203435983E+01 -0.10853369006E+02  0.11577868808E+02  0.51100000000E-03 0.  1.
        -11    1    3    3    0    0  0.38987057063E+01 -0.25927202469E+02 -0.54141907296E+01  0.26771873217E+02  0.51100000000E-03 0. -1.
         12    1    3    3    0    0 -0.84890287228E+01 -0.87152467244E+01  0.55827671947E+00  0.12179113556E+02  0.00000000000E+00 0. -1.
</event>
<event>
 7    1  0.6245487E-013  0.5052886E+02  0.7816164E-02  0.1300439E+00
        -11   -1    0    0    0    0  0.00000000000E+00  0.00000000000E+00  0.45593999997E+02  0.45594000000E+02  0.51100000000E-03 0.  1.
         11   -1    0    0    0    0 -0.00000000000E+00 -0.00000000000E+00 -0.45593999997E+02  0.45594000000E+02  0.51100000000E-03 0. -1.
    9900012    2    1    2    0    0 -0.27117271367E+01 -0.40212502161E+02 -0.53634920484E+01  0.50528857842E+02  0.29999993895E+02 0.  0.
         12    1    1    2    0    0  0.27117271367E+01  0.40212502161E+02  0.53634920484E+01  0.40659142158E+02  0.00000000000E+00 0. -1.
         11    1    3    3    0    0 -0.35981473214E+01 -0.88396644797E+01 -0.41871457345E+01  0.10422021010E+02  0.51100000000E-03 0. -1.
        -11    1    3    3    0    0 -0.75747763872E+01 -0.23074101631E+02 -0.90068149645E+01  0.25902009950E+02  0.51100000000E-03 0.  1.
         12    1    3    3    0    0  0.84611965719E+01 -0.82987360501E+01  0.78304686506E+01  0.14204826882E+02  0.00000000000E+00 0. -1.
</event>
<event>
 7    1  0.6245487E-013  0.5052886E+02  0.7816164E-02  0.1300439E+00
        -11   -1    0    0    0    0  0.00000000000E+00  0.00000000000E+00  0.45593999997E+02  0.45594000000E+02  0.51100000000E-03 0. -1.
         11   -1    0    0    0    0 -0.00000000000E+00 -0.00000000000E+00 -0.45593999997E+02  0.45594000000E+02  0.51100000000E-03 0.  1.
    9900012    2    1    2    0    0  0.36515045471E+02 -0.14374122067E+02  0.10639633943E+02  0.50528859067E+02  0.29999997621E+02 0.  0.
         12    1    1    2    0    0 -0.36515045471E+02  0.14374122067E+02 -0.10639633943E+02  0.40659140933E+02  0.00000000000E+00 0. -1.
         11    1    3    3    0    0  0.29580860830E+02 -0.11855315504E+02  0.11269778238E+02  0.33802126189E+02  0.51100000000E-03 0. -1.
        -11    1    3    3    0    0  0.82649423054E+01  0.41672200674E+01 -0.26296556246E+01  0.96223741024E+01  0.51100000000E-03 0.  1.
         12    1    3    3    0    0 -0.13307576642E+01 -0.66860266298E+01  0.19995113295E+01  0.71043587755E+01  0.00000000000E+00 0. -1.
</event>
<event>
 7    1  0.6245487E-013  0.5052888E+02  0.7816164E-02  0.1300439E+00
        -11   -1    0    0    0    0  0.00000000000E+00  0.00000000000E+00  0.45593999997E+02  0.45594000000E+02  0.51100000000E-03 0.  1.
         11   -1    0    0    0    0 -0.00000000000E+00 -0.00000000000E+00 -0.45593999997E+02  0.45594000000E+02  0.51100000000E-03 0. -1.
    9900012    2    1    2    0    0  0.28186629226E+02 -0.28884141068E+02  0.49380492357E+01  0.50528880449E+02  0.30000062614E+02 0.  0.
         12    1    1    2    0    0 -0.28186629226E+02  0.28884141068E+02 -0.49380492357E+01  0.40659119551E+02  0.00000000000E+00 0. -1.
         11    1    3    3    0    0  0.20871228049E+01 -0.69483395627E+01  0.65800635515E+00  0.72848113844E+01  0.51100000000E-03 0. -1.
        -11    1    3    3    0    0  0.28098408120E+02 -0.19202693732E+02 -0.40296138671E+01  0.34271004852E+02  0.51100000000E-03 0.  1.
         12    1    3    3    0    0 -0.19989016985E+01 -0.27331077736E+01  0.83096567476E+01  0.89730642127E+01  0.00000000000E+00 0. -1.
</event>
<event>
 7    1  0.6245487E-013  0.5052884E+02  0.7816164E-02  0.1300439E+00
        -11   -1    0    0    0    0  0.00000000000E+00  0.00000000000E+00  0.45593999997E+02  0.45594000000E+02  0.51100000000E-03 0.  1.
         11   -1    0    0    0    0 -0.00000000000E+00 -0.00000000000E+00 -0.45593999997E+02  0.45594000000E+02  0.51100000000E-03 0. -1.
    9900012    2    1    2    0    0  0.24022566626E+01 -0.24943260606E+02  0.32019209959E+02  0.50528844903E+02  0.29999954569E+02 0.  0.
         12    1    1    2    0    0 -0.24022566626E+01  0.24943260606E+02 -0.32019209959E+02  0.40659155097E+02  0.00000000000E+00 0. -1.
         11    1    3    3    0    0  0.10037789486E+02 -0.27923088920E+01  0.87720176491E+01  0.13619930272E+02  0.51100000000E-03 0. -1.
        -11    1    3    3    0    0 -0.32097175079E+01 -0.10211373503E+00  0.10668705023E+02  0.11141543018E+02  0.51100000000E-03 0.  1.
        -12    1    3    3    0    0 -0.44258153153E+01 -0.22048837979E+02  0.12578487287E+02  0.25767371614E+02  0.00000000000E+00 0.  1.
</event>
<event>
 7    1  0.6245487E-013  0.5052886E+02  0.7816164E-02  0.1300439E+00
        -11   -1    0    0    0    0  0.00000000000E+00  0.00000000000E+00  0.45593999997E+02  0.45594000000E+02  0.51100000000E-03 0.  1.
         11   -1    0    0    0    0 -0.00000000000E+00 -0.00000000000E+00 -0.45593999997E+02  0.45594000000E+02  0.51100000000E-03 0. -1.
    9900012    2    1    2    0    0 -0.28298596966E+02  0.62487743643E+01  0.28518556415E+02  0.50528857962E+02  0.29999994260E+02 0.  0.
         12    1    1    2    0    0  0.28298596966E+02 -0.62487743643E+01 -0.28518556415E+02  0.40659142038E+02  0.00000000000E+00 0. -1.
         11    1    3    3    0    0  0.12681371388E+01 -0.64144733401E+00 -0.12233755732E+00  0.14263916798E+01  0.51100000000E-03 0. -1.
        -11    1    3    3    0    0 -0.15173800281E+02  0.83485172270E+01  0.29928898583E+02  0.34578619485E+02  0.51100000000E-03 0.  1.
         12    1    3    3    0    0 -0.14392933824E+02 -0.14582955288E+01 -0.12880046105E+01  0.14523846797E+02  0.00000000000E+00 0. -1.
</event>
<event>
 7    1  0.6245487E-013  0.5052882E+02  0.7816164E-02  0.1300439E+00
        -11   -1    0    0    0    0  0.00000000000E+00  0.00000000000E+00  0.45593999997E+02  0.45594000000E+02  0.51100000000E-03 0. -1.
         11   -1    0    0    0    0 -0.00000000000E+00 -0.00000000000E+00 -0.45593999997E+02  0.45594000000E+02  0.51100000000E-03 0.  1.
    9900012    2    1    2    0    0 -0.14336681244E+02  0.33657980453E+02 -0.17741715788E+02  0.50528824450E+02  0.29999892399E+02 0.  0.
         12    1    1    2    0    0  0.14336681244E+02 -0.33657980453E+02  0.17741715788E+02  0.40659175550E+02  0.00000000000E+00 0. -1.
         11    1    3    3    0    0 -0.10215039161E+02  0.23291057092E+02 -0.15336452275E+02  0.29698941634E+02  0.51100000000E-03 0. -1.
        -11    1    3    3    0    0 -0.13122270263E+01  0.91934711319E+01 -0.93923491160E+01  0.13208257773E+02  0.51100000000E-03 0.  1.
         12    1    3    3    0    0 -0.28094150564E+01  0.11734522291E+01  0.69870856023E+01  0.76216250438E+01  0.00000000000E+00 0. -1.
</event>
<event>
 7    1  0.6245487E-013  0.5052886E+02  0.7816164E-02  0.1300439E+00
        -11   -1    0    0    0    0  0.00000000000E+00  0.00000000000E+00  0.45593999997E+02  0.45594000000E+02  0.51100000000E-03 0.  1.
         11   -1    0    0    0    0 -0.00000000000E+00 -0.00000000000E+00 -0.45593999997E+02  0.45594000000E+02  0.51100000000E-03 0. -1.
    9900012    2    1    2    0    0 -0.24880450240E+02  0.30066909089E+02  0.11406575756E+02  0.50528858386E+02  0.29999995549E+02 0.  0.
         12    1    1    2    0    0  0.24880450240E+02 -0.30066909089E+02 -0.11406575756E+02  0.40659141614E+02  0.00000000000E+00 0. -1.
         11    1    3    3    0    0 -0.40615900703E+01  0.11631200616E+02 -0.57242563374E+01  0.13584861153E+02  0.51100000000E-03 0. -1.
        -11    1    3    3    0    0 -0.21708522528E+02  0.15458653489E+02  0.88206565810E+01  0.28071941522E+02  0.51100000000E-03 0.  1.
         12    1    3    3    0    0  0.88966235792E+00  0.29770549841E+01  0.83101755125E+01  0.88720557109E+01  0.00000000000E+00 0. -1.
</event>
<event>
 7    1  0.6245487E-013  0.5052886E+02  0.7816164E-02  0.1300439E+00
        -11   -1    0    0    0    0  0.00000000000E+00  0.00000000000E+00  0.45593999997E+02  0.45594000000E+02  0.51100000000E-03 0.  1.
         11   -1    0    0    0    0 -0.00000000000E+00 -0.00000000000E+00 -0.45593999997E+02  0.45594000000E+02  0.51100000000E-03 0. -1.
    9900012    2    1    2    0    0  0.20602934055E+02  0.16394797629E+02  0.30982183065E+02  0.50528856521E+02  0.29999989882E+02 0.  0.
         12    1    1    2    0    0 -0.20602934055E+02 -0.16394797629E+02 -0.30982183065E+02  0.40659143479E+02  0.00000000000E+00 0. -1.
         11    1    3    3    0    0 -0.10225313583E+01  0.91882989542E+01  0.75393071737E+01  0.11929440933E+02  0.51100000000E-03 0. -1.
        -11    1    3    3    0    0  0.19782733258E+02  0.12938796033E+02  0.22246773655E+02  0.32460559395E+02  0.51100000000E-03 0.  1.
         12    1    3    3    0    0  0.18427321551E+01 -0.57322973582E+01  0.11961022360E+01  0.61388561929E+01  0.00000000000E+00 0. -1.
</event>
<event>
 7    1  0.6245487E-013  0.5052886E+02  0.7816164E-02  0.1300439E+00
        -11   -1    0    0    0    0  0.00000000000E+00  0.00000000000E+00  0.45593999997E+02  0.45594000000E+02  0.51100000000E-03 0.  1.
         11   -1    0    0    0    0 -0.00000000000E+00 -0.00000000000E+00 -0.45593999997E+02  0.45594000000E+02  0.51100000000E-03 0. -1.
    9900012    2    1    2    0    0 -0.39019796943E+01  0.35747003910E+02  0.18976094875E+02  0.50528856984E+02  0.29999991290E+02 0.  0.
         12    1    1    2    0    0  0.39019796943E+01 -0.35747003910E+02 -0.18976094875E+02  0.40659143016E+02  0.00000000000E+00 0. -1.
         11    1    3    3    0    0 -0.45608289034E+01  0.15091827920E+02 -0.32052371916E+01  0.16088442310E+02  0.51100000000E-03 0. -1.
        -11    1    3    3    0    0  0.22343086880E+01  0.61787078313E+01 -0.14070645329E+01  0.67192556611E+01  0.51100000000E-03 0.  1.
         12    1    3    3    0    0 -0.15754594789E+01  0.14476468159E+02  0.23588396599E+02  0.27721159013E+02  0.00000000000E+00 0. -1.
</event>
<event>
 7    1  0.6245487E-013  0.5052886E+02  0.7816164E-02  0.1300439E+00
        -11   -1    0    0    0    0  0.00000000000E+00  0.00000000000E+00  0.45593999997E+02  0.45594000000E+02  0.51100000000E-03 0.  1.
         11   -1    0    0    0    0 -0.00000000000E+00 -0.00000000000E+00 -0.45593999997E+02  0.45594000000E+02  0.51100000000E-03 0. -1.
    9900012    2    1    2    0    0  0.28258799918E+02  0.77562118331E+01  0.28185938418E+02  0.50528859339E+02  0.29999998446E+02 0.  0.
         12    1    1    2    0    0 -0.28258799918E+02 -0.77562118331E+01 -0.28185938418E+02  0.40659140661E+02  0.00000000000E+00 0. -1.
         11    1    3    3    0    0 -0.30806135277E+01 -0.12218761420E+01  0.39261134513E+00  0.33372600952E+01  0.51100000000E-03 0. -1.
        -11    1    3    3    0    0  0.97598006505E+01  0.12585451537E+02  0.14822408846E+02  0.21756633549E+02  0.51100000000E-03 0.  1.
        -12    1    3    3    0    0  0.21579612795E+02 -0.36073635616E+01  0.12970918228E+02  0.25434965695E+02  0.00000000000E+00 0.  1.
</event>
<event>
 7    1  0.6245487E-013  0.5052886E+02  0.7816164E-02  0.1300439E+00
        -11   -1    0    0    0    0  0.00000000000E+00  0.00000000000E+00  0.45593999997E+02  0.45594000000E+02  0.51100000000E-03 0.  1.
         11   -1    0    0    0    0 -0.00000000000E+00 -0.00000000000E+00 -0.45593999997E+02  0.45594000000E+02  0.51100000000E-03 0. -1.
    9900012    2    1    2    0    0  0.26660096139E+02 -0.11330977360E+02  0.28530929369E+02  0.50528859518E+02  0.29999998991E+02 0.  0.
         12    1    1    2    0    0 -0.26660096139E+02  0.11330977360E+02 -0.28530929369E+02  0.40659140482E+02  0.00000000000E+00 0. -1.
         11    1    3    3    0    0  0.16015889128E+01 -0.29520217770E-01  0.10025556730E+02  0.10152721137E+02  0.51100000000E-03 0. -1.
        -11    1    3    3    0    0  0.18431918067E+01 -0.94742291984E+01 -0.13849898482E+01  0.97507216184E+01  0.51100000000E-03 0.  1.
        -12    1    3    3    0    0  0.23215315420E+02 -0.18272279440E+01  0.19890362487E+02  0.30625416762E+02  0.00000000000E+00 0.  1.
</event>
<event>
 7    1  0.6245487E-013  0.5052887E+02  0.7816164E-02  0.1300439E+00
        -11   -1    0    0    0    0  0.00000000000E+00  0.00000000000E+00  0.45593999997E+02  0.45594000000E+02  0.51100000000E-03 0. -1.
         11   -1    0    0    0    0 -0.00000000000E+00 -0.00000000000E+00 -0.45593999997E+02  0.45594000000E+02  0.51100000000E-03 0.  1.
    9900012    2    1    2    0    0 -0.13600899499E+02 -0.35999928523E+02 -0.13121945838E+02  0.50528870848E+02  0.30000033430E+02 0.  0.
         12    1    1    2    0    0  0.13600899499E+02  0.35999928523E+02  0.13121945838E+02  0.40659129152E+02  0.00000000000E+00 0. -1.
         11    1    3    3    0    0 -0.24298410700E+01 -0.36324600936E+01 -0.73204696991E+01  0.85257357943E+01  0.51100000000E-03 0.  1.
        -11    1    3    3    0    0 -0.27704962754E+01 -0.10151069481E+01  0.66211408025E+01  0.72488342177E+01  0.51100000000E-03 0. -1.
         12    1    3    3    0    0 -0.84005621540E+01 -0.31352361481E+02 -0.12422616941E+02  0.34754300836E+02  0.00000000000E+00 0. -1.
</event>
<event>
 7    1  0.6245487E-013  0.5052886E+02  0.7816164E-02  0.1300439E+00
        -11   -1    0    0    0    0  0.00000000000E+00  0.00000000000E+00  0.45593999997E+02  0.45594000000E+02  0.51100000000E-03 0. -1.
         11   -1    0    0    0    0 -0.00000000000E+00 -0.00000000000E+00 -0.45593999997E+02  0.45594000000E+02  0.51100000000E-03 0.  1.
    9900012    2    1    2    0    0 -0.13908470615E+02  0.32039803509E+02 -0.20812763381E+02  0.50528859782E+02  0.29999999792E+02 0.  0.
         12    1    1    2    0    0  0.13908470615E+02 -0.32039803509E+02  0.20812763381E+02  0.40659140218E+02  0.00000000000E+00 0. -1.
         11    1    3    3    0    0  0.11613374120E+01  0.56496737564E+01 -0.38828299417E+01  0.69529768269E+01  0.51100000000E-03 0. -1.
        -11    1    3    3    0    0 -0.16154840632E+02  0.29679691832E+02 -0.90715459668E+01  0.34987939773E+02  0.51100000000E-03 0.  1.
         12    1    3    3    0    0  0.10850326055E+01 -0.32895620788E+01 -0.78583874721E+01  0.85879431814E+01  0.00000000000E+00 0. -1.
</event>
<event>
 7    1  0.6245487E-013  0.5052886E+02  0.7816164E-02  0.1300439E+00
        -11   -1    0    0    0    0  0.00000000000E+00  0.00000000000E+00  0.45593999997E+02  0.45594000000E+02  0.51100000000E-03 0.  1.
         11   -1    0    0    0    0 -0.00000000000E+00 -0.00000000000E+00 -0.45593999997E+02  0.45594000000E+02  0.51100000000E-03 0. -1.
    9900012    2    1    2    0    0  0.75026344284E+01 -0.12759397172E+02  0.37869165666E+02  0.50528862678E+02  0.30000008597E+02 0.  0.
         12    1    1    2    0    0 -0.75026344284E+01  0.12759397172E+02 -0.37869165666E+02  0.40659137322E+02  0.00000000000E+00 0. -1.
         11    1    3    3    0    0  0.55871144264E+00 -0.12051484441E+02  0.30642885498E+02  0.32932307353E+02  0.51100000000E-03 0. -1.
        -11    1    3    3    0    0  0.18117179352E+01 -0.73750963672E+01  0.40190169027E+01  0.85922561314E+01  0.51100000000E-03 0.  1.
         12    1    3    3    0    0  0.51322050506E+01  0.66671836363E+01  0.32072632651E+01  0.90042991938E+01  0.00000000000E+00 0. -1.
</event>
<event>
 7    1  0.6245487E-013  0.5052886E+02  0.7816164E-02  0.1300439E+00
        -11   -1    0    0    0    0  0.00000000000E+00  0.00000000000E+00  0.45593999997E+02  0.45594000000E+02  0.51100000000E-03 0. -1.
         11   -1    0    0    0    0 -0.00000000000E+00 -0.00000000000E+00 -0.45593999997E+02  0.45594000000E+02  0.51100000000E-03 0.  1.
    9900012    2    1    2    0    0  0.10344902271E+02 -0.34597178511E+02 -0.18686465894E+02  0.50528858697E+02  0.29999996495E+02 0.  0.
         12    1    1    2    0    0 -0.10344902271E+02  0.34597178511E+02  0.18686465894E+02  0.40659141303E+02  0.00000000000E+00 0. -1.
         11    1    3    3    0    0  0.11559693425E+02 -0.16960706894E+02 -0.89106126639E+01  0.22376128100E+02  0.51100000000E-03 0. -1.
        -11    1    3    3    0    0 -0.16796433292E+01 -0.21971166682E+02 -0.79349008593E+01  0.23420418848E+02  0.51100000000E-03 0.  1.
         12    1    3    3    0    0  0.46485217503E+00  0.43346950661E+01 -0.18409523711E+01  0.47323117493E+01  0.00000000000E+00 0. -1.
</event>
<event>
 7    1  0.6245487E-013  0.5052885E+02  0.7816164E-02  0.1300439E+00
        -11   -1    0    0    0    0  0.00000000000E+00  0.00000000000E+00  0.45593999997E+02  0.45594000000E+02  0.51100000000E-03 0.  1.
         11   -1    0    0    0    0 -0.00000000000E+00 -0.00000000000E+00 -0.45593999997E+02  0.45594000000E+02  0.51100000000E-03 0. -1.
    9900012    2    1    2    0    0 -0.23372508171E+01  0.45588832905E+01  0.40335097224E+02  0.50528853104E+02  0.29999979494E+02 0.  0.
         12    1    1    2    0    0  0.23372508171E+01 -0.45588832905E+01 -0.40335097224E+02  0.40659146896E+02  0.00000000000E+00 0. -1.
         11    1    3    3    0    0 -0.23206829867E+00  0.90627507721E+01  0.30574407427E+02  0.31890150471E+02  0.51100000000E-03 0. -1.
        -11    1    3    3    0    0 -0.40355549696E+01  0.32864777899E+01  0.92287902290E+01  0.10595150283E+02  0.51100000000E-03 0.  1.
         12    1    3    3    0    0  0.19303724512E+01 -0.77903452715E+01  0.53189956812E+00  0.80435523495E+01  0.00000000000E+00 0. -1.
</event>
<event>
 7    1  0.6245487E-013  0.5052887E+02  0.7816164E-02  0.1300439E+00
        -11   -1    0    0    0    0  0.00000000000E+00  0.00000000000E+00  0.45593999997E+02  0.45594000000E+02  0.51100000000E-03 0.  1.
         11   -1    0    0    0    0 -0.00000000000E+00 -0.00000000000E+00 -0.45593999997E+02  0.45594000000E+02  0.51100000000E-03 0. -1.
    9900012    2    1    2    0    0  0.11754064940E+02  0.36515482545E+02  0.13476889128E+02  0.50528867586E+02  0.30000023513E+02 0.  0.
         12    1    1    2    0    0 -0.11754064940E+02 -0.36515482545E+02 -0.13476889128E+02  0.40659132414E+02  0.00000000000E+00 0. -1.
         11    1    3    3    0    0 -0.45104291584E+01  0.15523043930E+02  0.13867792540E+02  0.21298463190E+02  0.51100000000E-03 0. -1.
        -11    1    3    3    0    0  0.36958378140E+01  0.29575003165E+00 -0.31427510798E+01  0.48604084025E+01  0.51100000000E-03 0.  1.
        -12    1    3    3    0    0  0.12568656285E+02  0.20696688583E+02  0.27518476673E+01  0.24369995993E+02  0.00000000000E+00 0.  1.
</event>
<event>
 7    1  0.6245487E-013  0.5052887E+02  0.7816164E-02  0.1300439E+00
        -11   -1    0    0    0    0  0.00000000000E+00  0.00000000000E+00  0.45593999997E+02  0.45594000000E+02  0.51100000000E-03 0. -1.
         11   -1    0    0    0    0 -0.00000000000E+00 -0.00000000000E+00 -0.45593999997E+02  0.45594000000E+02  0.51100000000E-03 0.  1.
    9900012    2    1    2    0    0 -0.85353290730E+01  0.38604933600E+02 -0.94853749074E+01  0.50528867228E+02  0.30000022427E+02 0.  0.
         12    1    1    2    0    0  0.85353290730E+01 -0.38604933600E+02  0.94853749074E+01  0.40659132772E+02  0.00000000000E+00 0. -1.
         11    1    3    3    0    0 -0.27929459905E+01  0.80934323383E+01  0.60061655878E+01  0.10458404259E+02  0.51100000000E-03 0. -1.
        -11    1    3    3    0    0  0.75245301781E+01  0.98548424718E+01 -0.48703537416E+01  0.13321291993E+02  0.51100000000E-03 0.  1.
         12    1    3    3    0    0 -0.13266913261E+02  0.20656658790E+02 -0.10621186754E+02  0.26749170975E+02  0.00000000000E+00 0. -1.
</event>
<event>
 7    1  0.6245487E-013  0.5052886E+02  0.7816164E-02  0.1300439E+00
        -11   -1    0    0    0    0  0.00000000000E+00  0.00000000000E+00  0.45593999997E+02  0.45594000000E+02  0.51100000000E-03 0. -1.
         11   -1    0    0    0    0 -0.00000000000E+00 -0.00000000000E+00 -0.45593999997E+02  0.45594000000E+02  0.51100000000E-03 0.  1.
    9900012    2    1    2    0    0  0.32902833648E+02  0.20625196210E+02 -0.12048670064E+02  0.50528860423E+02  0.30000001743E+02 0.  0.
         12    1    1    2    0    0 -0.32902833648E+02 -0.20625196210E+02  0.12048670064E+02  0.40659139577E+02  0.00000000000E+00 0. -1.
         11    1    3    3    0    0 -0.12224311583E+01 -0.21056834100E+01 -0.32348828980E+01  0.40487909535E+01  0.51100000000E-03 0. -1.
        -11    1    3    3    0    0  0.24447298049E+02  0.25665147853E+02 -0.79817847154E+01  0.36332892587E+02  0.51100000000E-03 0.  1.
         12    1    3    3    0    0  0.96779667576E+01 -0.29342682328E+01 -0.83200245052E+00  0.10147176883E+02  0.00000000000E+00 0. -1.
</event>
<event>
 7    1  0.6245487E-013  0.5052886E+02  0.7816164E-02  0.1300439E+00
        -11   -1    0    0    0    0  0.00000000000E+00  0.00000000000E+00  0.45593999997E+02  0.45594000000E+02  0.51100000000E-03 0. -1.
         11   -1    0    0    0    0 -0.00000000000E+00 -0.00000000000E+00 -0.45593999997E+02  0.45594000000E+02  0.51100000000E-03 0.  1.
    9900012    2    1    2    0    0 -0.39362615867E+02 -0.52097983375E+01 -0.87525870055E+01  0.50528864422E+02  0.30000013898E+02 0.  0.
         12    1    1    2    0    0  0.39362615867E+02  0.52097983375E+01  0.87525870055E+01  0.40659135578E+02  0.00000000000E+00 0. -1.
         11    1    3    3    0    0 -0.50763111477E+01 -0.11839617669E+01  0.20576528089E+01  0.56039839112E+01  0.51100000000E-03 0. -1.
        -11    1    3    3    0    0 -0.34786024037E+01 -0.96596171463E+01 -0.88334711438E+01  0.13543968798E+02  0.51100000000E-03 0.  1.
        -12    1    3    3    0    0 -0.30807702316E+02  0.56337805758E+01 -0.19767686705E+01  0.31380911713E+02  0.00000000000E+00 0.  1.
</event>
<event>
 7    1  0.6245487E-013  0.5052887E+02  0.7816164E-02  0.1300439E+00
        -11   -1    0    0    0    0  0.00000000000E+00  0.00000000000E+00  0.45593999997E+02  0.45594000000E+02  0.51100000000E-03 0. -1.
         11   -1    0    0    0    0 -0.00000000000E+00 -0.00000000000E+00 -0.45593999997E+02  0.45594000000E+02  0.51100000000E-03 0.  1.
    9900012    2    1    2    0    0  0.40627948717E+02 -0.12399392582E+01 -0.99860560166E+00  0.50528869667E+02  0.30000029839E+02 0.  0.
         12    1    1    2    0    0 -0.40627948717E+02  0.12399392582E+01  0.99860560166E+00  0.40659130333E+02  0.00000000000E+00 0. -1.
         11    1    3    3    0    0  0.51244756800E+01  0.21567606032E+01  0.19713644539E+01  0.58989952844E+01  0.51100000000E-03 0. -1.
        -11    1    3    3    0    0  0.36003459432E+02 -0.10426514224E+02 -0.24183372975E+01  0.37560746072E+02  0.51100000000E-03 0.  1.
        -12    1    3    3    0    0 -0.49998639497E+00  0.70298143625E+01 -0.55163275808E+00  0.70691283102E+01  0.00000000000E+00 0.  1.
</event>
<event>
 7    1  0.6275936E-013  0.5052886E+02  0.7816164E-02  0.1300439E+00
        -11   -1    0    0    0    0  0.00000000000E+00  0.00000000000E+00  0.45593999997E+02  0.45594000000E+02  0.51100000000E-03 0.  1.
         11   -1    0    0    0    0 -0.00000000000E+00 -0.00000000000E+00 -0.45593999997E+02  0.45594000000E+02  0.51100000000E-03 0. -1.
    9900012    2    1    2    0    0  0.38353316732E+02 -0.24112387677E+01  0.13280621195E+02  0.50528857411E+02  0.29999992586E+02 0.  0.
         12    1    1    2    0    0 -0.38353316732E+02  0.24112387677E+01 -0.13280621195E+02  0.40659142589E+02  0.00000000000E+00 0. -1.
         11    1    3    3    0    0  0.30400547735E+01  0.52151958316E+01  0.13472945517E+01  0.61850952667E+01  0.51100000000E-03 0. -1.
        -11    1    3    3    0    0  0.62849600362E+00 -0.65964223331E+01  0.63868207178E+01  0.92032208474E+01  0.51100000000E-03 0.  1.
        -12    1    3    3    0    0  0.34684765955E+02 -0.10300122663E+01  0.55465059250E+01  0.35140541297E+02  0.00000000000E+00 0.  1.
</event>
<event>
 7    1  0.6245487E-013  0.5052886E+02  0.7816164E-02  0.1300439E+00
        -11   -1    0    0    0    0  0.00000000000E+00  0.00000000000E+00  0.45593999997E+02  0.45594000000E+02  0.51100000000E-03 0. -1.
         11   -1    0    0    0    0 -0.00000000000E+00 -0.00000000000E+00 -0.45593999997E+02  0.45594000000E+02  0.51100000000E-03 0.  1.
    9900012    2    1    2    0    0 -0.35169317901E+02  0.20159525765E+02 -0.31429836728E+01  0.50528858998E+02  0.29999997410E+02 0.  0.
         12    1    1    2    0    0  0.35169317901E+02 -0.20159525765E+02  0.31429836728E+01  0.40659141002E+02  0.00000000000E+00 0. -1.
         11    1    3    3    0    0 -0.52581765889E+01  0.11952493552E+02 -0.31305756289E+01  0.13427994161E+02  0.51100000000E-03 0. -1.
        -11    1    3    3    0    0 -0.25008123826E+02  0.14645635153E+02  0.57411003477E+00  0.28986729532E+02  0.51100000000E-03 0.  1.
         12    1    3    3    0    0 -0.49030174857E+01 -0.64386029408E+01 -0.58651807870E+00  0.81141353051E+01  0.00000000000E+00 0. -1.
</event>
<event>
 7    1  0.6245487E-013  0.5052886E+02  0.7816164E-02  0.1300439E+00
        -11   -1    0    0    0    0  0.00000000000E+00  0.00000000000E+00  0.45593999997E+02  0.45594000000E+02  0.51100000000E-03 0.  1.
         11   -1    0    0    0    0 -0.00000000000E+00 -0.00000000000E+00 -0.45593999997E+02  0.45594000000E+02  0.51100000000E-03 0. -1.
    9900012    2    1    2    0    0 -0.38745559546E+02 -0.10463401403E+02  0.65164905170E+01  0.50528858321E+02  0.29999995353E+02 0.  0.
         12    1    1    2    0    0  0.38745559546E+02  0.10463401403E+02 -0.65164905170E+01  0.40659141679E+02  0.00000000000E+00 0. -1.
         11    1    3    3    0    0 -0.20240968437E+02 -0.13660126200E+02  0.14574571328E+01  0.24462625220E+02  0.51100000000E-03 0.  1.
        -11    1    3    3    0    0 -0.54211519392E+01 -0.16198620817E+01 -0.60176258506E+01  0.82598221924E+01  0.51100000000E-03 0. -1.
         12    1    3    3    0    0 -0.13083439169E+02  0.48165868793E+01  0.11076659235E+02  0.17806410909E+02  0.00000000000E+00 0. -1.
</event>
<event>
 7    1  0.6245487E-013  0.5052886E+02  0.7816164E-02  0.1300439E+00
        -11   -1    0    0    0    0  0.00000000000E+00  0.00000000000E+00  0.45593999997E+02  0.45594000000E+02  0.51100000000E-03 0.  1.
         11   -1    0    0    0    0 -0.00000000000E+00 -0.00000000000E+00 -0.45593999997E+02  0.45594000000E+02  0.51100000000E-03 0. -1.
    9900012    2    1    2    0    0  0.19944798349E+02  0.30345955796E+02  0.18289175487E+02  0.50528856448E+02  0.29999989660E+02 0.  0.
         12    1    1    2    0    0 -0.19944798349E+02 -0.30345955796E+02 -0.18289175487E+02  0.40659143552E+02  0.00000000000E+00 0. -1.
         11    1    3    3    0    0 -0.56441213957E+00  0.15487817564E+02  0.10748930955E+02  0.18860821056E+02  0.51100000000E-03 0. -1.
        -11    1    3    3    0    0 -0.67895769925E+00  0.53619479311E+01  0.64617699692E+01  0.84241284754E+01  0.51100000000E-03 0.  1.
        -12    1    3    3    0    0  0.21188168188E+02  0.94961903007E+01  0.10784745631E+01  0.23243906917E+02  0.00000000000E+00 0.  1.
</event>
<event>
 7    1  0.6245487E-013  0.5052886E+02  0.7816164E-02  0.1300439E+00
        -11   -1    0    0    0    0  0.00000000000E+00  0.00000000000E+00  0.45593999997E+02  0.45594000000E+02  0.51100000000E-03 0.  1.
         11   -1    0    0    0    0 -0.00000000000E+00 -0.00000000000E+00 -0.45593999997E+02  0.45594000000E+02  0.51100000000E-03 0. -1.
    9900012    2    1    2    0    0  0.18347922300E+02 -0.22376010702E+02  0.28562798009E+02  0.50528861571E+02  0.30000005232E+02 0.  0.
         12    1    1    2    0    0 -0.18347922300E+02  0.22376010702E+02 -0.28562798009E+02  0.40659138429E+02  0.00000000000E+00 0. -1.
         11    1    3    3    0    0  0.59630761149E+00 -0.10053150013E+02  0.10189341656E+02  0.14326342575E+02  0.51100000000E-03 0. -1.
        -11    1    3    3    0    0  0.90001674006E+00  0.29367036774E+01  0.12291021994E+02  0.12668996824E+02  0.51100000000E-03 0.  1.
        -12    1    3    3    0    0  0.16851597949E+02 -0.15259564366E+02  0.60824343597E+01  0.23533522172E+02  0.00000000000E+00 0.  1.
</event>
<event>
 7    1  0.6245487E-013  0.5052886E+02  0.7816164E-02  0.1300439E+00
        -11   -1    0    0    0    0  0.00000000000E+00  0.00000000000E+00  0.45593999997E+02  0.45594000000E+02  0.51100000000E-03 0. -1.
         11   -1    0    0    0    0 -0.00000000000E+00 -0.00000000000E+00 -0.45593999997E+02  0.45594000000E+02  0.51100000000E-03 0.  1.
    9900012    2    1    2    0    0 -0.18526029046E+02  0.25435794028E+02 -0.25748244679E+02  0.50528862354E+02  0.30000007611E+02 0.  0.
         12    1    1    2    0    0  0.18526029046E+02 -0.25435794028E+02  0.25748244679E+02  0.40659137646E+02  0.00000000000E+00 0. -1.
         11    1    3    3    0    0 -0.94756936774E+01  0.10501490435E+02 -0.11347686794E+02  0.18133947939E+02  0.51100000000E-03 0. -1.
        -11    1    3    3    0    0 -0.14984070824E+02  0.24459022326E+01 -0.79481407437E+01  0.17137028848E+02  0.51100000000E-03 0.  1.
         12    1    3    3    0    0  0.59337354558E+01  0.12488401360E+02 -0.64524171415E+01  0.15257885567E+02  0.00000000000E+00 0. -1.
</event>
<event>
 7    1  0.6245487E-013  0.5052887E+02  0.7816164E-02  0.1300439E+00
        -11   -1    0    0    0    0  0.00000000000E+00  0.00000000000E+00  0.45593999997E+02  0.45594000000E+02  0.51100000000E-03 0.  1.
         11   -1    0    0    0    0 -0.00000000000E+00 -0.00000000000E+00 -0.45593999997E+02  0.45594000000E+02  0.51100000000E-03 0. -1.
    9900012    2    1    2    0    0  0.14988181007E+02  0.31439446152E+02  0.20978098058E+02  0.50528868893E+02  0.30000027486E+02 0.  0.
         12    1    1    2    0    0 -0.14988181007E+02 -0.31439446152E+02 -0.20978098058E+02  0.40659131107E+02  0.00000000000E+00 0. -1.
         11    1    3    3    0    0 -0.11895788774E+01  0.81498454124E+01 -0.31662046514E+01  0.88238274183E+01  0.51100000000E-03 0. -1.
        -11    1    3    3    0    0  0.14035741028E+02  0.26580119611E+02  0.20878166164E+02  0.36597849765E+02  0.51100000000E-03 0.  1.
         12    1    3    3    0    0  0.21420188559E+01 -0.32905188717E+01  0.32661365458E+01  0.51071917097E+01  0.00000000000E+00 0. -1.
</event>
<event>
 7    1  0.6245487E-013  0.5052896E+02  0.7816164E-02  0.1300438E+00
        -11   -1    0    0    0    0  0.00000000000E+00  0.00000000000E+00  0.45593999997E+02  0.45594000000E+02  0.51100000000E-03 0.  1.
         11   -1    0    0    0    0 -0.00000000000E+00 -0.00000000000E+00 -0.45593999997E+02  0.45594000000E+02  0.51100000000E-03 0. -1.
    9900012    2    1    2    0    0 -0.24022104841E+02 -0.20237684031E+02  0.25817283450E+02  0.50528960406E+02  0.30000305650E+02 0.  0.
         12    1    1    2    0    0  0.24022104841E+02  0.20237684031E+02 -0.25817283450E+02  0.40659039594E+02  0.00000000000E+00 0. -1.
         11    1    3    3    0    0 -0.51864272138E-01 -0.54460365584E+01  0.14134041859E+02  0.15147050658E+02  0.51100000000E-03 0. -1.
        -11    1    3    3    0    0 -0.97368468592E+00 -0.89387998201E+01  0.13806133499E+00  0.89927340273E+01  0.51100000000E-03 0.  1.
         12    1    3    3    0    0 -0.22996555883E+02 -0.58528476526E+01  0.11545180256E+02  0.26389175721E+02  0.00000000000E+00 0. -1.
</event>
<event>
 7    1  0.7634164E-013  0.5052890E+02  0.7816164E-02  0.1300439E+00
        -11   -1    0    0    0    0  0.00000000000E+00  0.00000000000E+00  0.45593999997E+02  0.45594000000E+02  0.51100000000E-03 0. -1.
         11   -1    0    0    0    0 -0.00000000000E+00 -0.00000000000E+00 -0.45593999997E+02  0.45594000000E+02  0.51100000000E-03 0.  1.
    9900012    2    1    2    0    0 -0.14293786151E+02 -0.30818888427E+02 -0.22339341917E+02  0.50528900112E+02  0.30000122381E+02 0.  0.
         12    1    1    2    0    0  0.14293786151E+02  0.30818888427E+02  0.22339341917E+02  0.40659099888E+02  0.00000000000E+00 0. -1.
         11    1    3    3    0    0 -0.14487928095E+02 -0.25190314289E+02 -0.67117201245E+01  0.29824472866E+02  0.51100000000E-03 0. -1.
        -11    1    3    3    0    0  0.49173007405E+01 -0.67160118871E+01 -0.73111024708E+01  0.11078667873E+02  0.51100000000E-03 0.  1.
        -12    1    3    3    0    0 -0.47231587967E+01  0.10874377490E+01 -0.83165193221E+01  0.96257593732E+01  0.00000000000E+00 0.  1.
</event>
<event>
 7    1  0.6245487E-013  0.5052886E+02  0.7816164E-02  0.1300439E+00
        -11   -1    0    0    0    0  0.00000000000E+00  0.00000000000E+00  0.45593999997E+02  0.45594000000E+02  0.51100000000E-03 0. -1.
         11   -1    0    0    0    0 -0.00000000000E+00 -0.00000000000E+00 -0.45593999997E+02  0.45594000000E+02  0.51100000000E-03 0.  1.
    9900012    2    1    2    0    0  0.18436712177E+02  0.34429880279E+02 -0.11306487819E+02  0.50528859838E+02  0.29999999964E+02 0.  0.
         12    1    1    2    0    0 -0.18436712177E+02 -0.34429880279E+02  0.11306487819E+02  0.40659140162E+02  0.00000000000E+00 0. -1.
         11    1    3    3    0    0  0.57947207040E+00  0.21448170050E+02 -0.74856564659E+00  0.21469050682E+02  0.51100000000E-03 0. -1.
        -11    1    3    3    0    0  0.15132990454E+02  0.16598706104E+02 -0.79067359440E+01  0.23812620981E+02  0.51100000000E-03 0.  1.
        -12    1    3    3    0    0  0.27242496520E+01 -0.36169958757E+01 -0.26511862284E+01  0.52471881755E+01  0.00000000000E+00 0.  1.
</event>
<event>
 7    1  0.6245487E-013  0.5052885E+02  0.7816164E-02  0.1300439E+00
        -11   -1    0    0    0    0  0.00000000000E+00  0.00000000000E+00  0.45593999997E+02  0.45594000000E+02  0.51100000000E-03 0.  1.
         11   -1    0    0    0    0 -0.00000000000E+00 -0.00000000000E+00 -0.45593999997E+02  0.45594000000E+02  0.51100000000E-03 0. -1.
    9900012    2    1    2    0    0  0.13029168840E+01 -0.24127660231E+02  0.32700531266E+02  0.50528851882E+02  0.29999975781E+02 0.  0.
         12    1    1    2    0    0 -0.13029168840E+01  0.24127660231E+02 -0.32700531266E+02  0.40659148118E+02  0.00000000000E+00 0. -1.
         11    1    3    3    0    0 -0.73539436955E+00 -0.10729472769E+01 -0.30055615693E+01  0.32749689076E+01  0.51100000000E-03 0. -1.
        -11    1    3    3    0    0  0.21804738849E+01 -0.10718913058E+02  0.32805203101E+02  0.34580788225E+02  0.51100000000E-03 0.  1.
         12    1    3    3    0    0 -0.14216263139E+00 -0.12335799896E+02  0.29008897343E+01  0.12673094750E+02  0.00000000000E+00 0. -1.
</event>
<event>
 7    1  0.6245487E-013  0.5052879E+02  0.7816164E-02  0.1300439E+00
        -11   -1    0    0    0    0  0.00000000000E+00  0.00000000000E+00  0.45593999997E+02  0.45594000000E+02  0.51100000000E-03 0.  1.
         11   -1    0    0    0    0 -0.00000000000E+00 -0.00000000000E+00 -0.45593999997E+02  0.45594000000E+02  0.51100000000E-03 0. -1.
    9900012    2    1    2    0    0 -0.67780035874E+01  0.20865719105E+02  0.34232315662E+02  0.50528794376E+02  0.29999800984E+02 0.  0.
         12    1    1    2    0    0  0.67780035874E+01 -0.20865719105E+02 -0.34232315662E+02  0.40659205624E+02  0.00000000000E+00 0. -1.
         11    1    3    3    0    0 -0.77529067697E+01  0.11319077992E+02  0.17592044621E+02  0.22309395423E+02  0.51100000000E-03 0. -1.
        -11    1    3    3    0    0  0.24362911736E+01  0.59032136185E+01  0.21235914436E+02  0.22175380671E+02  0.51100000000E-03 0.  1.
        -12    1    3    3    0    0 -0.14613879913E+01  0.36434274948E+01 -0.45956433948E+01  0.60440182812E+01  0.00000000000E+00 0.  1.
</event>
<event>
 7    1  0.6245487E-013  0.5052886E+02  0.7816164E-02  0.1300439E+00
        -11   -1    0    0    0    0  0.00000000000E+00  0.00000000000E+00  0.45593999997E+02  0.45594000000E+02  0.51100000000E-03 0.  1.
         11   -1    0    0    0    0 -0.00000000000E+00 -0.00000000000E+00 -0.45593999997E+02  0.45594000000E+02  0.51100000000E-03 0. -1.
    9900012    2    1    2    0    0 -0.35427482377E+02  0.18207171686E+02  0.81583034746E+01  0.50528861742E+02  0.30000005750E+02 0.  0.
         12    1    1    2    0    0  0.35427482377E+02 -0.18207171686E+02 -0.81583034746E+01  0.40659138258E+02  0.00000000000E+00 0. -1.
         11    1    3    3    0    0 -0.15092960602E+02  0.17082982167E+01  0.99371850150E+01  0.18151126379E+02  0.51100000000E-03 0. -1.
        -11    1    3    3    0    0 -0.10041225670E+02 -0.10537248599E+01 -0.57889714150E+01  0.11638244685E+02  0.51100000000E-03 0.  1.
        -12    1    3    3    0    0 -0.10293296105E+02  0.17552598329E+02  0.40100898745E+01  0.20739490678E+02  0.00000000000E+00 0.  1.
</event>
<event>
 7    1  0.6245487E-013  0.5052886E+02  0.7816164E-02  0.1300439E+00
        -11   -1    0    0    0    0  0.00000000000E+00  0.00000000000E+00  0.45593999997E+02  0.45594000000E+02  0.51100000000E-03 0.  1.
         11   -1    0    0    0    0 -0.00000000000E+00 -0.00000000000E+00 -0.45593999997E+02  0.45594000000E+02  0.51100000000E-03 0. -1.
    9900012    2    1    2    0    0 -0.96556851372E+01  0.16362963116E+02  0.35947001142E+02  0.50528859472E+02  0.29999998851E+02 0.  0.
         12    1    1    2    0    0  0.96556851372E+01 -0.16362963116E+02 -0.35947001142E+02  0.40659140528E+02  0.00000000000E+00 0. -1.
         11    1    3    3    0    0  0.13551872608E+01  0.73513528717E+01  0.18078753675E+02  0.19563237367E+02  0.51100000000E-03 0. -1.
        -11    1    3    3    0    0  0.14706411511E+01  0.64061094732E+01  0.16952652985E+02  0.18182229441E+02  0.51100000000E-03 0.  1.
         12    1    3    3    0    0 -0.12481513549E+02  0.26055007708E+01  0.91559448174E+00  0.12783392664E+02  0.00000000000E+00 0. -1.
</event>
<event>
 7    1  0.6245487E-013  0.5052887E+02  0.7816164E-02  0.1300439E+00
        -11   -1    0    0    0    0  0.00000000000E+00  0.00000000000E+00  0.45593999997E+02  0.45594000000E+02  0.51100000000E-03 0. -1.
         11   -1    0    0    0    0 -0.00000000000E+00 -0.00000000000E+00 -0.45593999997E+02  0.45594000000E+02  0.51100000000E-03 0.  1.
    9900012    2    1    2    0    0 -0.38635856915E+02  0.55564621658E+01 -0.11382507581E+02  0.50528865846E+02  0.30000018225E+02 0.  0.
         12    1    1    2    0    0  0.38635856915E+02 -0.55564621658E+01  0.11382507581E+02  0.40659134154E+02  0.00000000000E+00 0. -1.
         11    1    3    3    0    0 -0.10888982762E+02  0.12491243253E+02 -0.36547108012E+01  0.16969325706E+02  0.51100000000E-03 0. -1.
        -11    1    3    3    0    0 -0.22674220383E+02  0.15658697980E+01 -0.47156241110E+01  0.23212266784E+02  0.51100000000E-03 0.  1.
         12    1    3    3    0    0 -0.50726537692E+01 -0.85006508852E+01 -0.30121726685E+01  0.10347273357E+02  0.00000000000E+00 0. -1.
</event>
<event>
 7    1  0.6245487E-013  0.5052887E+02  0.7816164E-02  0.1300439E+00
        -11   -1    0    0    0    0  0.00000000000E+00  0.00000000000E+00  0.45593999997E+02  0.45594000000E+02  0.51100000000E-03 0. -1.
         11   -1    0    0    0    0 -0.00000000000E+00 -0.00000000000E+00 -0.45593999997E+02  0.45594000000E+02  0.51100000000E-03 0.  1.
    9900012    2    1    2    0    0 -0.41101443391E+01 -0.28004528671E+01 -0.40353801534E+02  0.50528866697E+02  0.30000020812E+02 0.  0.
         12    1    1    2    0    0  0.41101443391E+01  0.28004528671E+01  0.40353801534E+02  0.40659133303E+02  0.00000000000E+00 0. -1.
         11    1    3    3    0    0  0.23662215107E+01 -0.45973903693E+01 -0.27242805816E+01  0.58443739951E+01  0.51100000000E-03 0. -1.
        -11    1    3    3    0    0 -0.11969438041E+01 -0.76458533522E+01 -0.31099728457E+02  0.32048164664E+02  0.51100000000E-03 0.  1.
         12    1    3    3    0    0 -0.52794220457E+01  0.94427908544E+01 -0.65297924949E+01  0.12636328038E+02  0.00000000000E+00 0. -1.
</event>
<event>
 7    1  0.6245487E-013  0.5052887E+02  0.7816164E-02  0.1300439E+00
        -11   -1    0    0    0    0  0.00000000000E+00  0.00000000000E+00  0.45593999997E+02  0.45594000000E+02  0.51100000000E-03 0. -1.
         11   -1    0    0    0    0 -0.00000000000E+00 -0.00000000000E+00 -0.45593999997E+02  0.45594000000E+02  0.51100000000E-03 0.  1.
    9900012    2    1    2    0    0  0.36626014985E+02 -0.97471400171E+01 -0.14720507382E+02  0.50528867572E+02  0.30000023471E+02 0.  0.
         12    1    1    2    0    0 -0.36626014985E+02  0.97471400171E+01  0.14720507382E+02  0.40659132428E+02  0.00000000000E+00 0. -1.
         11    1    3    3    0    0  0.94633403009E+00  0.11980501982E+01  0.99407067995E+00  0.18218257742E+01  0.51100000000E-03 0. -1.
        -11    1    3    3    0    0  0.70636483016E+01 -0.13508085800E+02 -0.12658920770E+02  0.19814433745E+02  0.51100000000E-03 0.  1.
        -12    1    3    3    0    0  0.28616032654E+02  0.25628955847E+01 -0.30556572924E+01  0.28892608053E+02  0.00000000000E+00 0.  1.
</event>
<event>
 7    1  0.6245487E-013  0.5052885E+02  0.7816164E-02  0.1300439E+00
        -11   -1    0    0    0    0  0.00000000000E+00  0.00000000000E+00  0.45593999997E+02  0.45594000000E+02  0.51100000000E-03 0. -1.
         11   -1    0    0    0    0 -0.00000000000E+00 -0.00000000000E+00 -0.45593999997E+02  0.45594000000E+02  0.51100000000E-03 0.  1.
    9900012    2    1    2    0    0  0.19439163154E+02  0.28076782114E+02 -0.22067618535E+02  0.50528849175E+02  0.29999967551E+02 0.  0.
         12    1    1    2    0    0 -0.19439163154E+02 -0.28076782114E+02  0.22067618535E+02  0.40659150825E+02  0.00000000000E+00 0. -1.
         11    1    3    3    0    0  0.14297874963E+02  0.14025172250E+02 -0.20351767533E+02  0.28553968675E+02  0.51100000000E-03 0. -1.
        -11    1    3    3    0    0  0.95474956075E+01  0.31582215292E+01 -0.18411311555E+01  0.10223443637E+02  0.51100000000E-03 0.  1.
         12    1    3    3    0    0 -0.44062074167E+01  0.10893388336E+02  0.12528015373E+00  0.11751436863E+02  0.00000000000E+00 0. -1.
</event>
<event>
 7    1  0.6245487E-013  0.5052886E+02  0.7816164E-02  0.1300439E+00
        -11   -1    0    0    0    0  0.00000000000E+00  0.00000000000E+00  0.45593999997E+02  0.45594000000E+02  0.51100000000E-03 0.  1.
         11   -1    0    0    0    0 -0.00000000000E+00 -0.00000000000E+00 -0.45593999997E+02  0.45594000000E+02  0.51100000000E-03 0. -1.
    9900012    2    1    2    0    0  0.16054712041E+02  0.37288337137E+02  0.22342085432E+01  0.50528861384E+02  0.30000004663E+02 0.  0.
         12    1    1    2    0    0 -0.16054712041E+02 -0.37288337137E+02 -0.22342085432E+01  0.40659138616E+02  0.00000000000E+00 0. -1.
         11    1    3    3    0    0  0.79836189462E+01  0.56009408142E+01  0.12460486417E+02  0.15823161236E+02  0.51100000000E-03 0. -1.
        -11    1    3    3    0    0  0.14105066922E+01  0.23642443158E+01 -0.23539660372E+01  0.36222005299E+01  0.51100000000E-03 0.  1.
        -12    1    3    3    0    0  0.66605864023E+01  0.29323152007E+02 -0.78723118370E+01  0.31083499618E+02  0.00000000000E+00 0.  1.
</event>
<event>
 7    1  0.6245487E-013  0.5052878E+02  0.7816164E-02  0.1300439E+00
        -11   -1    0    0    0    0  0.00000000000E+00  0.00000000000E+00  0.45593999997E+02  0.45594000000E+02  0.51100000000E-03 0.  1.
         11   -1    0    0    0    0 -0.00000000000E+00 -0.00000000000E+00 -0.45593999997E+02  0.45594000000E+02  0.51100000000E-03 0. -1.
    9900012    2    1    2    0    0 -0.30370546952E+02  0.26418675442E+02 -0.57320081511E+01  0.50528776548E+02  0.29999746796E+02 0.  0.
         12    1    1    2    0    0  0.30370546952E+02 -0.26418675442E+02  0.57320081511E+01  0.40659223452E+02  0.00000000000E+00 0. -1.
         11    1    3    3    0    0  0.30009138523E+00 -0.15041619965E+01  0.12813647277E-01  0.15338587295E+01  0.51100000000E-03 0. -1.
        -11    1    3    3    0    0 -0.13414329523E+02  0.21006358790E+02 -0.14074352148E+02  0.28623394886E+02  0.51100000000E-03 0.  1.
         12    1    3    3    0    0 -0.17256308814E+02  0.69164786487E+01  0.83295303493E+01  0.20371522933E+02  0.00000000000E+00 0. -1.
</event>
<event>
 7    1  0.6245487E-013  0.5052886E+02  0.7816164E-02  0.1300439E+00
        -11   -1    0    0    0    0  0.00000000000E+00  0.00000000000E+00  0.45593999997E+02  0.45594000000E+02  0.51100000000E-03 0.  1.
         11   -1    0    0    0    0 -0.00000000000E+00 -0.00000000000E+00 -0.45593999997E+02  0.45594000000E+02  0.51100000000E-03 0. -1.
    9900012    2    1    2    0    0  0.30067722992E+02 -0.19497040358E+02 -0.19208411279E+02  0.50528860652E+02  0.30000002437E+02 0.  0.
         12    1    1    2    0    0 -0.30067722992E+02  0.19497040358E+02  0.19208411279E+02  0.40659139348E+02  0.00000000000E+00 0. -1.
         11    1    3    3    0    0  0.91666310490E+01 -0.26227743115E+01 -0.13514286666E+02  0.16539105606E+02  0.51100000000E-03 0. -1.
        -11    1    3    3    0    0  0.52818922069E+01 -0.12573778509E+02 -0.10364528264E+02  0.17129557428E+02  0.51100000000E-03 0.  1.
         12    1    3    3    0    0  0.15619199736E+02 -0.43004875377E+01  0.46704036512E+01  0.16860197618E+02  0.00000000000E+00 0. -1.
</event>
<event>
 7    1  0.6245487E-013  0.5052886E+02  0.7816164E-02  0.1300439E+00
        -11   -1    0    0    0    0  0.00000000000E+00  0.00000000000E+00  0.45593999997E+02  0.45594000000E+02  0.51100000000E-03 0.  1.
         11   -1    0    0    0    0 -0.00000000000E+00 -0.00000000000E+00 -0.45593999997E+02  0.45594000000E+02  0.51100000000E-03 0. -1.
    9900012    2    1    2    0    0  0.10045186042E+02 -0.26395362993E+02  0.29249698696E+02  0.50528858052E+02  0.29999994536E+02 0.  0.
         12    1    1    2    0    0 -0.10045186042E+02  0.26395362993E+02 -0.29249698696E+02  0.40659141948E+02  0.00000000000E+00 0. -1.
         11    1    3    3    0    0  0.46749323131E+01 -0.44857155606E+01  0.12008926428E+01  0.65892928015E+01  0.51100000000E-03 0. -1.
        -11    1    3    3    0    0  0.12028547015E+02 -0.59155602441E+01  0.34307574453E+01  0.13836541953E+02  0.51100000000E-03 0.  1.
         12    1    3    3    0    0 -0.66582932860E+01 -0.15994087188E+02  0.24618048608E+02  0.30103023298E+02  0.00000000000E+00 0. -1.
</event>
<event>
 7    1  0.6245487E-013  0.5052886E+02  0.7816164E-02  0.1300439E+00
        -11   -1    0    0    0    0  0.00000000000E+00  0.00000000000E+00  0.45593999997E+02  0.45594000000E+02  0.51100000000E-03 0. -1.
         11   -1    0    0    0    0 -0.00000000000E+00 -0.00000000000E+00 -0.45593999997E+02  0.45594000000E+02  0.51100000000E-03 0.  1.
    9900012    2    1    2    0    0  0.33506191144E+02  0.18894623184E+01 -0.22954974410E+02  0.50528858802E+02  0.29999996813E+02 0.  0.
         12    1    1    2    0    0 -0.33506191144E+02 -0.18894623184E+01  0.22954974410E+02  0.40659141198E+02  0.00000000000E+00 0. -1.
         11    1    3    3    0    0  0.66592312933E+00  0.31351587188E+01 -0.12073227309E+01  0.34249528820E+01  0.51100000000E-03 0. -1.
        -11    1    3    3    0    0  0.28484554243E+02  0.30217302317E+01 -0.47371143474E+01  0.29033445138E+02  0.51100000000E-03 0.  1.
        -12    1    3    3    0    0  0.43557137715E+01 -0.42674266320E+01 -0.17010537332E+02  0.18070460781E+02  0.00000000000E+00 0.  1.
</event>
<event>
 7    1  0.6245487E-013  0.5052886E+02  0.7816164E-02  0.1300439E+00
        -11   -1    0    0    0    0  0.00000000000E+00  0.00000000000E+00  0.45593999997E+02  0.45594000000E+02  0.51100000000E-03 0.  1.
         11   -1    0    0    0    0 -0.00000000000E+00 -0.00000000000E+00 -0.45593999997E+02  0.45594000000E+02  0.51100000000E-03 0. -1.
    9900012    2    1    2    0    0 -0.10520698976E+02  0.13368703123E+01  0.39251663632E+02  0.50528862933E+02  0.30000009370E+02 0.  0.
         12    1    1    2    0    0  0.10520698976E+02 -0.13368703123E+01 -0.39251663632E+02  0.40659137067E+02  0.00000000000E+00 0. -1.
         11    1    3    3    0    0  0.43191232309E+01  0.78306964884E+01  0.22415703474E+02  0.24133760492E+02  0.51100000000E-03 0. -1.
        -11    1    3    3    0    0 -0.57874588504E+01  0.34113832828E+01  0.39612446166E+01  0.77989534567E+01  0.51100000000E-03 0.  1.
        -12    1    3    3    0    0 -0.90523633567E+01 -0.99052094589E+01  0.12874715541E+02  0.18596148984E+02  0.00000000000E+00 0.  1.
</event>
<event>
 7    1  0.6245487E-013  0.5052887E+02  0.7816164E-02  0.1300439E+00
        -11   -1    0    0    0    0  0.00000000000E+00  0.00000000000E+00  0.45593999997E+02  0.45594000000E+02  0.51100000000E-03 0. -1.
         11   -1    0    0    0    0 -0.00000000000E+00 -0.00000000000E+00 -0.45593999997E+02  0.45594000000E+02  0.51100000000E-03 0.  1.
    9900012    2    1    2    0    0  0.28304826140E+02  0.12946582884E+02 -0.26160796939E+02  0.50528874485E+02  0.30000044483E+02 0.  0.
         12    1    1    2    0    0 -0.28304826140E+02 -0.12946582884E+02  0.26160796939E+02  0.40659125515E+02  0.00000000000E+00 0. -1.
         11    1    3    3    0    0  0.41093221534E+01 -0.66258315318E+01 -0.66669444816E+01  0.10258475570E+02  0.51100000000E-03 0.  1.
        -11    1    3    3    0    0  0.56477931791E+01  0.13234785123E+02 -0.13608583181E+02  0.19805318516E+02  0.51100000000E-03 0. -1.
        -12    1    3    3    0    0  0.18547710808E+02  0.63376292927E+01 -0.58852692761E+01  0.20465080398E+02  0.00000000000E+00 0.  1.
</event>
<event>
 7    1  0.6245487E-013  0.5052886E+02  0.7816164E-02  0.1300439E+00
        -11   -1    0    0    0    0  0.00000000000E+00  0.00000000000E+00  0.45593999997E+02  0.45594000000E+02  0.51100000000E-03 0. -1.
         11   -1    0    0    0    0 -0.00000000000E+00 -0.00000000000E+00 -0.45593999997E+02  0.45594000000E+02  0.51100000000E-03 0.  1.
    9900012    2    1    2    0    0  0.22756940716E+02  0.32241594490E+02 -0.97860415434E+01  0.50528863572E+02  0.30000011312E+02 0.  0.
         12    1    1    2    0    0 -0.22756940716E+02 -0.32241594490E+02  0.97860415434E+01  0.40659136428E+02  0.00000000000E+00 0. -1.
         11    1    3    3    0    0  0.71864553081E+01 -0.70264807142E+00  0.44210448100E+01  0.84666694562E+01  0.51100000000E-03 0. -1.
        -11    1    3    3    0    0 -0.62040070011E+00  0.72905774367E+01  0.21119466176E+01  0.76156244107E+01  0.51100000000E-03 0.  1.
        -12    1    3    3    0    0  0.16190886108E+02  0.25653665125E+02 -0.16319032971E+02  0.34446569705E+02  0.00000000000E+00 0.  1.
</event>
<event>
 7    1  0.6245487E-013  0.5052896E+02  0.7816164E-02  0.1300438E+00
        -11   -1    0    0    0    0  0.00000000000E+00  0.00000000000E+00  0.45593999997E+02  0.45594000000E+02  0.51100000000E-03 0. -1.
         11   -1    0    0    0    0 -0.00000000000E+00 -0.00000000000E+00 -0.45593999997E+02  0.45594000000E+02  0.51100000000E-03 0.  1.
    9900012    2    1    2    0    0 -0.42093737084E+01 -0.25880245349E+01 -0.40357662527E+02  0.50528958907E+02  0.30000301092E+02 0.  0.
         12    1    1    2    0    0  0.42093737084E+01  0.25880245349E+01  0.40357662527E+02  0.40659041093E+02  0.00000000000E+00 0. -1.
         11    1    3    3    0    0 -0.16371264834E+02 -0.20517565150E+01 -0.29852677243E+02  0.34108801736E+02  0.51100000000E-03 0. -1.
        -11    1    3    3    0    0  0.21476572145E+01  0.23593476782E+00 -0.37111269716E+01  0.42942473597E+01  0.51100000000E-03 0.  1.
         12    1    3    3    0    0  0.10014233911E+02 -0.77220278766E+00 -0.67938583124E+01  0.12125909811E+02  0.00000000000E+00 0. -1.
</event>
<event>
 7    1  0.6245487E-013  0.5052886E+02  0.7816164E-02  0.1300439E+00
        -11   -1    0    0    0    0  0.00000000000E+00  0.00000000000E+00  0.45593999997E+02  0.45594000000E+02  0.51100000000E-03 0.  1.
         11   -1    0    0    0    0 -0.00000000000E+00 -0.00000000000E+00 -0.45593999997E+02  0.45594000000E+02  0.51100000000E-03 0. -1.
    9900012    2    1    2    0    0  0.14048091084E+02  0.17358928201E+02  0.33977701581E+02  0.50528862576E+02  0.30000008285E+02 0.  0.
         12    1    1    2    0    0 -0.14048091084E+02 -0.17358928201E+02 -0.33977701581E+02  0.40659137424E+02  0.00000000000E+00 0. -1.
         11    1    3    3    0    0 -0.11424837524E+01  0.56537930519E+01  0.23346241456E+02  0.24048235598E+02  0.51100000000E-03 0. -1.
        -11    1    3    3    0    0  0.98433246409E+01  0.18306634547E+01  0.11463868382E+02  0.15220468035E+02  0.51100000000E-03 0.  1.
         12    1    3    3    0    0  0.53472501957E+01  0.98744716940E+01 -0.83240825769E+00  0.11260158942E+02  0.00000000000E+00 0. -1.
</event>
<event>
 7    1  0.6245487E-013  0.5052886E+02  0.7816164E-02  0.1300439E+00
        -11   -1    0    0    0    0  0.00000000000E+00  0.00000000000E+00  0.45593999997E+02  0.45594000000E+02  0.51100000000E-03 0. -1.
         11   -1    0    0    0    0 -0.00000000000E+00 -0.00000000000E+00 -0.45593999997E+02  0.45594000000E+02  0.51100000000E-03 0.  1.
    9900012    2    1    2    0    0  0.24869827527E+02  0.31365975986E+02  0.71297435271E+01  0.50528855721E+02  0.29999987449E+02 0.  0.
         12    1    1    2    0    0 -0.24869827527E+02 -0.31365975986E+02 -0.71297435271E+01  0.40659144279E+02  0.00000000000E+00 0. -1.
         11    1    3    3    0    0  0.13906130373E+02  0.10557060561E+02  0.54862213694E+01  0.18301109661E+02  0.51100000000E-03 0. -1.
        -11    1    3    3    0    0  0.13258211170E+02  0.22021390609E+02 -0.40021160476E+01  0.26014202676E+02  0.51100000000E-03 0.  1.
        -12    1    3    3    0    0 -0.22945140154E+01 -0.12124751837E+01  0.56456382053E+01  0.62135433839E+01  0.00000000000E+00 0.  1.
</event>
<event>
 7    1  0.6245487E-013  0.5052886E+02  0.7816164E-02  0.1300439E+00
        -11   -1    0    0    0    0  0.00000000000E+00  0.00000000000E+00  0.45593999997E+02  0.45594000000E+02  0.51100000000E-03 0.  1.
         11   -1    0    0    0    0 -0.00000000000E+00 -0.00000000000E+00 -0.45593999997E+02  0.45594000000E+02  0.51100000000E-03 0. -1.
    9900012    2    1    2    0    0  0.67171868894E+01 -0.16877918174E+02  0.36375556727E+02  0.50528857747E+02  0.29999993607E+02 0.  0.
         12    1    1    2    0    0 -0.67171868894E+01  0.16877918174E+02 -0.36375556727E+02  0.40659142253E+02  0.00000000000E+00 0. -1.
         11    1    3    3    0    0 -0.32918661100E+01 -0.84816189267E+00  0.16969655220E+01  0.37994017064E+01  0.51100000000E-03 0. -1.
        -11    1    3    3    0    0  0.27491853858E+01  0.12262998725E+01  0.25861343623E+02  0.26035954484E+02  0.51100000000E-03 0.  1.
         12    1    3    3    0    0  0.72598676136E+01 -0.17256056153E+02  0.88172475817E+01  0.20693501556E+02  0.00000000000E+00 0. -1.
</event>
<event>
 7    1  0.6245487E-013  0.5052884E+02  0.7816164E-02  0.1300439E+00
        -11   -1    0    0    0    0  0.00000000000E+00  0.00000000000E+00  0.45593999997E+02  0.45594000000E+02  0.51100000000E-03 0. -1.
         11   -1    0    0    0    0 -0.00000000000E+00 -0.00000000000E+00 -0.45593999997E+02  0.45594000000E+02  0.51100000000E-03 0.  1.
    9900012    2    1    2    0    0 -0.11998520194E+02  0.27768540364E+02 -0.27168203149E+02  0.50528836419E+02  0.29999928778E+02 0.  0.
         12    1    1    2    0    0  0.11998520194E+02 -0.27768540364E+02  0.27168203149E+02  0.40659163581E+02  0.00000000000E+00 0. -1.
         11    1    3    3    0    0 -0.82548102577E+01  0.72141980027E+01 -0.77542598490E+01  0.13428145489E+02  0.51100000000E-03 0. -1.
        -11    1    3    3    0    0 -0.37478787742E+01 -0.31014192618E+01  0.19353477418E+01  0.52355484800E+01  0.51100000000E-03 0.  1.
        -12    1    3    3    0    0  0.41688379517E-02  0.23655761623E+02 -0.21349291042E+02  0.31865142449E+02  0.00000000000E+00 0.  1.
</event>
<event>
 7    1  0.6245487E-013  0.5052887E+02  0.7816164E-02  0.1300439E+00
        -11   -1    0    0    0    0  0.00000000000E+00  0.00000000000E+00  0.45593999997E+02  0.45594000000E+02  0.51100000000E-03 0.  1.
         11   -1    0    0    0    0 -0.00000000000E+00 -0.00000000000E+00 -0.45593999997E+02  0.45594000000E+02  0.51100000000E-03 0. -1.
    9900012    2    1    2    0    0 -0.33094006821E+02  0.22499418708E+02  0.71921864454E+01  0.50528872174E+02  0.30000037461E+02 0.  0.
         12    1    1    2    0    0  0.33094006821E+02 -0.22499418708E+02 -0.71921864454E+01  0.40659127826E+02  0.00000000000E+00 0. -1.
         11    1    3    3    0    0 -0.34403113298E+01  0.37242325089E+01  0.94698886305E+01  0.10741714982E+02  0.51100000000E-03 0. -1.
        -11    1    3    3    0    0 -0.19113883190E+02  0.13485890310E+01  0.86091468632E+00  0.19180729843E+02  0.51100000000E-03 0.  1.
         12    1    3    3    0    0 -0.10539812302E+02  0.17426597168E+02 -0.31386168715E+01  0.20606427349E+02  0.00000000000E+00 0. -1.
</event>
<event>
 7    1  0.6245487E-013  0.5052886E+02  0.7816164E-02  0.1300439E+00
        -11   -1    0    0    0    0  0.00000000000E+00  0.00000000000E+00  0.45593999997E+02  0.45594000000E+02  0.51100000000E-03 0.  1.
         11   -1    0    0    0    0 -0.00000000000E+00 -0.00000000000E+00 -0.45593999997E+02  0.45594000000E+02  0.51100000000E-03 0. -1.
    9900012    2    1    2    0    0 -0.38443596174E+02 -0.17520763912E+01 -0.13121967769E+02  0.50528857159E+02  0.29999991820E+02 0.  0.
         12    1    1    2    0    0  0.38443596174E+02  0.17520763912E+01  0.13121967769E+02  0.40659142841E+02  0.00000000000E+00 0. -1.
         11    1    3    3    0    0 -0.18647687450E+02 -0.69281750012E+01 -0.17226966821E+02  0.26315475337E+02  0.51100000000E-03 0. -1.
        -11    1    3    3    0    0 -0.12168143395E+02 -0.24570702090E+01 -0.62873610600E+00  0.12429650720E+02  0.51100000000E-03 0.  1.
         12    1    3    3    0    0 -0.76277653291E+01  0.76331688190E+01  0.47337351578E+01  0.11783731102E+02  0.00000000000E+00 0. -1.
</event>
<event>
 7    1  0.6245487E-013  0.5052885E+02  0.7816164E-02  0.1300439E+00
        -11   -1    0    0    0    0  0.00000000000E+00  0.00000000000E+00  0.45593999997E+02  0.45594000000E+02  0.51100000000E-03 0.  1.
         11   -1    0    0    0    0 -0.00000000000E+00 -0.00000000000E+00 -0.45593999997E+02  0.45594000000E+02  0.51100000000E-03 0. -1.
    9900012    2    1    2    0    0 -0.17894634299E+02  0.36458419158E+02  0.19319663043E+01  0.50528846566E+02  0.29999959622E+02 0.  0.
         12    1    1    2    0    0  0.17894634299E+02 -0.36458419158E+02 -0.19319663043E+01  0.40659153434E+02  0.00000000000E+00 0. -1.
         11    1    3    3    0    0 -0.13813014952E+02  0.24973486793E+02  0.36631496450E+01  0.28773131394E+02  0.51100000000E-03 0.  1.
        -11    1    3    3    0    0  0.14427917178E+01  0.14313475803E+02  0.19841888898E+01  0.14522198295E+02  0.51100000000E-03 0. -1.
         12    1    3    3    0    0 -0.55244110647E+01 -0.28285434383E+01 -0.37153722306E+01  0.72335168767E+01  0.00000000000E+00 0. -1.
</event>
<event>
 7    1  0.6245487E-013  0.5052886E+02  0.7816164E-02  0.1300439E+00
        -11   -1    0    0    0    0  0.00000000000E+00  0.00000000000E+00  0.45593999997E+02  0.45594000000E+02  0.51100000000E-03 0. -1.
         11   -1    0    0    0    0 -0.00000000000E+00 -0.00000000000E+00 -0.45593999997E+02  0.45594000000E+02  0.51100000000E-03 0.  1.
    9900012    2    1    2    0    0 -0.31150609526E+02 -0.10676125238E+02 -0.23850064144E+02  0.50528859778E+02  0.29999999781E+02 0.  0.
         12    1    1    2    0    0  0.31150609526E+02  0.10676125238E+02  0.23850064144E+02  0.40659140222E+02  0.00000000000E+00 0. -1.
         11    1    3    3    0    0 -0.34737284719E+01 -0.72008600159E+00  0.51572376128E+01  0.62595857213E+01  0.51100000000E-03 0. -1.
        -11    1    3    3    0    0 -0.18501212038E+02 -0.94126467495E+01 -0.97561752725E+01  0.22936340639E+02  0.51100000000E-03 0.  1.
        -12    1    3    3    0    0 -0.91756690157E+01 -0.54339248710E+00 -0.19251126484E+02  0.21332933417E+02  0.00000000000E+00 0.  1.
</event>
<event>
 7    1  0.6245487E-013  0.5052886E+02  0.7816164E-02  0.1300439E+00
        -11   -1    0    0    0    0  0.00000000000E+00  0.00000000000E+00  0.45593999997E+02  0.45594000000E+02  0.51100000000E-03 0.  1.
         11   -1    0    0    0    0 -0.00000000000E+00 -0.00000000000E+00 -0.45593999997E+02  0.45594000000E+02  0.51100000000E-03 0. -1.
    9900012    2    1    2    0    0 -0.23902869571E+02 -0.16559559529E+02  0.28418295498E+02  0.50528859520E+02  0.29999998998E+02 0.  0.
         12    1    1    2    0    0  0.23902869571E+02  0.16559559529E+02 -0.28418295498E+02  0.40659140480E+02  0.00000000000E+00 0. -1.
         11    1    3    3    0    0 -0.61737084837E+01 -0.17085091335E+02  0.57402361103E+01  0.19051649095E+02  0.51100000000E-03 0. -1.
        -11    1    3    3    0    0 -0.10465781935E+02 -0.42970332149E+01  0.63667635942E+01  0.12982016980E+02  0.51100000000E-03 0.  1.
         12    1    3    3    0    0 -0.72633791528E+01  0.48225650214E+01  0.16311295794E+02  0.18495193445E+02  0.00000000000E+00 0. -1.
</event>
<event>
 7    1  0.6245487E-013  0.5052887E+02  0.7816164E-02  0.1300439E+00
        -11   -1    0    0    0    0  0.00000000000E+00  0.00000000000E+00  0.45593999997E+02  0.45594000000E+02  0.51100000000E-03 0.  1.
         11   -1    0    0    0    0 -0.00000000000E+00 -0.00000000000E+00 -0.45593999997E+02  0.45594000000E+02  0.51100000000E-03 0. -1.
    9900012    2    1    2    0    0 -0.15901032209E+02  0.20576859471E+02  0.31255637257E+02  0.50528870259E+02  0.30000031639E+02 0.  0.
         12    1    1    2    0    0  0.15901032209E+02 -0.20576859471E+02 -0.31255637257E+02  0.40659129741E+02  0.00000000000E+00 0. -1.
         11    1    3    3    0    0  0.64589160497E+01  0.45677762532E+01  0.10769039345E+02  0.13362424373E+02  0.51100000000E-03 0. -1.
        -11    1    3    3    0    0 -0.10520186212E+02  0.15755620728E+02  0.10407613972E+02  0.21615557622E+02  0.51100000000E-03 0.  1.
         12    1    3    3    0    0 -0.11839762046E+02  0.25346248930E+00  0.10078983940E+02  0.15550888264E+02  0.00000000000E+00 0. -1.
</event>
<event>
 7    1  0.6245487E-013  0.5052887E+02  0.7816164E-02  0.1300439E+00
        -11   -1    0    0    0    0  0.00000000000E+00  0.00000000000E+00  0.45593999997E+02  0.45594000000E+02  0.51100000000E-03 0.  1.
         11   -1    0    0    0    0 -0.00000000000E+00 -0.00000000000E+00 -0.45593999997E+02  0.45594000000E+02  0.51100000000E-03 0. -1.
    9900012    2    1    2    0    0 -0.42414966773E+01 -0.40389844821E+02  0.19584143928E+01  0.50528865164E+02  0.30000016152E+02 0.  0.
         12    1    1    2    0    0  0.42414966773E+01  0.40389844821E+02 -0.19584143928E+01  0.40659134836E+02  0.00000000000E+00 0. -1.
         11    1    3    3    0    0  0.77857372100E+01 -0.40509401768E+01 -0.49506880310E+01  0.10076563524E+02  0.51100000000E-03 0. -1.
        -11    1    3    3    0    0 -0.43620095618E+01 -0.34254447055E+01 -0.12537269035E+01  0.56861788802E+01  0.51100000000E-03 0.  1.
        -12    1    3    3    0    0 -0.76652243256E+01 -0.32913459938E+02  0.81628293273E+01  0.34766122759E+02  0.00000000000E+00 0.  1.
</event>
<event>
 7    1  0.6245487E-013  0.5052884E+02  0.7816164E-02  0.1300439E+00
        -11   -1    0    0    0    0  0.00000000000E+00  0.00000000000E+00  0.45593999997E+02  0.45594000000E+02  0.51100000000E-03 0.  1.
         11   -1    0    0    0    0 -0.00000000000E+00 -0.00000000000E+00 -0.45593999997E+02  0.45594000000E+02  0.51100000000E-03 0. -1.
    9900012    2    1    2    0    0 -0.24318289264E+01  0.18105862809E+02  0.36323972196E+02  0.50528843392E+02  0.29999949975E+02 0.  0.
         12    1    1    2    0    0  0.24318289264E+01 -0.18105862809E+02 -0.36323972196E+02  0.40659156608E+02  0.00000000000E+00 0. -1.
         11    1    3    3    0    0 -0.98358851439E+01  0.14454570856E+02  0.14280483234E+02  0.22574575453E+02  0.51100000000E-03 0. -1.
        -11    1    3    3    0    0 -0.14614600199E+01 -0.20714656282E+01 -0.90835567313E+00  0.26929436549E+01  0.51100000000E-03 0.  1.
        -12    1    3    3    0    0  0.88655162373E+01  0.57227575811E+01  0.22951844634E+02  0.25261324284E+02  0.00000000000E+00 0.  1.
</event>
<event>
 7    1  0.6245487E-013  0.5052884E+02  0.7816164E-02  0.1300439E+00
        -11   -1    0    0    0    0  0.00000000000E+00  0.00000000000E+00  0.45593999997E+02  0.45594000000E+02  0.51100000000E-03 0. -1.
         11   -1    0    0    0    0 -0.00000000000E+00 -0.00000000000E+00 -0.45593999997E+02  0.45594000000E+02  0.51100000000E-03 0.  1.
    9900012    2    1    2    0    0 -0.16009087868E+02  0.34078567591E+02 -0.15346905367E+02  0.50528841527E+02  0.29999944304E+02 0.  0.
         12    1    1    2    0    0  0.16009087868E+02 -0.34078567591E+02  0.15346905367E+02  0.40659158473E+02  0.00000000000E+00 0. -1.
         11    1    3    3    0    0 -0.10860948605E+02  0.98292115593E+01 -0.13752344736E+02  0.20092301771E+02  0.51100000000E-03 0. -1.
        -11    1    3    3    0    0 -0.37969639099E+01 -0.18615838755E+01 -0.60617994101E+00  0.42719882772E+01  0.51100000000E-03 0.  1.
        -12    1    3    3    0    0 -0.13511753529E+01  0.26110939907E+02 -0.98838069084E+00  0.26164551478E+02  0.00000000000E+00 0.  1.
</event>
<event>
 7    1  0.6245487E-013  0.5052886E+02  0.7816164E-02  0.1300439E+00
        -11   -1    0    0    0    0  0.00000000000E+00  0.00000000000E+00  0.45593999997E+02  0.45594000000E+02  0.51100000000E-03 0.  1.
         11   -1    0    0    0    0 -0.00000000000E+00 -0.00000000000E+00 -0.45593999997E+02  0.45594000000E+02  0.51100000000E-03 0. -1.
    9900012    2    1    2    0    0  0.22902872246E+02  0.33413752815E+02 -0.34850463349E+01  0.50528856105E+02  0.29999988617E+02 0.  0.
         12    1    1    2    0    0 -0.22902872246E+02 -0.33413752815E+02  0.34850463349E+01  0.40659143895E+02  0.00000000000E+00 0. -1.
         11    1    3    3    0    0 -0.11419471032E+01  0.71794080606E+01  0.43111758650E+01  0.84518744008E+01  0.51100000000E-03 0. -1.
        -11    1    3    3    0    0  0.22705659295E+02  0.29694158882E+02 -0.56902067333E+01  0.37810957257E+02  0.51100000000E-03 0.  1.
        -12    1    3    3    0    0  0.13391600538E+01 -0.34598141272E+01 -0.21060154665E+01  0.42660244479E+01  0.00000000000E+00 0.  1.
</event>
<event>
 7    1  0.6245487E-013  0.5052886E+02  0.7816164E-02  0.1300439E+00
        -11   -1    0    0    0    0  0.00000000000E+00  0.00000000000E+00  0.45593999997E+02  0.45594000000E+02  0.51100000000E-03 0. -1.
         11   -1    0    0    0    0 -0.00000000000E+00 -0.00000000000E+00 -0.45593999997E+02  0.45594000000E+02  0.51100000000E-03 0.  1.
    9900012    2    1    2    0    0  0.12749072147E+02 -0.20142967267E+02 -0.32937634588E+02  0.50528859046E+02  0.29999997555E+02 0.  0.
         12    1    1    2    0    0 -0.12749072147E+02  0.20142967267E+02  0.32937634588E+02  0.40659140954E+02  0.00000000000E+00 0. -1.
         11    1    3    3    0    0  0.37254322845E+00  0.23449693693E+01 -0.15882747486E+02  0.16059244620E+02  0.51100000000E-03 0. -1.
        -11    1    3    3    0    0  0.26550424349E+01 -0.12057292354E+02 -0.15947634943E+02  0.20168158314E+02  0.51100000000E-03 0.  1.
         12    1    3    3    0    0  0.97214864837E+01 -0.10430644282E+02 -0.11072521597E+01  0.14301456112E+02  0.00000000000E+00 0. -1.
</event>
<event>
 7    1  0.6245487E-013  0.5052885E+02  0.7816164E-02  0.1300439E+00
        -11   -1    0    0    0    0  0.00000000000E+00  0.00000000000E+00  0.45593999997E+02  0.45594000000E+02  0.51100000000E-03 0. -1.
         11   -1    0    0    0    0 -0.00000000000E+00 -0.00000000000E+00 -0.45593999997E+02  0.45594000000E+02  0.51100000000E-03 0.  1.
    9900012    2    1    2    0    0 -0.36076269565E+02  0.21842744806E+01 -0.18625204998E+02  0.50528849223E+02  0.29999967698E+02 0.  0.
         12    1    1    2    0    0  0.36076269565E+02 -0.21842744806E+01  0.18625204998E+02  0.40659150777E+02  0.00000000000E+00 0. -1.
         11    1    3    3    0    0 -0.45127835891E+01  0.10454113557E+01  0.50181490903E+01  0.68293426608E+01  0.51100000000E-03 0. -1.
        -11    1    3    3    0    0 -0.22896449578E+02 -0.76774903863E+01 -0.13233860297E+02  0.27537725405E+02  0.51100000000E-03 0.  1.
         12    1    3    3    0    0 -0.86670363978E+01  0.88163535111E+01 -0.10409493792E+02  0.16161781157E+02  0.00000000000E+00 0. -1.
</event>
<event>
 7    1  0.6245487E-013  0.5052885E+02  0.7816164E-02  0.1300439E+00
        -11   -1    0    0    0    0  0.00000000000E+00  0.00000000000E+00  0.45593999997E+02  0.45594000000E+02  0.51100000000E-03 0. -1.
         11   -1    0    0    0    0 -0.00000000000E+00 -0.00000000000E+00 -0.45593999997E+02  0.45594000000E+02  0.51100000000E-03 0.  1.
    9900012    2    1    2    0    0 -0.20920206644E+02  0.17344316887E+02 -0.30243777300E+02  0.50528850481E+02  0.29999971521E+02 0.  0.
         12    1    1    2    0    0  0.20920206644E+02 -0.17344316887E+02  0.30243777300E+02  0.40659149519E+02  0.00000000000E+00 0. -1.
         11    1    3    3    0    0  0.22938754562E+00 -0.36168940912E+01 -0.48908633747E+01  0.60872889142E+01  0.51100000000E-03 0. -1.
        -11    1    3    3    0    0 -0.15979158408E+02  0.11589377358E+01 -0.11725387202E+02  0.19853497057E+02  0.51100000000E-03 0.  1.
         12    1    3    3    0    0 -0.51704357815E+01  0.19802273242E+02 -0.13627526723E+02  0.24588064509E+02  0.00000000000E+00 0. -1.
</event>
<event>
 7    1  0.6245487E-013  0.5052886E+02  0.7816164E-02  0.1300439E+00
        -11   -1    0    0    0    0  0.00000000000E+00  0.00000000000E+00  0.45593999997E+02  0.45594000000E+02  0.51100000000E-03 0.  1.
         11   -1    0    0    0    0 -0.00000000000E+00 -0.00000000000E+00 -0.45593999997E+02  0.45594000000E+02  0.51100000000E-03 0. -1.
    9900012    2    1    2    0    0 -0.46656872047E+01  0.24664326519E+02  0.31985439619E+02  0.50528856043E+02  0.29999988429E+02 0.  0.
         12    1    1    2    0    0  0.46656872047E+01 -0.24664326519E+02 -0.31985439619E+02  0.40659143957E+02  0.00000000000E+00 0. -1.
         11    1    3    3    0    0 -0.34483228295E+01  0.12965081697E+02  0.95909378179E+01  0.16491523951E+02  0.51100000000E-03 0. -1.
        -11    1    3    3    0    0  0.77285896412E+01  0.10328227917E+02  0.39482242104E+01  0.13490436036E+02  0.51100000000E-03 0.  1.
        -12    1    3    3    0    0 -0.89459540164E+01  0.13710169046E+01  0.18446277590E+02  0.20546896057E+02  0.00000000000E+00 0.  1.
</event>
<event>
 7    1  0.6245487E-013  0.5052884E+02  0.7816164E-02  0.1300439E+00
        -11   -1    0    0    0    0  0.00000000000E+00  0.00000000000E+00  0.45593999997E+02  0.45594000000E+02  0.51100000000E-03 0.  1.
         11   -1    0    0    0    0 -0.00000000000E+00 -0.00000000000E+00 -0.45593999997E+02  0.45594000000E+02  0.51100000000E-03 0. -1.
    9900012    2    1    2    0    0  0.37880973154E+02 -0.14447731039E+02  0.30760621846E+01  0.50528840911E+02  0.29999942432E+02 0.  0.
         12    1    1    2    0    0 -0.37880973154E+02  0.14447731039E+02 -0.30760621846E+01  0.40659159089E+02  0.00000000000E+00 0. -1.
         11    1    3    3    0    0  0.41778255628E+01  0.42013607825E+01 -0.53893193758E+01  0.80093958857E+01  0.51100000000E-03 0. -1.
        -11    1    3    3    0    0  0.10479807380E+02  0.16383289081E+01  0.41151693731E+01  0.11377394410E+02  0.51100000000E-03 0.  1.
        -12    1    3    3    0    0  0.23223340212E+02 -0.20287420730E+02  0.43502121873E+01  0.31142050615E+02  0.00000000000E+00 0.  1.
</event>
<event>
 7    1  0.6245487E-013  0.5052886E+02  0.7816164E-02  0.1300439E+00
        -11   -1    0    0    0    0  0.00000000000E+00  0.00000000000E+00  0.45593999997E+02  0.45594000000E+02  0.51100000000E-03 0.  1.
         11   -1    0    0    0    0 -0.00000000000E+00 -0.00000000000E+00 -0.45593999997E+02  0.45594000000E+02  0.51100000000E-03 0. -1.
    9900012    2    1    2    0    0 -0.24920581056E+01 -0.29942575321E+02  0.27393387567E+02  0.50528857696E+02  0.29999993453E+02 0.  0.
         12    1    1    2    0    0  0.24920581056E+01  0.29942575321E+02 -0.27393387567E+02  0.40659142304E+02  0.00000000000E+00 0. -1.
         11    1    3    3    0    0 -0.12349203742E+02 -0.17552918236E+02  0.96369728896E+01  0.23526134795E+02  0.51100000000E-03 0. -1.
        -11    1    3    3    0    0 -0.14353993721E+01  0.61652925973E+00  0.58717198585E+01  0.60759833808E+01  0.51100000000E-03 0.  1.
        -12    1    3    3    0    0  0.11292545008E+02 -0.13006186346E+02  0.11884694819E+02  0.20926739521E+02  0.00000000000E+00 0.  1.
</event>
<event>
 7    1  0.6245487E-013  0.5052886E+02  0.7816164E-02  0.1300439E+00
        -11   -1    0    0    0    0  0.00000000000E+00  0.00000000000E+00  0.45593999997E+02  0.45594000000E+02  0.51100000000E-03 0.  1.
         11   -1    0    0    0    0 -0.00000000000E+00 -0.00000000000E+00 -0.45593999997E+02  0.45594000000E+02  0.51100000000E-03 0. -1.
    9900012    2    1    2    0    0  0.38631005038E+02  0.12639780771E+02  0.10233738262E+01  0.50528857090E+02  0.29999991611E+02 0.  0.
         12    1    1    2    0    0 -0.38631005038E+02 -0.12639780771E+02 -0.10233738262E+01  0.40659142910E+02  0.00000000000E+00 0. -1.
         11    1    3    3    0    0  0.95979665178E+01  0.17698801077E+01 -0.76794912431E+01  0.12418857552E+02  0.51100000000E-03 0. -1.
        -11    1    3    3    0    0  0.11572215899E+02 -0.13117056378E+01 -0.51242280989E+01  0.12723775633E+02  0.51100000000E-03 0.  1.
        -12    1    3    3    0    0  0.17460822621E+02  0.12181606301E+02  0.13827093168E+02  0.25386223905E+02  0.00000000000E+00 0.  1.
</event>
<event>
 7    1  0.6245487E-013  0.5052886E+02  0.7816164E-02  0.1300439E+00
        -11   -1    0    0    0    0  0.00000000000E+00  0.00000000000E+00  0.45593999997E+02  0.45594000000E+02  0.51100000000E-03 0. -1.
         11   -1    0    0    0    0 -0.00000000000E+00 -0.00000000000E+00 -0.45593999997E+02  0.45594000000E+02  0.51100000000E-03 0.  1.
    9900012    2    1    2    0    0 -0.29294077469E+02 -0.25107033950E+02 -0.12831967333E+02  0.50528861862E+02  0.30000006116E+02 0.  0.
         12    1    1    2    0    0  0.29294077469E+02  0.25107033950E+02  0.12831967333E+02  0.40659138138E+02  0.00000000000E+00 0. -1.
         11    1    3    3    0    0 -0.52488762291E+01  0.53677450194E+01 -0.25463039725E+00  0.75118722807E+01  0.51100000000E-03 0. -1.
        -11    1    3    3    0    0 -0.11851487327E+02 -0.53551626549E+01 -0.20006938818E+01  0.13158202582E+02  0.51100000000E-03 0.  1.
         12    1    3    3    0    0 -0.12193713912E+02 -0.25119616314E+02 -0.10576643054E+02  0.29858786999E+02  0.00000000000E+00 0. -1.
</event>
<event>
 7    1  0.6245487E-013  0.5052887E+02  0.7816164E-02  0.1300439E+00
        -11   -1    0    0    0    0  0.00000000000E+00  0.00000000000E+00  0.45593999997E+02  0.45594000000E+02  0.51100000000E-03 0.  1.
         11   -1    0    0    0    0 -0.00000000000E+00 -0.00000000000E+00 -0.45593999997E+02  0.45594000000E+02  0.51100000000E-03 0. -1.
    9900012    2    1    2    0    0  0.18218624347E+02  0.36239062640E+02 -0.28244132197E+01  0.50528865182E+02  0.30000016208E+02 0.  0.
         12    1    1    2    0    0 -0.18218624347E+02 -0.36239062640E+02  0.28244132197E+01  0.40659134818E+02  0.00000000000E+00 0. -1.
         11    1    3    3    0    0 -0.99884848577E+00  0.23268964469E+02 -0.32982001354E+01  0.23522766209E+02  0.51100000000E-03 0. -1.
        -11    1    3    3    0    0  0.20642937576E+00  0.32173254970E+01  0.42229858550E+01  0.53129470384E+01  0.51100000000E-03 0.  1.
        -12    1    3    3    0    0  0.19011043457E+02  0.97527726739E+01 -0.37491989393E+01  0.21693151934E+02  0.00000000000E+00 0.  1.
</event>
<event>
 7    1  0.6245487E-013  0.5052886E+02  0.7816164E-02  0.1300439E+00
        -11   -1    0    0    0    0  0.00000000000E+00  0.00000000000E+00  0.45593999997E+02  0.45594000000E+02  0.51100000000E-03 0.  1.
         11   -1    0    0    0    0 -0.00000000000E+00 -0.00000000000E+00 -0.45593999997E+02  0.45594000000E+02  0.51100000000E-03 0. -1.
    9900012    2    1    2    0    0 -0.39514594515E+02 -0.30132594877E+00  0.95745440465E+01  0.50528857477E+02  0.29999992786E+02 0.  0.
         12    1    1    2    0    0  0.39514594515E+02  0.30132594877E+00 -0.95745440465E+01  0.40659142523E+02  0.00000000000E+00 0. -1.
         11    1    3    3    0    0 -0.15451008244E+02  0.11005684683E+01  0.33113369366E+01  0.15840134446E+02  0.51100000000E-03 0. -1.
        -11    1    3    3    0    0 -0.15031940794E+02 -0.47459327405E+01  0.14945415271E+02  0.21722075395E+02  0.51100000000E-03 0.  1.
        -12    1    3    3    0    0 -0.90316454779E+01  0.33440383234E+01 -0.86822081610E+01  0.12966647635E+02  0.00000000000E+00 0.  1.
</event>
<event>
 7    1  0.6245487E-013  0.5052886E+02  0.7816164E-02  0.1300439E+00
        -11   -1    0    0    0    0  0.00000000000E+00  0.00000000000E+00  0.45593999997E+02  0.45594000000E+02  0.51100000000E-03 0.  1.
         11   -1    0    0    0    0 -0.00000000000E+00 -0.00000000000E+00 -0.45593999997E+02  0.45594000000E+02  0.51100000000E-03 0. -1.
    9900012    2    1    2    0    0 -0.17013396580E+02  0.97545239376E+01  0.35616840100E+02  0.50528859587E+02  0.29999999200E+02 0.  0.
         12    1    1    2    0    0  0.17013396580E+02 -0.97545239376E+01 -0.35616840100E+02  0.40659140413E+02  0.00000000000E+00 0. -1.
         11    1    3    3    0    0 -0.54603867971E+01  0.11039406912E+01  0.15508449874E+02  0.16478668841E+02  0.51100000000E-03 0. -1.
        -11    1    3    3    0    0  0.40411589351E+01  0.94056648230E+01  0.13867178713E+02  0.17236477077E+02  0.51100000000E-03 0.  1.
         12    1    3    3    0    0 -0.15594168718E+02 -0.75508157661E+00  0.62412115135E+01  0.16813713669E+02  0.00000000000E+00 0. -1.
</event>
<event>
 7    1  0.9979760E-013  0.5052886E+02  0.7816164E-02  0.1300439E+00
        -11   -1    0    0    0    0  0.00000000000E+00  0.00000000000E+00  0.45593999997E+02  0.45594000000E+02  0.51100000000E-03 0. -1.
         11   -1    0    0    0    0 -0.00000000000E+00 -0.00000000000E+00 -0.45593999997E+02  0.45594000000E+02  0.51100000000E-03 0.  1.
    9900012    2    1    2    0    0 -0.22062185402E+02  0.25307476678E+02  0.22933752168E+02  0.50528863401E+02  0.30000010793E+02 0.  0.
         12    1    1    2    0    0  0.22062185402E+02 -0.25307476678E+02 -0.22933752168E+02  0.40659136599E+02  0.00000000000E+00 0. -1.
         11    1    3    3    0    0 -0.10042372278E+02 -0.17259424282E+01  0.64258155835E+01  0.12046544086E+02  0.51100000000E-03 0. -1.
        -11    1    3    3    0    0  0.18943612536E+01  0.62752977447E+01 -0.25715971523E+01  0.70413832816E+01  0.51100000000E-03 0.  1.
        -12    1    3    3    0    0 -0.13914174378E+02  0.20758121361E+02  0.19079533736E+02  0.31440936033E+02  0.00000000000E+00 0.  1.
</event>
<event>
 7    1  0.6245487E-013  0.5052886E+02  0.7816164E-02  0.1300439E+00
        -11   -1    0    0    0    0  0.00000000000E+00  0.00000000000E+00  0.45593999997E+02  0.45594000000E+02  0.51100000000E-03 0.  1.
         11   -1    0    0    0    0 -0.00000000000E+00 -0.00000000000E+00 -0.45593999997E+02  0.45594000000E+02  0.51100000000E-03 0. -1.
    9900012    2    1    2    0    0 -0.14085199765E+02  0.29576163844E+02  0.24083679924E+02  0.50528856393E+02  0.29999989493E+02 0.  0.
         12    1    1    2    0    0  0.14085199765E+02 -0.29576163844E+02 -0.24083679924E+02  0.40659143607E+02  0.00000000000E+00 0. -1.
         11    1    3    3    0    0 -0.15076213294E+01  0.16238981100E+02 -0.24507564774E+01  0.16491926413E+02  0.51100000000E-03 0. -1.
        -11    1    3    3    0    0 -0.11050340804E+02  0.10006552505E+02  0.12265376577E+02  0.19304936876E+02  0.51100000000E-03 0.  1.
        -12    1    3    3    0    0 -0.15272376312E+01  0.33306302394E+01  0.14269059824E+02  0.14731993104E+02  0.00000000000E+00 0.  1.
</event>
<event>
 7    1  0.6245487E-013  0.5052882E+02  0.7816164E-02  0.1300439E+00
        -11   -1    0    0    0    0  0.00000000000E+00  0.00000000000E+00  0.45593999997E+02  0.45594000000E+02  0.51100000000E-03 0. -1.
         11   -1    0    0    0    0 -0.00000000000E+00 -0.00000000000E+00 -0.45593999997E+02  0.45594000000E+02  0.51100000000E-03 0.  1.
    9900012    2    1    2    0    0 -0.36791692636E+02 -0.35039217880E+01 -0.16948817972E+02  0.50528824584E+02  0.29999892804E+02 0.  0.
         12    1    1    2    0    0  0.36791692636E+02  0.35039217880E+01  0.16948817972E+02  0.40659175416E+02  0.00000000000E+00 0. -1.
         11    1    3    3    0    0 -0.15525122667E+02  0.21904899295E+01 -0.13154324654E+02  0.20466165672E+02  0.51100000000E-03 0. -1.
        -11    1    3    3    0    0 -0.21411620596E+02 -0.37136556819E+01 -0.97252649180E+01  0.23808181641E+02  0.51100000000E-03 0.  1.
         12    1    3    3    0    0  0.14505062696E+00 -0.19807560356E+01  0.59307715999E+01  0.62544772705E+01  0.00000000000E+00 0. -1.
</event>
<event>
 7    1  0.6245487E-013  0.5052893E+02  0.7816164E-02  0.1300439E+00
        -11   -1    0    0    0    0  0.00000000000E+00  0.00000000000E+00  0.45593999997E+02  0.45594000000E+02  0.51100000000E-03 0.  1.
         11   -1    0    0    0    0 -0.00000000000E+00 -0.00000000000E+00 -0.45593999997E+02  0.45594000000E+02  0.51100000000E-03 0. -1.
    9900012    2    1    2    0    0 -0.30902856332E+02  0.41092821241E+01  0.26101487259E+02  0.50528925168E+02  0.30000198541E+02 0.  0.
         12    1    1    2    0    0  0.30902856332E+02 -0.41092821241E+01 -0.26101487259E+02  0.40659074832E+02  0.00000000000E+00 0. -1.
         11    1    3    3    0    0  0.43297808303E+01  0.40320403045E+01  0.55233300159E+01  0.80939190619E+01  0.51100000000E-03 0. -1.
        -11    1    3    3    0    0 -0.68056044333E+01  0.15375601331E+00 -0.81694436121E+00  0.68561863280E+01  0.51100000000E-03 0.  1.
        -12    1    3    3    0    0 -0.28427032729E+02 -0.76514193637E-01  0.21395101604E+02  0.35578819779E+02  0.00000000000E+00 0.  1.
</event>
<event>
 7    1  0.6245487E-013  0.5052885E+02  0.7816164E-02  0.1300439E+00
        -11   -1    0    0    0    0  0.00000000000E+00  0.00000000000E+00  0.45593999997E+02  0.45594000000E+02  0.51100000000E-03 0.  1.
         11   -1    0    0    0    0 -0.00000000000E+00 -0.00000000000E+00 -0.45593999997E+02  0.45594000000E+02  0.51100000000E-03 0. -1.
    9900012    2    1    2    0    0  0.26975240448E+02  0.19011240999E+02  0.23750275481E+02  0.50528850144E+02  0.29999970499E+02 0.  0.
         12    1    1    2    0    0 -0.26975240448E+02 -0.19011240999E+02 -0.23750275481E+02  0.40659149856E+02  0.00000000000E+00 0. -1.
         11    1    3    3    0    0  0.19950268495E+02  0.65293687587E+01  0.15970585656E+02  0.26376229372E+02  0.51100000000E-03 0. -1.
        -11    1    3    3    0    0  0.49795070580E+01  0.16056782793E+02  0.99109020098E+01  0.19515167002E+02  0.51100000000E-03 0.  1.
         12    1    3    3    0    0  0.20454648944E+01 -0.35749105529E+01 -0.21312121847E+01  0.46374537703E+01  0.00000000000E+00 0. -1.
</event>
<event>
 7    1  0.6245487E-013  0.5052886E+02  0.7816164E-02  0.1300439E+00
        -11   -1    0    0    0    0  0.00000000000E+00  0.00000000000E+00  0.45593999997E+02  0.45594000000E+02  0.51100000000E-03 0.  1.
         11   -1    0    0    0    0 -0.00000000000E+00 -0.00000000000E+00 -0.45593999997E+02  0.45594000000E+02  0.51100000000E-03 0. -1.
    9900012    2    1    2    0    0 -0.85792230575E+01  0.94208336694E+01  0.38611015617E+02  0.50528859548E+02  0.29999999082E+02 0.  0.
         12    1    1    2    0    0  0.85792230575E+01 -0.94208336694E+01 -0.38611015617E+02  0.40659140452E+02  0.00000000000E+00 0. -1.
         11    1    3    3    0    0 -0.89560568293E+01 -0.39879434792E+01  0.17630402251E+02  0.20172895947E+02  0.51100000000E-03 0. -1.
        -11    1    3    3    0    0 -0.35462085350E+00  0.48155867050E+01 -0.24312386097E+01  0.54061587751E+01  0.51100000000E-03 0.  1.
        -12    1    3    3    0    0  0.73145462531E+00  0.85931904436E+01  0.23411851976E+02  0.24949804825E+02  0.00000000000E+00 0.  1.
</event>
<event>
 7    1  0.6245487E-013  0.5052886E+02  0.7816164E-02  0.1300439E+00
        -11   -1    0    0    0    0  0.00000000000E+00  0.00000000000E+00  0.45593999997E+02  0.45594000000E+02  0.51100000000E-03 0.  1.
         11   -1    0    0    0    0 -0.00000000000E+00 -0.00000000000E+00 -0.45593999997E+02  0.45594000000E+02  0.51100000000E-03 0. -1.
    9900012    2    1    2    0    0 -0.11948106206E+02 -0.20539468713E+02  0.32993010108E+02  0.50528859171E+02  0.29999997936E+02 0.  0.
         12    1    1    2    0    0  0.11948106206E+02  0.20539468713E+02 -0.32993010108E+02  0.40659140829E+02  0.00000000000E+00 0. -1.
         11    1    3    3    0    0  0.10917436609E+01 -0.11784267787E+01  0.14278575891E+02  0.14368657683E+02  0.51100000000E-03 0. -1.
        -11    1    3    3    0    0 -0.13710626876E+02 -0.12031970155E+02  0.21584900872E+02  0.28260529738E+02  0.51100000000E-03 0.  1.
        -12    1    3    3    0    0  0.67077700916E+00 -0.73290717796E+01 -0.28704666538E+01  0.78996717499E+01  0.00000000000E+00 0.  1.
</event>
<event>
 7    1  0.6245487E-013  0.5052883E+02  0.7816164E-02  0.1300439E+00
        -11   -1    0    0    0    0  0.00000000000E+00  0.00000000000E+00  0.45593999997E+02  0.45594000000E+02  0.51100000000E-03 0. -1.
         11   -1    0    0    0    0 -0.00000000000E+00 -0.00000000000E+00 -0.45593999997E+02  0.45594000000E+02  0.51100000000E-03 0.  1.
    9900012    2    1    2    0    0 -0.19133162271E+02 -0.30849403895E+02 -0.18314051617E+02  0.50528829991E+02  0.29999909242E+02 0.  0.
         12    1    1    2    0    0  0.19133162271E+02  0.30849403895E+02  0.18314051617E+02  0.40659170009E+02  0.00000000000E+00 0. -1.
         11    1    3    3    0    0 -0.13030217291E+02 -0.18744592406E+02 -0.21219397347E+02  0.31167437032E+02  0.51100000000E-03 0. -1.
        -11    1    3    3    0    0 -0.88568095909E+01 -0.77408992995E+01 -0.23509883883E+01  0.11995488517E+02  0.51100000000E-03 0.  1.
         12    1    3    3    0    0  0.27538646115E+01 -0.43639121891E+01  0.52563341179E+01  0.73659044422E+01  0.00000000000E+00 0. -1.
</event>
<event>
 7    1  0.6245487E-013  0.5052886E+02  0.7816164E-02  0.1300439E+00
        -11   -1    0    0    0    0  0.00000000000E+00  0.00000000000E+00  0.45593999997E+02  0.45594000000E+02  0.51100000000E-03 0.  1.
         11   -1    0    0    0    0 -0.00000000000E+00 -0.00000000000E+00 -0.45593999997E+02  0.45594000000E+02  0.51100000000E-03 0. -1.
    9900012    2    1    2    0    0 -0.34302269080E+02 -0.11204558428E+02  0.18734403221E+02  0.50528860097E+02  0.30000000752E+02 0.  0.
         12    1    1    2    0    0  0.34302269080E+02  0.11204558428E+02 -0.18734403221E+02  0.40659139903E+02  0.00000000000E+00 0. -1.
         11    1    3    3    0    0 -0.48041662939E+01  0.49535363759E+01  0.84782391996E+01  0.10931517580E+02  0.51100000000E-03 0. -1.
        -11    1    3    3    0    0 -0.13433408484E+02  0.24279490218E+01  0.29339207614E+01  0.13962782361E+02  0.51100000000E-03 0.  1.
         12    1    3    3    0    0 -0.16064694301E+02 -0.18586043826E+02  0.73222432602E+01  0.25634560157E+02  0.00000000000E+00 0. -1.
</event>
<event>
 7    1  0.6245487E-013  0.5052888E+02  0.7816164E-02  0.1300439E+00
        -11   -1    0    0    0    0  0.00000000000E+00  0.00000000000E+00  0.45593999997E+02  0.45594000000E+02  0.51100000000E-03 0.  1.
         11   -1    0    0    0    0 -0.00000000000E+00 -0.00000000000E+00 -0.45593999997E+02  0.45594000000E+02  0.51100000000E-03 0. -1.
    9900012    2    1    2    0    0  0.34855194040E+02 -0.17160004487E+02 -0.11992227794E+02  0.50528882535E+02  0.30000068954E+02 0.  0.
         12    1    1    2    0    0 -0.34855194040E+02  0.17160004487E+02  0.11992227794E+02  0.40659117465E+02  0.00000000000E+00 0. -1.
         11    1    3    3    0    0  0.10127919010E+02  0.21785960650E+01 -0.36764198642E+01  0.10992592395E+02  0.51100000000E-03 0. -1.
        -11    1    3    3    0    0 -0.22239167327E+01  0.21634207416E+01 -0.35761468121E+01  0.47344504667E+01  0.51100000000E-03 0.  1.
        -12    1    3    3    0    0  0.26951191762E+02 -0.21502021294E+02 -0.47396611181E+01  0.34801839673E+02  0.00000000000E+00 0.  1.
</event>
<event>
 7    1  0.6245487E-013  0.5052892E+02  0.7816164E-02  0.1300439E+00
        -11   -1    0    0    0    0  0.00000000000E+00  0.00000000000E+00  0.45593999997E+02  0.45594000000E+02  0.51100000000E-03 0.  1.
         11   -1    0    0    0    0 -0.00000000000E+00 -0.00000000000E+00 -0.45593999997E+02  0.45594000000E+02  0.51100000000E-03 0. -1.
    9900012    2    1    2    0    0  0.39396274708E+02  0.97911369010E+01  0.22864188781E+01  0.50528923105E+02  0.30000192270E+02 0.  0.
         12    1    1    2    0    0 -0.39396274708E+02 -0.97911369010E+01 -0.22864188781E+01  0.40659076895E+02  0.00000000000E+00 0. -1.
         11    1    3    3    0    0 -0.12215292024E+01 -0.45074133700E+01 -0.36776073356E+01  0.59442160843E+01  0.51100000000E-03 0. -1.
        -11    1    3    3    0    0  0.56550743307E+01  0.42310053598E+01 -0.19990553346E+01  0.73401290542E+01  0.51100000000E-03 0.  1.
         12    1    3    3    0    0  0.34962729579E+02  0.10067544911E+02  0.79630815483E+01  0.37244577967E+02  0.00000000000E+00 0. -1.
</event>
<event>
 7    1  0.6245487E-013  0.5052886E+02  0.7816164E-02  0.1300439E+00
        -11   -1    0    0    0    0  0.00000000000E+00  0.00000000000E+00  0.45593999997E+02  0.45594000000E+02  0.51100000000E-03 0.  1.
         11   -1    0    0    0    0 -0.00000000000E+00 -0.00000000000E+00 -0.45593999997E+02  0.45594000000E+02  0.51100000000E-03 0. -1.
    9900012    2    1    2    0    0 -0.24274873006E+02 -0.18775687359E+02  0.26671515904E+02  0.50528860119E+02  0.30000000819E+02 0.  0.
         12    1    1    2    0    0  0.24274873006E+02  0.18775687359E+02 -0.26671515904E+02  0.40659139881E+02  0.00000000000E+00 0. -1.
         11    1    3    3    0    0 -0.24219052351E+01  0.12829040401E+01 -0.10570779011E+01  0.29374958203E+01  0.51100000000E-03 0. -1.
        -11    1    3    3    0    0 -0.27131857696E+02 -0.13931994624E+02  0.23215901315E+02  0.38330356773E+02  0.51100000000E-03 0.  1.
         12    1    3    3    0    0  0.52788899254E+01 -0.61265967751E+01  0.45126924901E+01  0.92610075262E+01  0.00000000000E+00 0. -1.
</event>
<event>
 7    1  0.6245487E-013  0.5052886E+02  0.7816164E-02  0.1300439E+00
        -11   -1    0    0    0    0  0.00000000000E+00  0.00000000000E+00  0.45593999997E+02  0.45594000000E+02  0.51100000000E-03 0.  1.
         11   -1    0    0    0    0 -0.00000000000E+00 -0.00000000000E+00 -0.45593999997E+02  0.45594000000E+02  0.51100000000E-03 0. -1.
    9900012    2    1    2    0    0  0.19802900239E+02  0.24325563435E+02  0.25870409497E+02  0.50528856110E+02  0.29999988633E+02 0.  0.
         12    1    1    2    0    0 -0.19802900239E+02 -0.24325563435E+02 -0.25870409497E+02  0.40659143890E+02  0.00000000000E+00 0. -1.
         11    1    3    3    0    0  0.10518935397E+02  0.72994665941E+01  0.13629296787E+01  0.12875860826E+02  0.51100000000E-03 0. -1.
        -11    1    3    3    0    0  0.13650630986E+02  0.81017915320E+01  0.22469095540E+02  0.27510707133E+02  0.51100000000E-03 0.  1.
         12    1    3    3    0    0 -0.43666661447E+01  0.89243053088E+01  0.20383842791E+01  0.10142288151E+02  0.00000000000E+00 0. -1.
</event>
<event>
 7    1  0.6245487E-013  0.5052886E+02  0.7816164E-02  0.1300439E+00
        -11   -1    0    0    0    0  0.00000000000E+00  0.00000000000E+00  0.45593999997E+02  0.45594000000E+02  0.51100000000E-03 0.  1.
         11   -1    0    0    0    0 -0.00000000000E+00 -0.00000000000E+00 -0.45593999997E+02  0.45594000000E+02  0.51100000000E-03 0. -1.
    9900012    2    1    2    0    0  0.27855596633E+02  0.29190903183E+02 -0.50122328053E+01  0.50528861174E+02  0.30000004023E+02 0.  0.
         12    1    1    2    0    0 -0.27855596633E+02 -0.29190903183E+02  0.50122328053E+01  0.40659138826E+02  0.00000000000E+00 0. -1.
         11    1    3    3    0    0  0.40185024910E+01  0.55907323209E+01  0.86824214596E+01  0.11081023997E+02  0.51100000000E-03 0. -1.
        -11    1    3    3    0    0  0.13104954737E+02  0.19739108432E+02 -0.31262910914E+01  0.23898659724E+02  0.51100000000E-03 0.  1.
        -12    1    3    3    0    0  0.10732139404E+02  0.38610624300E+01 -0.10568363173E+02  0.15549177452E+02  0.00000000000E+00 0.  1.
</event>
<event>
 7    1  0.7744658E-013  0.5052886E+02  0.7816164E-02  0.1300439E+00
        -11   -1    0    0    0    0  0.00000000000E+00  0.00000000000E+00  0.45593999997E+02  0.45594000000E+02  0.51100000000E-03 0. -1.
         11   -1    0    0    0    0 -0.00000000000E+00 -0.00000000000E+00 -0.45593999997E+02  0.45594000000E+02  0.51100000000E-03 0.  1.
    9900012    2    1    2    0    0  0.95795959141E+01 -0.39966269027E+01 -0.39311878181E+02  0.50528862644E+02  0.30000008492E+02 0.  0.
         12    1    1    2    0    0 -0.95795959141E+01  0.39966269027E+01  0.39311878181E+02  0.40659137356E+02  0.00000000000E+00 0. -1.
         11    1    3    3    0    0  0.94996817977E+01 -0.39007017994E+00 -0.21230635813E+01  0.97418431641E+01  0.51100000000E-03 0. -1.
        -11    1    3    3    0    0 -0.63294038237E+01 -0.84434308046E+00 -0.57826072080E+01  0.86146859713E+01  0.51100000000E-03 0.  1.
        -12    1    3    3    0    0  0.64093179401E+01 -0.27622136423E+01 -0.31406207391E+02  0.32172333508E+02  0.00000000000E+00 0.  1.
</event>
<event>
 7    1  0.6245487E-013  0.5052887E+02  0.7816164E-02  0.1300439E+00
        -11   -1    0    0    0    0  0.00000000000E+00  0.00000000000E+00  0.45593999997E+02  0.45594000000E+02  0.51100000000E-03 0.  1.
         11   -1    0    0    0    0 -0.00000000000E+00 -0.00000000000E+00 -0.45593999997E+02  0.45594000000E+02  0.51100000000E-03 0. -1.
    9900012    2    1    2    0    0 -0.10719658903E+02  0.35198001471E+02  0.17301872939E+02  0.50528865704E+02  0.30000017793E+02 0.  0.
         12    1    1    2    0    0  0.10719658903E+02 -0.35198001471E+02 -0.17301872939E+02  0.40659134296E+02  0.00000000000E+00 0. -1.
         11    1    3    3    0    0 -0.90093452210E+01  0.23750050613E+02  0.78752873926E+01  0.26594235413E+02  0.51100000000E-03 0. -1.
        -11    1    3    3    0    0 -0.92393858854E+01  0.59544094310E+01  0.96279327610E+01  0.14612266516E+02  0.51100000000E-03 0.  1.
         12    1    3    3    0    0  0.75290722034E+01  0.54935414272E+01 -0.20134721462E+00  0.93223637752E+01  0.00000000000E+00 0. -1.
</event>
<event>
 7    1  0.6245487E-013  0.5052885E+02  0.7816164E-02  0.1300439E+00
        -11   -1    0    0    0    0  0.00000000000E+00  0.00000000000E+00  0.45593999997E+02  0.45594000000E+02  0.51100000000E-03 0. -1.
         11   -1    0    0    0    0 -0.00000000000E+00 -0.00000000000E+00 -0.45593999997E+02  0.45594000000E+02  0.51100000000E-03 0.  1.
    9900012    2    1    2    0    0  0.35346068569E+02 -0.19403970608E+02  0.52256870412E+01  0.50528850431E+02  0.29999971369E+02 0.  0.
         12    1    1    2    0    0 -0.35346068569E+02  0.19403970608E+02 -0.52256870412E+01  0.40659149569E+02  0.00000000000E+00 0. -1.
         11    1    3    3    0    0  0.64858160644E+00  0.25144909828E+01  0.22480609778E+01  0.34346908774E+01  0.51100000000E-03 0. -1.
        -11    1    3    3    0    0  0.19089802907E+02 -0.74846461174E+01 -0.93323799211E+01  0.22528511220E+02  0.51100000000E-03 0.  1.
         12    1    3    3    0    0  0.15607684055E+02 -0.14433815474E+02  0.12310005985E+02  0.24565648333E+02  0.00000000000E+00 0. -1.
</event>
<event>
 7    1  0.6245487E-013  0.5052881E+02  0.7816164E-02  0.1300439E+00
        -11   -1    0    0    0    0  0.00000000000E+00  0.00000000000E+00  0.45593999997E+02  0.45594000000E+02  0.51100000000E-03 0. -1.
         11   -1    0    0    0    0 -0.00000000000E+00 -0.00000000000E+00 -0.45593999997E+02  0.45594000000E+02  0.51100000000E-03 0.  1.
    9900012    2    1    2    0    0 -0.18924408159E+02  0.13259529217E+02 -0.33454762917E+02  0.50528812834E+02  0.29999857089E+02 0.  0.
         12    1    1    2    0    0  0.18924408159E+02 -0.13259529217E+02  0.33454762917E+02  0.40659187166E+02  0.00000000000E+00 0. -1.
         11    1    3    3    0    0 -0.12758662401E+01  0.52565707885E+01 -0.25836617600E+00  0.54153600489E+01  0.51100000000E-03 0. -1.
        -11    1    3    3    0    0  0.43965353697E+01  0.54524124806E+01 -0.14470161541E+02  0.16076190482E+02  0.51100000000E-03 0.  1.
        -12    1    3    3    0    0 -0.22045077289E+02  0.25505459475E+01 -0.18726235200E+02  0.29037262303E+02  0.00000000000E+00 0.  1.
</event>
<event>
 7    1  0.6245487E-013  0.5052886E+02  0.7816164E-02  0.1300439E+00
        -11   -1    0    0    0    0  0.00000000000E+00  0.00000000000E+00  0.45593999997E+02  0.45594000000E+02  0.51100000000E-03 0.  1.
         11   -1    0    0    0    0 -0.00000000000E+00 -0.00000000000E+00 -0.45593999997E+02  0.45594000000E+02  0.51100000000E-03 0. -1.
    9900012    2    1    2    0    0 -0.12232210293E+02 -0.36100798737E+02  0.14151711479E+02  0.50528861102E+02  0.30000003807E+02 0.  0.
         12    1    1    2    0    0  0.12232210293E+02  0.36100798737E+02 -0.14151711479E+02  0.40659138898E+02  0.00000000000E+00 0. -1.
         11    1    3    3    0    0 -0.17383639303E+00 -0.22460107799E+02  0.49565314528E+01  0.23001170965E+02  0.51100000000E-03 0. -1.
        -11    1    3    3    0    0 -0.30371372403E+00 -0.34740689837E+01  0.11317077318E+02  0.11842197288E+02  0.51100000000E-03 0.  1.
         12    1    3    3    0    0 -0.11754660176E+02 -0.10166621954E+02 -0.21218972916E+01  0.15685492850E+02  0.00000000000E+00 0. -1.
</event>
<event>
 7    1  0.6245487E-013  0.5052886E+02  0.7816164E-02  0.1300439E+00
        -11   -1    0    0    0    0  0.00000000000E+00  0.00000000000E+00  0.45593999997E+02  0.45594000000E+02  0.51100000000E-03 0.  1.
         11   -1    0    0    0    0 -0.00000000000E+00 -0.00000000000E+00 -0.45593999997E+02  0.45594000000E+02  0.51100000000E-03 0. -1.
    9900012    2    1    2    0    0  0.71173056008E+01  0.38665194001E+02 -0.10368818029E+02  0.50528860149E+02  0.30000000908E+02 0.  0.
         12    1    1    2    0    0 -0.71173056008E+01 -0.38665194001E+02  0.10368818029E+02  0.40659139851E+02  0.00000000000E+00 0. -1.
         11    1    3    3    0    0 -0.75109127854E+01  0.51547883004E+01 -0.23270921180E+01  0.94021811979E+01  0.51100000000E-03 0. -1.
        -11    1    3    3    0    0  0.32467862132E+01  0.25803975686E+02 -0.85369320446E+01  0.27372723483E+02  0.51100000000E-03 0.  1.
        -12    1    3    3    0    0  0.11381432173E+02  0.77064300148E+01  0.49520613376E+00  0.13753955467E+02  0.00000000000E+00 0.  1.
</event>
<event>
 7    1  0.6245487E-013  0.5052886E+02  0.7816164E-02  0.1300439E+00
        -11   -1    0    0    0    0  0.00000000000E+00  0.00000000000E+00  0.45593999997E+02  0.45594000000E+02  0.51100000000E-03 0.  1.
         11   -1    0    0    0    0 -0.00000000000E+00 -0.00000000000E+00 -0.45593999997E+02  0.45594000000E+02  0.51100000000E-03 0. -1.
    9900012    2    1    2    0    0 -0.21691067917E+02 -0.59113244769E+01  0.33878006641E+02  0.50528861809E+02  0.30000005955E+02 0.  0.
         12    1    1    2    0    0  0.21691067917E+02  0.59113244769E+01 -0.33878006641E+02  0.40659138191E+02  0.00000000000E+00 0. -1.
         11    1    3    3    0    0 -0.79926084955E+01 -0.43428234026E+01  0.27937702940E+02  0.29381238087E+02  0.51100000000E-03 0.  1.
        -11    1    3    3    0    0  0.17518373650E+01  0.97181240988E+00 -0.26235232366E+01  0.33009434935E+01  0.51100000000E-03 0. -1.
        -12    1    3    3    0    0 -0.15450296786E+02 -0.25403134841E+01  0.85638269377E+01  0.17846680229E+02  0.00000000000E+00 0.  1.
</event>
<event>
 7    1  0.6245487E-013  0.5052889E+02  0.7816164E-02  0.1300439E+00
        -11   -1    0    0    0    0  0.00000000000E+00  0.00000000000E+00  0.45593999997E+02  0.45594000000E+02  0.51100000000E-03 0.  1.
         11   -1    0    0    0    0 -0.00000000000E+00 -0.00000000000E+00 -0.45593999997E+02  0.45594000000E+02  0.51100000000E-03 0. -1.
    9900012    2    1    2    0    0  0.27712030876E+02 -0.17798294717E+02  0.23841718168E+02  0.50528886934E+02  0.30000082326E+02 0.  0.
         12    1    1    2    0    0 -0.27712030876E+02  0.17798294717E+02 -0.23841718168E+02  0.40659113066E+02  0.00000000000E+00 0. -1.
         11    1    3    3    0    0  0.12243747879E+02 -0.11756509241E+02  0.11284210279E+02  0.20382793565E+02  0.51100000000E-03 0. -1.
        -11    1    3    3    0    0  0.85840820184E+01 -0.92832167551E+01  0.17113240268E+02  0.21277395756E+02  0.51100000000E-03 0.  1.
         12    1    3    3    0    0  0.68842009781E+01  0.32414312787E+01 -0.45557323791E+01  0.88686976130E+01  0.00000000000E+00 0. -1.
</event>
<event>
 7    1  0.6245487E-013  0.5052886E+02  0.7816164E-02  0.1300439E+00
        -11   -1    0    0    0    0  0.00000000000E+00  0.00000000000E+00  0.45593999997E+02  0.45594000000E+02  0.51100000000E-03 0.  1.
         11   -1    0    0    0    0 -0.00000000000E+00 -0.00000000000E+00 -0.45593999997E+02  0.45594000000E+02  0.51100000000E-03 0. -1.
    9900012    2    1    2    0    0 -0.33337334624E+02  0.21666965388E+01  0.23175265662E+02  0.50528863361E+02  0.30000010671E+02 0.  0.
         12    1    1    2    0    0  0.33337334624E+02 -0.21666965388E+01 -0.23175265662E+02  0.40659136639E+02  0.00000000000E+00 0. -1.
         11    1    3    3    0    0 -0.71135812779E+01  0.20449169347E+01  0.18598768613E+02  0.20017465325E+02  0.51100000000E-03 0.  1.
        -11    1    3    3    0    0 -0.50673315298E+01  0.63010008706E+01  0.53435458080E+00  0.81034557988E+01  0.51100000000E-03 0. -1.
         12    1    3    3    0    0 -0.21156421817E+02 -0.61792212664E+01  0.40421424683E+01  0.22407942236E+02  0.00000000000E+00 0. -1.
</event>
<event>
 7    1  0.6245487E-013  0.5052895E+02  0.7816164E-02  0.1300438E+00
        -11   -1    0    0    0    0  0.00000000000E+00  0.00000000000E+00  0.45593999997E+02  0.45594000000E+02  0.51100000000E-03 0.  1.
         11   -1    0    0    0    0 -0.00000000000E+00 -0.00000000000E+00 -0.45593999997E+02  0.45594000000E+02  0.51100000000E-03 0. -1.
    9900012    2    1    2    0    0  0.45370352581E+01 -0.34166574611E+02 -0.21568927746E+02  0.50528952376E+02  0.30000281242E+02 0.  0.
         12    1    1    2    0    0 -0.45370352581E+01  0.34166574611E+02  0.21568927746E+02  0.40659047624E+02  0.00000000000E+00 0. -1.
         11    1    3    3    0    0  0.37737183122E+01 -0.20969611337E+02 -0.57379207694E+01  0.22065567850E+02  0.51100000000E-03 0. -1.
        -11    1    3    3    0    0  0.94370075799E+01 -0.10764765025E+02 -0.11977943275E+02  0.18665701259E+02  0.51100000000E-03 0.  1.
         12    1    3    3    0    0 -0.86736906340E+01 -0.24321982486E+01 -0.38530637009E+01  0.97976832679E+01  0.00000000000E+00 0. -1.
</event>
<event>
 7    1  0.6245487E-013  0.5052884E+02  0.7816164E-02  0.1300439E+00
        -11   -1    0    0    0    0  0.00000000000E+00  0.00000000000E+00  0.45593999997E+02  0.45594000000E+02  0.51100000000E-03 0.  1.
         11   -1    0    0    0    0 -0.00000000000E+00 -0.00000000000E+00 -0.45593999997E+02  0.45594000000E+02  0.51100000000E-03 0. -1.
    9900012    2    1    2    0    0  0.71075575534E+00  0.18606597345E+02  0.36144943495E+02  0.50528836472E+02  0.29999928941E+02 0.  0.
         12    1    1    2    0    0 -0.71075575534E+00 -0.18606597345E+02 -0.36144943495E+02  0.40659163528E+02  0.00000000000E+00 0. -1.
         11    1    3    3    0    0  0.17168566282E+01  0.31734618760E+01 -0.37435119919E+01  0.51992633378E+01  0.51100000000E-03 0. -1.
        -11    1    3    3    0    0  0.66577227301E+01  0.10085710006E+02  0.24668886081E+02  0.27469997434E+02  0.51100000000E-03 0.  1.
         12    1    3    3    0    0 -0.76638236030E+01  0.53474254636E+01  0.15219569406E+02  0.17859575701E+02  0.00000000000E+00 0. -1.
</event>
<event>
 7    1  0.6245487E-013  0.5052882E+02  0.7816164E-02  0.1300439E+00
        -11   -1    0    0    0    0  0.00000000000E+00  0.00000000000E+00  0.45593999997E+02  0.45594000000E+02  0.51100000000E-03 0.  1.
         11   -1    0    0    0    0 -0.00000000000E+00 -0.00000000000E+00 -0.45593999997E+02  0.45594000000E+02  0.51100000000E-03 0. -1.
    9900012    2    1    2    0    0 -0.14482572242E+02  0.21775455564E+02  0.31132831314E+02  0.50528824536E+02  0.29999892660E+02 0.  0.
         12    1    1    2    0    0  0.14482572242E+02 -0.21775455564E+02 -0.31132831314E+02  0.40659175464E+02  0.00000000000E+00 0. -1.
         11    1    3    3    0    0 -0.18191564081E+02  0.14754012908E+02  0.15598254964E+02  0.28141063569E+02  0.51100000000E-03 0. -1.
        -11    1    3    3    0    0  0.27611782799E+01  0.10490969842E+02  0.15336774685E+02  0.18785665059E+02  0.51100000000E-03 0.  1.
        -12    1    3    3    0    0  0.94781355987E+00 -0.34695271852E+01  0.19780166497E+00  0.36020959082E+01  0.00000000000E+00 0.  1.
</event>
<event>
 7    1  0.6245487E-013  0.5052886E+02  0.7816164E-02  0.1300439E+00
        -11   -1    0    0    0    0  0.00000000000E+00  0.00000000000E+00  0.45593999997E+02  0.45594000000E+02  0.51100000000E-03 0.  1.
         11   -1    0    0    0    0 -0.00000000000E+00 -0.00000000000E+00 -0.45593999997E+02  0.45594000000E+02  0.51100000000E-03 0. -1.
    9900012    2    1    2    0    0 -0.18643095629E+02 -0.34335637223E+02 -0.11254555196E+02  0.50528855754E+02  0.29999987551E+02 0.  0.
         12    1    1    2    0    0  0.18643095629E+02  0.34335637223E+02  0.11254555196E+02  0.40659144246E+02  0.00000000000E+00 0. -1.
         11    1    3    3    0    0 -0.94458373520E+01 -0.10483274321E+02 -0.92962050184E+01  0.16897997271E+02  0.51100000000E-03 0. -1.
        -11    1    3    3    0    0 -0.54420727056E+01 -0.26792230516E+02 -0.52463505188E+01  0.27838174606E+02  0.51100000000E-03 0.  1.
        -12    1    3    3    0    0 -0.37551855713E+01  0.29398676138E+01  0.32880003415E+01  0.57926838778E+01  0.00000000000E+00 0.  1.
</event>
<event>
 7    1  0.6417795E-013  0.5052886E+02  0.7816164E-02  0.1300439E+00
        -11   -1    0    0    0    0  0.00000000000E+00  0.00000000000E+00  0.45593999997E+02  0.45594000000E+02  0.51100000000E-03 0.  1.
         11   -1    0    0    0    0 -0.00000000000E+00 -0.00000000000E+00 -0.45593999997E+02  0.45594000000E+02  0.51100000000E-03 0. -1.
    9900012    2    1    2    0    0 -0.11984526286E+02 -0.38638025753E+02  0.40791980937E+01  0.50528858820E+02  0.29999996869E+02 0.  0.
         12    1    1    2    0    0  0.11984526286E+02  0.38638025753E+02 -0.40791980937E+01  0.40659141180E+02  0.00000000000E+00 0. -1.
         11    1    3    3    0    0 -0.54276682940E+00 -0.70072436864E+01 -0.78820409367E+01  0.10560427525E+02  0.51100000000E-03 0. -1.
        -11    1    3    3    0    0 -0.12404486275E+01 -0.20487772297E+02 -0.27520644803E+00  0.20527134854E+02  0.51100000000E-03 0.  1.
        -12    1    3    3    0    0 -0.10201310829E+02 -0.11143009770E+02  0.12236445478E+02  0.19441296441E+02  0.00000000000E+00 0.  1.
</event>
<event>
 7    1  0.6245487E-013  0.5052886E+02  0.7816164E-02  0.1300439E+00
        -11   -1    0    0    0    0  0.00000000000E+00  0.00000000000E+00  0.45593999997E+02  0.45594000000E+02  0.51100000000E-03 0. -1.
         11   -1    0    0    0    0 -0.00000000000E+00 -0.00000000000E+00 -0.45593999997E+02  0.45594000000E+02  0.51100000000E-03 0.  1.
    9900012    2    1    2    0    0  0.13913924231E+02  0.30923383964E+02 -0.22434635173E+02  0.50528858117E+02  0.29999994733E+02 0.  0.
         12    1    1    2    0    0 -0.13913924231E+02 -0.30923383964E+02  0.22434635173E+02  0.40659141883E+02  0.00000000000E+00 0. -1.
         11    1    3    3    0    0  0.35826283521E+01 -0.11174475867E+01  0.16832359016E+01  0.41130521976E+01  0.51100000000E-03 0. -1.
        -11    1    3    3    0    0  0.15143525546E+02  0.19098556609E+02 -0.21198497212E+02  0.32302593005E+02  0.51100000000E-03 0.  1.
         12    1    3    3    0    0 -0.48122296668E+01  0.12942274942E+02 -0.29193738619E+01  0.14113212915E+02  0.00000000000E+00 0. -1.
</event>
<event>
 7    1  0.6245487E-013  0.5052888E+02  0.7816164E-02  0.1300439E+00
        -11   -1    0    0    0    0  0.00000000000E+00  0.00000000000E+00  0.45593999997E+02  0.45594000000E+02  0.51100000000E-03 0. -1.
         11   -1    0    0    0    0 -0.00000000000E+00 -0.00000000000E+00 -0.45593999997E+02  0.45594000000E+02  0.51100000000E-03 0.  1.
    9900012    2    1    2    0    0 -0.35225467896E+02 -0.11995155582E+02  0.16384346299E+02  0.50528878642E+02  0.30000057120E+02 0.  0.
         12    1    1    2    0    0  0.35225467896E+02  0.11995155582E+02 -0.16384346299E+02  0.40659121358E+02  0.00000000000E+00 0. -1.
         11    1    3    3    0    0 -0.25157678648E-01 -0.42005584712E+01 -0.58550270053E+01  0.72060159501E+01  0.51100000000E-03 0.  1.
        -11    1    3    3    0    0 -0.14303994737E+02 -0.76330155593E+01  0.84136510879E+01  0.18266272659E+02  0.51100000000E-03 0. -1.
        -12    1    3    3    0    0 -0.20896315480E+02 -0.16158155117E+00  0.13825722217E+02  0.25056590033E+02  0.00000000000E+00 0.  1.
</event>
<event>
 7    1  0.6245487E-013  0.5052888E+02  0.7816164E-02  0.1300439E+00
        -11   -1    0    0    0    0  0.00000000000E+00  0.00000000000E+00  0.45593999997E+02  0.45594000000E+02  0.51100000000E-03 0.  1.
         11   -1    0    0    0    0 -0.00000000000E+00 -0.00000000000E+00 -0.45593999997E+02  0.45594000000E+02  0.51100000000E-03 0. -1.
    9900012    2    1    2    0    0  0.14657426927E+02 -0.27664202209E+02  0.25942549323E+02  0.50528879088E+02  0.30000058477E+02 0.  0.
         12    1    1    2    0    0 -0.14657426927E+02  0.27664202209E+02 -0.25942549323E+02  0.40659120912E+02  0.00000000000E+00 0. -1.
         11    1    3    3    0    0  0.20886324603E+01 -0.27484686462E+01 -0.35305659872E+01  0.49377486676E+01  0.51100000000E-03 0. -1.
        -11    1    3    3    0    0  0.14499581314E+02 -0.22701831426E+02  0.15018390812E+02  0.30840931750E+02  0.51100000000E-03 0.  1.
         12    1    3    3    0    0 -0.19307868474E+01 -0.22139021368E+01  0.14454724498E+02  0.14750198671E+02  0.00000000000E+00 0. -1.
</event>
<event>
 7    1  0.6245487E-013  0.5052891E+02  0.7816164E-02  0.1300439E+00
        -11   -1    0    0    0    0  0.00000000000E+00  0.00000000000E+00  0.45593999997E+02  0.45594000000E+02  0.51100000000E-03 0.  1.
         11   -1    0    0    0    0 -0.00000000000E+00 -0.00000000000E+00 -0.45593999997E+02  0.45594000000E+02  0.51100000000E-03 0. -1.
    9900012    2    1    2    0    0  0.43530643198E+01  0.12686369929E+02  0.38383181192E+02  0.50528908159E+02  0.30000146839E+02 0.  0.
         12    1    1    2    0    0 -0.43530643198E+01 -0.12686369929E+02 -0.38383181192E+02  0.40659091841E+02  0.00000000000E+00 0. -1.
         11    1    3    3    0    0  0.26632442388E+01 -0.20007635271E+01  0.11134299895E+02  0.11621899973E+02  0.51100000000E-03 0. -1.
        -11    1    3    3    0    0  0.56918059659E+01 -0.78107845709E+00 -0.15696301562E+01  0.59557096805E+01  0.51100000000E-03 0.  1.
        -12    1    3    3    0    0 -0.40019858849E+01  0.15468211913E+02  0.28818511453E+02  0.32951298505E+02  0.00000000000E+00 0.  1.
</event>
<event>
 7    1  0.6245487E-013  0.5052888E+02  0.7816164E-02  0.1300439E+00
        -11   -1    0    0    0    0  0.00000000000E+00  0.00000000000E+00  0.45593999997E+02  0.45594000000E+02  0.51100000000E-03 0. -1.
         11   -1    0    0    0    0 -0.00000000000E+00 -0.00000000000E+00 -0.45593999997E+02  0.45594000000E+02  0.51100000000E-03 0.  1.
    9900012    2    1    2    0    0  0.26550028322E+02 -0.21022427062E+02 -0.22501495628E+02  0.50528883569E+02  0.30000072096E+02 0.  0.
         12    1    1    2    0    0 -0.26550028322E+02  0.21022427062E+02  0.22501495628E+02  0.40659116431E+02  0.00000000000E+00 0. -1.
         11    1    3    3    0    0 -0.37312298764E+01  0.14168803128E+01 -0.33819198915E+01  0.52313486431E+01  0.51100000000E-03 0. -1.
        -11    1    3    3    0    0  0.85899112797E+01 -0.16296481403E+02 -0.10162480105E+02  0.21038961097E+02  0.51100000000E-03 0.  1.
         12    1    3    3    0    0  0.21691346919E+02 -0.61428259721E+01 -0.89570956308E+01  0.24258573829E+02  0.00000000000E+00 0. -1.
</event>
<event>
 7    1  0.6245487E-013  0.5052886E+02  0.7816164E-02  0.1300439E+00
        -11   -1    0    0    0    0  0.00000000000E+00  0.00000000000E+00  0.45593999997E+02  0.45594000000E+02  0.51100000000E-03 0. -1.
         11   -1    0    0    0    0 -0.00000000000E+00 -0.00000000000E+00 -0.45593999997E+02  0.45594000000E+02  0.51100000000E-03 0.  1.
    9900012    2    1    2    0    0  0.16661021822E+02 -0.17866397431E+02 -0.32501813110E+02  0.50528860059E+02  0.30000000635E+02 0.  0.
         12    1    1    2    0    0 -0.16661021822E+02  0.17866397431E+02  0.32501813110E+02  0.40659139941E+02  0.00000000000E+00 0. -1.
         11    1    3    3    0    0  0.75134107587E+01 -0.91076162739E-02 -0.10976923910E+01  0.75931780582E+01  0.51100000000E-03 0. -1.
        -11    1    3    3    0    0  0.80647209024E+01 -0.22814296755E+02 -0.25594431762E+02  0.35222248609E+02  0.51100000000E-03 0.  1.
         12    1    3    3    0    0  0.10828901613E+01  0.49570069398E+01 -0.58096889573E+01  0.77134333914E+01  0.00000000000E+00 0. -1.
</event>
<event>
 7    1  0.6245487E-013  0.5052886E+02  0.7816164E-02  0.1300439E+00
        -11   -1    0    0    0    0  0.00000000000E+00  0.00000000000E+00  0.45593999997E+02  0.45594000000E+02  0.51100000000E-03 0.  1.
         11   -1    0    0    0    0 -0.00000000000E+00 -0.00000000000E+00 -0.45593999997E+02  0.45594000000E+02  0.51100000000E-03 0. -1.
    9900012    2    1    2    0    0  0.77989432122E+01  0.39333730388E+02 -0.67231009403E+01  0.50528856530E+02  0.29999989909E+02 0.  0.
         12    1    1    2    0    0 -0.77989432122E+01 -0.39333730388E+02  0.67231009403E+01  0.40659143470E+02  0.00000000000E+00 0. -1.
         11    1    3    3    0    0  0.75574721455E+01  0.65400932040E+01 -0.41158181399E+01  0.10808707766E+02  0.51100000000E-03 0. -1.
        -11    1    3    3    0    0 -0.24275511037E+01  0.23200013553E+02  0.84774751649E+01  0.24819371843E+02  0.51100000000E-03 0.  1.
         12    1    3    3    0    0  0.26690221704E+01  0.95936236304E+01 -0.11084757965E+02  0.14900776921E+02  0.00000000000E+00 0. -1.
</event>
<event>
 7    1  0.6245487E-013  0.5052886E+02  0.7816164E-02  0.1300439E+00
        -11   -1    0    0    0    0  0.00000000000E+00  0.00000000000E+00  0.45593999997E+02  0.45594000000E+02  0.51100000000E-03 0.  1.
         11   -1    0    0    0    0 -0.00000000000E+00 -0.00000000000E+00 -0.45593999997E+02  0.45594000000E+02  0.51100000000E-03 0. -1.
    9900012    2    1    2    0    0  0.31220198471E+01 -0.14366941995E+02  0.37907909949E+02  0.50528859983E+02  0.30000000403E+02 0.  0.
         12    1    1    2    0    0 -0.31220198471E+01  0.14366941995E+02 -0.37907909949E+02  0.40659140017E+02  0.00000000000E+00 0. -1.
         11    1    3    3    0    0  0.96471230955E+01 -0.61888579475E+01  0.35537693330E+01  0.11999925977E+02  0.51100000000E-03 0. -1.
        -11    1    3    3    0    0 -0.75596508683E+00 -0.10852801190E+02  0.18729666561E+02  0.21659990457E+02  0.51100000000E-03 0.  1.
        -12    1    3    3    0    0 -0.57691381616E+01  0.26747171425E+01  0.15624474056E+02  0.16868943549E+02  0.00000000000E+00 0.  1.
</event>
<event>
 7    1  0.6245487E-013  0.5052897E+02  0.7816164E-02  0.1300438E+00
        -11   -1    0    0    0    0  0.00000000000E+00  0.00000000000E+00  0.45593999997E+02  0.45594000000E+02  0.51100000000E-03 0.  1.
         11   -1    0    0    0    0 -0.00000000000E+00 -0.00000000000E+00 -0.45593999997E+02  0.45594000000E+02  0.51100000000E-03 0. -1.
    9900012    2    1    2    0    0 -0.65337499444E+01 -0.26126252226E+02  0.30461220879E+02  0.50528967533E+02  0.30000327311E+02 0.  0.
         12    1    1    2    0    0  0.65337499444E+01  0.26126252226E+02 -0.30461220879E+02  0.40659032467E+02  0.00000000000E+00 0. -1.
         11    1    3    3    0    0  0.10661469678E+01 -0.62331205249E+01  0.14039403846E+02  0.15397834960E+02  0.51100000000E-03 0. -1.
        -11    1    3    3    0    0 -0.13226157016E+02 -0.70068267193E+01  0.14676028617E+02  0.20962172271E+02  0.51100000000E-03 0.  1.
         12    1    3    3    0    0  0.56262601038E+01 -0.12886304982E+02  0.17457884158E+01  0.14168960302E+02  0.00000000000E+00 0. -1.
</event>
<event>
 7    1  0.6245487E-013  0.5052887E+02  0.7816164E-02  0.1300439E+00
        -11   -1    0    0    0    0  0.00000000000E+00  0.00000000000E+00  0.45593999997E+02  0.45594000000E+02  0.51100000000E-03 0.  1.
         11   -1    0    0    0    0 -0.00000000000E+00 -0.00000000000E+00 -0.45593999997E+02  0.45594000000E+02  0.51100000000E-03 0. -1.
    9900012    2    1    2    0    0  0.33198712126E+02  0.19607376962E+02  0.12905869396E+02  0.50528865933E+02  0.30000018491E+02 0.  0.
         12    1    1    2    0    0 -0.33198712126E+02 -0.19607376962E+02 -0.12905869396E+02  0.40659134067E+02  0.00000000000E+00 0. -1.
         11    1    3    3    0    0  0.44762018081E+01  0.85252528139E+01  0.60031417478E+00  0.96476264199E+01  0.51100000000E-03 0. -1.
        -11    1    3    3    0    0 -0.23761415871E+01  0.11741189416E+01  0.74195141169E+01  0.78786924120E+01  0.51100000000E-03 0.  1.
        -12    1    3    3    0    0  0.31098651905E+02  0.99080052066E+01  0.48860411047E+01  0.33002547101E+02  0.00000000000E+00 0.  1.
</event>
<event>
 7    1  0.6245487E-013  0.5052887E+02  0.7816164E-02  0.1300439E+00
        -11   -1    0    0    0    0  0.00000000000E+00  0.00000000000E+00  0.45593999997E+02  0.45594000000E+02  0.51100000000E-03 0.  1.
         11   -1    0    0    0    0 -0.00000000000E+00 -0.00000000000E+00 -0.45593999997E+02  0.45594000000E+02  0.51100000000E-03 0. -1.
    9900012    2    1    2    0    0  0.16171809098E+02 -0.42018602337E+01  0.37067259372E+02  0.50528871182E+02  0.30000034444E+02 0.  0.
         12    1    1    2    0    0 -0.16171809098E+02  0.42018602337E+01 -0.37067259372E+02  0.40659128818E+02  0.00000000000E+00 0. -1.
         11    1    3    3    0    0 -0.53675049031E+01 -0.33241973476E+01  0.17247317313E+02  0.18366555247E+02  0.51100000000E-03 0. -1.
        -11    1    3    3    0    0  0.20099942786E+01  0.38187929729E+01  0.73408383598E+01  0.85153487806E+01  0.51100000000E-03 0.  1.
        -12    1    3    3    0    0  0.19529319722E+02 -0.46964558591E+01  0.12479103699E+02  0.23646967154E+02  0.00000000000E+00 0.  1.
</event>
<event>
 7    1  0.6245487E-013  0.5052885E+02  0.7816164E-02  0.1300439E+00
        -11   -1    0    0    0    0  0.00000000000E+00  0.00000000000E+00  0.45593999997E+02  0.45594000000E+02  0.51100000000E-03 0.  1.
         11   -1    0    0    0    0 -0.00000000000E+00 -0.00000000000E+00 -0.45593999997E+02  0.45594000000E+02  0.51100000000E-03 0. -1.
    9900012    2    1    2    0    0  0.12604566334E+02 -0.38447684051E+02  0.40083238073E+01  0.50528853906E+02  0.29999981932E+02 0.  0.
         12    1    1    2    0    0 -0.12604566334E+02  0.38447684051E+02 -0.40083238073E+01  0.40659146094E+02  0.00000000000E+00 0. -1.
         11    1    3    3    0    0  0.61253353912E+00  0.12935686006E+01 -0.64023098265E+01  0.65603420975E+01  0.51100000000E-03 0. -1.
        -11    1    3    3    0    0  0.45706126072E+01 -0.13844812690E+02  0.86937048349E+01  0.16974976938E+02  0.51100000000E-03 0.  1.
        -12    1    3    3    0    0  0.74214201876E+01 -0.25896439962E+02  0.17169287989E+01  0.26993534870E+02  0.00000000000E+00 0.  1.
</event>
<event>
 7    1  0.6245487E-013  0.5052886E+02  0.7816164E-02  0.1300439E+00
        -11   -1    0    0    0    0  0.00000000000E+00  0.00000000000E+00  0.45593999997E+02  0.45594000000E+02  0.51100000000E-03 0. -1.
         11   -1    0    0    0    0 -0.00000000000E+00 -0.00000000000E+00 -0.45593999997E+02  0.45594000000E+02  0.51100000000E-03 0.  1.
    9900012    2    1    2    0    0 -0.30162239056E+02 -0.17406214303E+02  0.20986401040E+02  0.50528856011E+02  0.29999988332E+02 0.  0.
         12    1    1    2    0    0  0.30162239056E+02  0.17406214303E+02 -0.20986401040E+02  0.40659143989E+02  0.00000000000E+00 0. -1.
         11    1    3    3    0    0 -0.18911308778E+02 -0.65659196677E+01  0.22883782932E+01  0.20149083757E+02  0.51100000000E-03 0. -1.
        -11    1    3    3    0    0 -0.82377372384E+01 -0.15662337734E+02  0.11099944410E+02  0.20889660224E+02  0.51100000000E-03 0.  1.
         12    1    3    3    0    0 -0.30131930398E+01  0.48220430982E+01  0.75980783369E+01  0.94901120304E+01  0.00000000000E+00 0. -1.
</event>
<event>
 7    1  0.6245487E-013  0.5052886E+02  0.7816164E-02  0.1300439E+00
        -11   -1    0    0    0    0  0.00000000000E+00  0.00000000000E+00  0.45593999997E+02  0.45594000000E+02  0.51100000000E-03 0.  1.
         11   -1    0    0    0    0 -0.00000000000E+00 -0.00000000000E+00 -0.45593999997E+02  0.45594000000E+02  0.51100000000E-03 0. -1.
    9900012    2    1    2    0    0 -0.37801701181E+02  0.13697802476E+02  0.60470770485E+01  0.50528861474E+02  0.30000004937E+02 0.  0.
         12    1    1    2    0    0  0.37801701181E+02 -0.13697802476E+02 -0.60470770485E+01  0.40659138526E+02  0.00000000000E+00 0. -1.
         11    1    3    3    0    0 -0.11207053990E+01 -0.53878677286E+01  0.27795885742E+01  0.61653233617E+01  0.51100000000E-03 0. -1.
        -11    1    3    3    0    0 -0.14365103926E+02  0.53380087965E+00 -0.29747700818E+01  0.14679591666E+02  0.51100000000E-03 0.  1.
         12    1    3    3    0    0 -0.22315891855E+02  0.18551869325E+02  0.62422585561E+01  0.29683946446E+02  0.00000000000E+00 0. -1.
</event>
<event>
 7    1  0.6245487E-013  0.5052886E+02  0.7816164E-02  0.1300439E+00
        -11   -1    0    0    0    0  0.00000000000E+00  0.00000000000E+00  0.45593999997E+02  0.45594000000E+02  0.51100000000E-03 0. -1.
         11   -1    0    0    0    0 -0.00000000000E+00 -0.00000000000E+00 -0.45593999997E+02  0.45594000000E+02  0.51100000000E-03 0.  1.
    9900012    2    1    2    0    0 -0.14445676887E+02  0.18617850450E+02 -0.33134023904E+02  0.50528862328E+02  0.30000007534E+02 0.  0.
         12    1    1    2    0    0  0.14445676887E+02 -0.18617850450E+02  0.33134023904E+02  0.40659137672E+02  0.00000000000E+00 0. -1.
         11    1    3    3    0    0 -0.82030354693E+01  0.17733440828E+02 -0.13169666882E+02  0.23562785076E+02  0.51100000000E-03 0. -1.
        -11    1    3    3    0    0 -0.10623770180E+02  0.43980011454E+01 -0.88365947988E+01  0.14501459058E+02  0.51100000000E-03 0.  1.
         12    1    3    3    0    0  0.43811287620E+01 -0.35135915234E+01 -0.11127762223E+02  0.12464618194E+02  0.00000000000E+00 0. -1.
</event>
