<event>
 7    1  0.2976321E-013  0.7246159E+02  0.7816164E-02  0.1226708E+00
        -11   -1    0    0    0    0  0.00000000000E+00  0.00000000000E+00  0.45593999997E+02  0.45594000000E+02  0.51100000000E-03 0. -1.
         11   -1    0    0    0    0 -0.00000000000E+00 -0.00000000000E+00 -0.45593999997E+02  0.45594000000E+02  0.51100000000E-03 0.  1.
    9900012    2    1    2    0    0  0.16844673578E+02  0.53387581939E+00  0.81639621361E+01  0.72461592733E+02  0.70000029231E+02 0.  0.
         12    1    1    2    0    0 -0.16844673578E+02 -0.53387581939E+00 -0.81639621361E+01  0.18726407267E+02  0.00000000000E+00 0. -1.
         11    1    3    3    0    0 -0.29058575141E+01  0.10740167254E+02 -0.33328193370E+01  0.11614770146E+02  0.51100000000E-03 0. -1.
        -11    1    3    3    0    0  0.85060399946E+01 -0.25693414868E+02 -0.12782261603E+02  0.29931429901E+02  0.51100000000E-03 0.  1.
         12    1    3    3    0    0  0.11244491098E+02  0.15487123433E+02  0.24279043076E+02  0.30915392687E+02  0.00000000000E+00 0. -1.
</event>
<event>
 7    1  0.2976321E-013  0.7246158E+02  0.7816164E-02  0.1226708E+00
        -11   -1    0    0    0    0  0.00000000000E+00  0.00000000000E+00  0.45593999997E+02  0.45594000000E+02  0.51100000000E-03 0.  1.
         11   -1    0    0    0    0 -0.00000000000E+00 -0.00000000000E+00 -0.45593999997E+02  0.45594000000E+02  0.51100000000E-03 0. -1.
    9900012    2    1    2    0    0 -0.78364925761E+00 -0.12971105022E+02  0.13483885635E+02  0.72461579000E+02  0.70000011341E+02 0.  0.
         12    1    1    2    0    0  0.78364925761E+00  0.12971105022E+02 -0.13483885635E+02  0.18726421000E+02  0.00000000000E+00 0. -1.
         11    1    3    3    0    0 -0.23607757000E+01 -0.61959786780E+01  0.73175073055E+01  0.98746811144E+01  0.51100000000E-03 0. -1.
        -11    1    3    3    0    0 -0.24900463562E+02 -0.63601916790E+01  0.20134534057E+02  0.32647887922E+02  0.51100000000E-03 0.  1.
         12    1    3    3    0    0  0.26477590004E+02 -0.41493466442E+00 -0.13968155728E+02  0.29939009964E+02  0.00000000000E+00 0. -1.
</event>
<event>
 7    1  0.2976321E-013  0.7246157E+02  0.7816164E-02  0.1226708E+00
        -11   -1    0    0    0    0  0.00000000000E+00  0.00000000000E+00  0.45593999997E+02  0.45594000000E+02  0.51100000000E-03 0.  1.
         11   -1    0    0    0    0 -0.00000000000E+00 -0.00000000000E+00 -0.45593999997E+02  0.45594000000E+02  0.51100000000E-03 0. -1.
    9900012    2    1    2    0    0 -0.11171635276E+02 -0.76185586834E+01  0.12954968191E+02  0.72461572899E+02  0.70000003393E+02 0.  0.
         12    1    1    2    0    0  0.11171635276E+02  0.76185586834E+01 -0.12954968191E+02  0.18726427101E+02  0.00000000000E+00 0. -1.
         11    1    3    3    0    0 -0.19608370771E+02 -0.90590388286E+01  0.99440098366E+01  0.23778934389E+02  0.51100000000E-03 0. -1.
        -11    1    3    3    0    0 -0.10004559534E+01 -0.16714521517E+01 -0.21835779673E+02  0.21922498457E+02  0.51100000000E-03 0.  1.
        -12    1    3    3    0    0  0.94371914488E+01  0.31119322968E+01  0.24846738027E+02  0.26760140053E+02  0.00000000000E+00 0.  1.
</event>
<event>
 7    1  0.2976321E-013  0.7246157E+02  0.7816164E-02  0.1226708E+00
        -11   -1    0    0    0    0  0.00000000000E+00  0.00000000000E+00  0.45593999997E+02  0.45594000000E+02  0.51100000000E-03 0.  1.
         11   -1    0    0    0    0 -0.00000000000E+00 -0.00000000000E+00 -0.45593999997E+02  0.45594000000E+02  0.51100000000E-03 0. -1.
    9900012    2    1    2    0    0  0.16266015052E+02  0.64557022742E+01  0.66648285511E+01  0.72461567420E+02  0.69999996256E+02 0.  0.
         12    1    1    2    0    0 -0.16266015052E+02 -0.64557022742E+01 -0.66648285511E+01  0.18726432580E+02  0.00000000000E+00 0. -1.
         11    1    3    3    0    0 -0.36762965594E+01 -0.35051505452E+01  0.65249739231E+01  0.82690097167E+01  0.51100000000E-03 0. -1.
        -11    1    3    3    0    0  0.12286179130E+02 -0.13211679238E+02  0.24024765859E+02  0.30044767277E+02  0.51100000000E-03 0.  1.
         12    1    3    3    0    0  0.76561324816E+01  0.23172532057E+02 -0.23884911231E+02  0.34147790427E+02  0.00000000000E+00 0. -1.
</event>
<event>
 7    1  0.2976321E-013  0.7246159E+02  0.7816164E-02  0.1226708E+00
        -11   -1    0    0    0    0  0.00000000000E+00  0.00000000000E+00  0.45593999997E+02  0.45594000000E+02  0.51100000000E-03 0. -1.
         11   -1    0    0    0    0 -0.00000000000E+00 -0.00000000000E+00 -0.45593999997E+02  0.45594000000E+02  0.51100000000E-03 0.  1.
    9900012    2    1    2    0    0  0.86989609281E+01 -0.37539201488E+01  0.16152855812E+02  0.72461585805E+02  0.70000020206E+02 0.  0.
         12    1    1    2    0    0 -0.86989609281E+01  0.37539201488E+01 -0.16152855812E+02  0.18726414195E+02  0.00000000000E+00 0. -1.
         11    1    3    3    0    0  0.31722940442E+01  0.40530512859E+01 -0.41022289910E+01  0.65817138486E+01  0.51100000000E-03 0. -1.
        -11    1    3    3    0    0  0.13997863406E+01 -0.15654263606E+02 -0.19558586500E+02  0.25090908253E+02  0.51100000000E-03 0.  1.
         12    1    3    3    0    0  0.41268805433E+01  0.78472921712E+01  0.39813671302E+02  0.40788963704E+02  0.00000000000E+00 0. -1.
</event>
<event>
 7    1  0.2976321E-013  0.7246159E+02  0.7816164E-02  0.1226708E+00
        -11   -1    0    0    0    0  0.00000000000E+00  0.00000000000E+00  0.45593999997E+02  0.45594000000E+02  0.51100000000E-03 0.  1.
         11   -1    0    0    0    0 -0.00000000000E+00 -0.00000000000E+00 -0.45593999997E+02  0.45594000000E+02  0.51100000000E-03 0. -1.
    9900012    2    1    2    0    0 -0.36415427395E+01  0.96464845475E+01  0.15632114868E+02  0.72461587827E+02  0.70000022839E+02 0.  0.
         12    1    1    2    0    0  0.36415427395E+01 -0.96464845475E+01 -0.15632114868E+02  0.18726412173E+02  0.00000000000E+00 0. -1.
         11    1    3    3    0    0 -0.45515714570E+01  0.24681537497E+02  0.67384848551E+01  0.25986578735E+02  0.51100000000E-03 0. -1.
        -11    1    3    3    0    0  0.12050557098E+02  0.10760186017E+02 -0.21230840175E+01  0.16294324640E+02  0.51100000000E-03 0.  1.
        -12    1    3    3    0    0 -0.11140528380E+02 -0.25795238966E+02  0.11016714030E+02  0.30180684451E+02  0.00000000000E+00 0.  1.
</event>
<event>
 7    1  0.2976321E-013  0.7246150E+02  0.7816164E-02  0.1226708E+00
        -11   -1    0    0    0    0  0.00000000000E+00  0.00000000000E+00  0.45593999997E+02  0.45594000000E+02  0.51100000000E-03 0. -1.
         11   -1    0    0    0    0 -0.00000000000E+00 -0.00000000000E+00 -0.45593999997E+02  0.45594000000E+02  0.51100000000E-03 0.  1.
    9900012    2    1    2    0    0 -0.14608457387E+02  0.95758732984E-01 -0.11716041553E+02  0.72461499349E+02  0.69999907580E+02 0.  0.
         12    1    1    2    0    0  0.14608457387E+02 -0.95758732984E-01  0.11716041553E+02  0.18726500651E+02  0.00000000000E+00 0. -1.
         11    1    3    3    0    0 -0.91304152377E+01 -0.13969128925E+02 -0.34376962633E+01  0.17038744120E+02  0.51100000000E-03 0. -1.
        -11    1    3    3    0    0  0.17168697671E+02 -0.72637785630E+01  0.80300270002E+01  0.20297980013E+02  0.51100000000E-03 0.  1.
        -12    1    3    3    0    0 -0.22646739820E+02  0.21328666221E+02 -0.16308372290E+02  0.35124775216E+02  0.00000000000E+00 0.  1.
</event>
<event>
 7    1  0.2976321E-013  0.7246193E+02  0.7816164E-02  0.1226707E+00
        -11   -1    0    0    0    0  0.00000000000E+00  0.00000000000E+00  0.45593999997E+02  0.45594000000E+02  0.51100000000E-03 0.  1.
         11   -1    0    0    0    0 -0.00000000000E+00 -0.00000000000E+00 -0.45593999997E+02  0.45594000000E+02  0.51100000000E-03 0. -1.
    9900012    2    1    2    0    0  0.12880850729E+02 -0.91494194236E+01  0.10051739393E+02  0.72461931109E+02  0.70000470026E+02 0.  0.
         12    1    1    2    0    0 -0.12880850729E+02  0.91494194236E+01 -0.10051739393E+02  0.18726068891E+02  0.00000000000E+00 0. -1.
         11    1    3    3    0    0  0.22801032201E+02  0.18478017403E+01  0.31935201684E+02  0.39283056749E+02  0.51100000000E-03 0. -1.
        -11    1    3    3    0    0  0.26764555640E+01  0.26810519632E+01  0.77538280931E+00  0.38668686010E+01  0.51100000000E-03 0.  1.
         12    1    3    3    0    0 -0.12596637036E+02 -0.13678273127E+02 -0.22658845100E+02  0.29312005759E+02  0.00000000000E+00 0. -1.
</event>
<event>
 7    1  0.2976321E-013  0.7246165E+02  0.7816164E-02  0.1226708E+00
        -11   -1    0    0    0    0  0.00000000000E+00  0.00000000000E+00  0.45593999997E+02  0.45594000000E+02  0.51100000000E-03 0.  1.
         11   -1    0    0    0    0 -0.00000000000E+00 -0.00000000000E+00 -0.45593999997E+02  0.45594000000E+02  0.51100000000E-03 0. -1.
    9900012    2    1    2    0    0 -0.17026569956E+02 -0.38120059777E+01  0.68000556009E+01  0.72461648775E+02  0.70000102235E+02 0.  0.
         12    1    1    2    0    0  0.17026569956E+02  0.38120059777E+01 -0.68000556009E+01  0.18726351225E+02  0.00000000000E+00 0. -1.
         11    1    3    3    0    0 -0.19092148863E+02  0.19909705825E+02 -0.14866602349E+02  0.31335641049E+02  0.51100000000E-03 0. -1.
        -11    1    3    3    0    0  0.56545692360E+01 -0.96189253923E-01 -0.33150104019E+01  0.65553565763E+01  0.51100000000E-03 0.  1.
        -12    1    3    3    0    0 -0.35889903284E+01 -0.23625522549E+02  0.24981668351E+02  0.34570651150E+02  0.00000000000E+00 0.  1.
</event>
<event>
 7    1  0.2976321E-013  0.7246153E+02  0.7816164E-02  0.1226708E+00
        -11   -1    0    0    0    0  0.00000000000E+00  0.00000000000E+00  0.45593999997E+02  0.45594000000E+02  0.51100000000E-03 0.  1.
         11   -1    0    0    0    0 -0.00000000000E+00 -0.00000000000E+00 -0.45593999997E+02  0.45594000000E+02  0.51100000000E-03 0. -1.
    9900012    2    1    2    0    0 -0.72530286717E+01 -0.15892213924E+02  0.67462371795E+01  0.72461531983E+02  0.69999950092E+02 0.  0.
         12    1    1    2    0    0  0.72530286717E+01  0.15892213924E+02 -0.67462371795E+01  0.18726468017E+02  0.00000000000E+00 0. -1.
         11    1    3    3    0    0 -0.25183214404E+01  0.21837774195E+02 -0.10648385515E+02  0.24425774072E+02  0.51100000000E-03 0. -1.
        -11    1    3    3    0    0  0.46833541870E+01 -0.13715075251E+00 -0.15011493562E+01  0.49199660995E+01  0.51100000000E-03 0.  1.
         12    1    3    3    0    0 -0.94180614183E+01 -0.37592837366E+02  0.18895772051E+02  0.43115791811E+02  0.00000000000E+00 0. -1.
</event>
<event>
 7    1  0.2976321E-013  0.7246145E+02  0.7816164E-02  0.1226708E+00
        -11   -1    0    0    0    0  0.00000000000E+00  0.00000000000E+00  0.45593999997E+02  0.45594000000E+02  0.51100000000E-03 0.  1.
         11   -1    0    0    0    0 -0.00000000000E+00 -0.00000000000E+00 -0.45593999997E+02  0.45594000000E+02  0.51100000000E-03 0. -1.
    9900012    2    1    2    0    0  0.12773748070E+02 -0.29194754811E+01  0.13378775631E+02  0.72461451620E+02  0.69999845405E+02 0.  0.
         12    1    1    2    0    0 -0.12773748070E+02  0.29194754811E+01 -0.13378775631E+02  0.18726548380E+02  0.00000000000E+00 0. -1.
         11    1    3    3    0    0 -0.10043762458E+02  0.16726470134E+02  0.99578832781E+01  0.21904597853E+02  0.51100000000E-03 0. -1.
        -11    1    3    3    0    0  0.57480276800E+01 -0.20216315773E+02  0.18328539856E+02  0.27886818018E+02  0.51100000000E-03 0.  1.
         12    1    3    3    0    0  0.17069482848E+02  0.57037015751E+00 -0.14907647503E+02  0.22670035749E+02  0.00000000000E+00 0. -1.
</event>
<event>
 7    1  0.2976321E-013  0.7246166E+02  0.7816164E-02  0.1226708E+00
        -11   -1    0    0    0    0  0.00000000000E+00  0.00000000000E+00  0.45593999997E+02  0.45594000000E+02  0.51100000000E-03 0. -1.
         11   -1    0    0    0    0 -0.00000000000E+00 -0.00000000000E+00 -0.45593999997E+02  0.45594000000E+02  0.51100000000E-03 0.  1.
    9900012    2    1    2    0    0 -0.94749854045E-01  0.14797601317E+02 -0.11475967040E+02  0.72461660214E+02  0.70000117137E+02 0.  0.
         12    1    1    2    0    0  0.94749854045E-01 -0.14797601317E+02  0.11475967040E+02  0.18726339786E+02  0.00000000000E+00 0. -1.
         11    1    3    3    0    0  0.10569305243E+02  0.80080235599E+00  0.26622505141E+02  0.28655004414E+02  0.51100000000E-03 0. -1.
        -11    1    3    3    0    0 -0.26826050089E+01  0.37402949026E+01 -0.13033198803E+01  0.47838079564E+01  0.51100000000E-03 0.  1.
        -12    1    3    3    0    0 -0.79814500877E+01  0.10256504059E+02 -0.36795152301E+02  0.39022847844E+02  0.00000000000E+00 0.  1.
</event>
<event>
 7    1  0.2976321E-013  0.7246156E+02  0.7816164E-02  0.1226708E+00
        -11   -1    0    0    0    0  0.00000000000E+00  0.00000000000E+00  0.45593999997E+02  0.45594000000E+02  0.51100000000E-03 0. -1.
         11   -1    0    0    0    0 -0.00000000000E+00 -0.00000000000E+00 -0.45593999997E+02  0.45594000000E+02  0.51100000000E-03 0.  1.
    9900012    2    1    2    0    0 -0.39535934782E+01  0.12394506889E+02 -0.13469403159E+02  0.72461560833E+02  0.69999987675E+02 0.  0.
         12    1    1    2    0    0  0.39535934782E+01 -0.12394506889E+02  0.13469403159E+02  0.18726439167E+02  0.00000000000E+00 0. -1.
         11    1    3    3    0    0  0.10366214626E+02 -0.63041431850E+01  0.26433962319E+01  0.12417252951E+02  0.51100000000E-03 0. -1.
        -11    1    3    3    0    0  0.39153389684E+01 -0.16035836470E+02  0.23735672786E+01  0.16676682896E+02  0.51100000000E-03 0.  1.
        -12    1    3    3    0    0 -0.18235147072E+02  0.34734486544E+02 -0.18486366670E+02  0.43367624985E+02  0.00000000000E+00 0.  1.
</event>
<event>
 7    1  0.2976321E-013  0.7246156E+02  0.7816164E-02  0.1226708E+00
        -11   -1    0    0    0    0  0.00000000000E+00  0.00000000000E+00  0.45593999997E+02  0.45594000000E+02  0.51100000000E-03 0. -1.
         11   -1    0    0    0    0 -0.00000000000E+00 -0.00000000000E+00 -0.45593999997E+02  0.45594000000E+02  0.51100000000E-03 0.  1.
    9900012    2    1    2    0    0 -0.12761894026E+02  0.13691576267E+02  0.59518069539E+00  0.72461563076E+02  0.69999990596E+02 0.  0.
         12    1    1    2    0    0  0.12761894026E+02 -0.13691576267E+02 -0.59518069539E+00  0.18726436924E+02  0.00000000000E+00 0. -1.
         11    1    3    3    0    0 -0.13549891315E+02  0.14386312928E+01  0.12876525712E+00  0.13626657529E+02  0.51100000000E-03 0. -1.
        -11    1    3    3    0    0 -0.24437666570E+02  0.16005801700E+02  0.11036379353E+02  0.31227982722E+02  0.51100000000E-03 0.  1.
         12    1    3    3    0    0  0.25225663858E+02 -0.37528567254E+01 -0.10569963915E+02  0.27606922825E+02  0.00000000000E+00 0. -1.
</event>
<event>
 7    1  0.2976321E-013  0.7246157E+02  0.7816164E-02  0.1226708E+00
        -11   -1    0    0    0    0  0.00000000000E+00  0.00000000000E+00  0.45593999997E+02  0.45594000000E+02  0.51100000000E-03 0.  1.
         11   -1    0    0    0    0 -0.00000000000E+00 -0.00000000000E+00 -0.45593999997E+02  0.45594000000E+02  0.51100000000E-03 0. -1.
    9900012    2    1    2    0    0  0.18236642364E+02 -0.39760242665E+01 -0.15150283070E+01  0.72461569362E+02  0.69999998785E+02 0.  0.
         12    1    1    2    0    0 -0.18236642364E+02  0.39760242665E+01  0.15150283070E+01  0.18726430638E+02  0.00000000000E+00 0. -1.
         11    1    3    3    0    0 -0.13661952113E+01  0.22500368416E+02 -0.21846785890E+02  0.31391322403E+02  0.51100000000E-03 0. -1.
        -11    1    3    3    0    0  0.39126477208E+01  0.99681020297E+00  0.25965971854E+01  0.48004958049E+01  0.51100000000E-03 0.  1.
        -12    1    3    3    0    0  0.15690189854E+02 -0.27473202886E+02  0.17735160398E+02  0.36269751154E+02  0.00000000000E+00 0.  1.
</event>
<event>
 7    1  0.2976321E-013  0.7246157E+02  0.7816164E-02  0.1226708E+00
        -11   -1    0    0    0    0  0.00000000000E+00  0.00000000000E+00  0.45593999997E+02  0.45594000000E+02  0.51100000000E-03 0.  1.
         11   -1    0    0    0    0 -0.00000000000E+00 -0.00000000000E+00 -0.45593999997E+02  0.45594000000E+02  0.51100000000E-03 0. -1.
    9900012    2    1    2    0    0 -0.12131694657E+02  0.14214049929E+02  0.12090521274E+01  0.72461573815E+02  0.70000004586E+02 0.  0.
         12    1    1    2    0    0  0.12131694657E+02 -0.14214049929E+02 -0.12090521274E+01  0.18726426185E+02  0.00000000000E+00 0. -1.
         11    1    3    3    0    0 -0.18365539473E+02  0.90592313271E+01  0.15864512721E+02  0.25904545480E+02  0.51100000000E-03 0. -1.
        -11    1    3    3    0    0 -0.11495181862E+02  0.17258169377E+02 -0.30993794915E+00  0.20738362473E+02  0.51100000000E-03 0.  1.
         12    1    3    3    0    0  0.17729026678E+02 -0.12103350775E+02 -0.14345522644E+02  0.25818665862E+02  0.00000000000E+00 0. -1.
</event>
<event>
 7    1  0.2976321E-013  0.7246157E+02  0.7816164E-02  0.1226708E+00
        -11   -1    0    0    0    0  0.00000000000E+00  0.00000000000E+00  0.45593999997E+02  0.45594000000E+02  0.51100000000E-03 0.  1.
         11   -1    0    0    0    0 -0.00000000000E+00 -0.00000000000E+00 -0.45593999997E+02  0.45594000000E+02  0.51100000000E-03 0. -1.
    9900012    2    1    2    0    0  0.12381785474E+02  0.14011378528E+02 -0.10256068070E+01  0.72461569237E+02  0.69999998623E+02 0.  0.
         12    1    1    2    0    0 -0.12381785474E+02 -0.14011378528E+02  0.10256068070E+01  0.18726430763E+02  0.00000000000E+00 0. -1.
         11    1    3    3    0    0  0.16220816923E+02  0.14711636757E+02 -0.93701558200E+01  0.23819046540E+02  0.51100000000E-03 0.  1.
        -11    1    3    3    0    0 -0.66256312408E+01  0.23054492308E+02  0.48091277433E+01  0.24465001836E+02  0.51100000000E-03 0. -1.
        -12    1    3    3    0    0  0.27865997922E+01 -0.23754750537E+02  0.35354212696E+01  0.24177520862E+02  0.00000000000E+00 0.  1.
</event>
<event>
 7    1  0.2976321E-013  0.7246156E+02  0.7816164E-02  0.1226708E+00
        -11   -1    0    0    0    0  0.00000000000E+00  0.00000000000E+00  0.45593999997E+02  0.45594000000E+02  0.51100000000E-03 0. -1.
         11   -1    0    0    0    0 -0.00000000000E+00 -0.00000000000E+00 -0.45593999997E+02  0.45594000000E+02  0.51100000000E-03 0.  1.
    9900012    2    1    2    0    0  0.55576735951E+01 -0.14832494648E+02  0.99894365492E+01  0.72461562116E+02  0.69999989346E+02 0.  0.
         12    1    1    2    0    0 -0.55576735951E+01  0.14832494648E+02 -0.99894365492E+01  0.18726437884E+02  0.00000000000E+00 0. -1.
         11    1    3    3    0    0  0.15645904459E+02  0.65997723808E+01  0.25071316433E+02  0.30280723733E+02  0.51100000000E-03 0. -1.
        -11    1    3    3    0    0 -0.24328959606E+01  0.74205596264E+01  0.16192561689E+01  0.79753168417E+01  0.51100000000E-03 0.  1.
        -12    1    3    3    0    0 -0.76553349029E+01 -0.28852826655E+02 -0.16701136053E+02  0.34205521541E+02  0.00000000000E+00 0.  1.
</event>
<event>
 7    1  0.2976321E-013  0.7246153E+02  0.7816164E-02  0.1226708E+00
        -11   -1    0    0    0    0  0.00000000000E+00  0.00000000000E+00  0.45593999997E+02  0.45594000000E+02  0.51100000000E-03 0. -1.
         11   -1    0    0    0    0 -0.00000000000E+00 -0.00000000000E+00 -0.45593999997E+02  0.45594000000E+02  0.51100000000E-03 0.  1.
    9900012    2    1    2    0    0  0.12631226616E+02  0.12276507900E+01 -0.13770462105E+02  0.72461531062E+02  0.69999948893E+02 0.  0.
         12    1    1    2    0    0 -0.12631226616E+02 -0.12276507900E+01  0.13770462105E+02  0.18726468938E+02  0.00000000000E+00 0. -1.
         11    1    3    3    0    0  0.47704185976E+01  0.21908372018E+02  0.20859589751E+01  0.22518545317E+02  0.51100000000E-03 0. -1.
        -11    1    3    3    0    0 -0.12647533925E+02 -0.68316852194E+01  0.72380727521E+01  0.16094152191E+02  0.51100000000E-03 0.  1.
        -12    1    3    3    0    0  0.20508341943E+02 -0.13849036009E+02 -0.23094493832E+02  0.33848833554E+02  0.00000000000E+00 0.  1.
</event>
<event>
 7    1  0.2976321E-013  0.7246155E+02  0.7816164E-02  0.1226708E+00
        -11   -1    0    0    0    0  0.00000000000E+00  0.00000000000E+00  0.45593999997E+02  0.45594000000E+02  0.51100000000E-03 0. -1.
         11   -1    0    0    0    0 -0.00000000000E+00 -0.00000000000E+00 -0.45593999997E+02  0.45594000000E+02  0.51100000000E-03 0.  1.
    9900012    2    1    2    0    0  0.17502600318E+02  0.77194637152E+00  0.66138611391E+01  0.72461546031E+02  0.69999968392E+02 0.  0.
         12    1    1    2    0    0 -0.17502600318E+02 -0.77194637152E+00 -0.66138611391E+01  0.18726453969E+02  0.00000000000E+00 0. -1.
         11    1    3    3    0    0  0.23858982225E+02 -0.26259446089E+02  0.54563102325E+01  0.35896808540E+02  0.51100000000E-03 0. -1.
        -11    1    3    3    0    0  0.84118472838E+01  0.43749056903E+01 -0.23195691734E+00  0.94843438781E+01  0.51100000000E-03 0.  1.
        -12    1    3    3    0    0 -0.14768229191E+02  0.22656486771E+02  0.13895078239E+01  0.27080393613E+02  0.00000000000E+00 0.  1.
</event>
<event>
 7    1  0.2976321E-013  0.7246155E+02  0.7816164E-02  0.1226708E+00
        -11   -1    0    0    0    0  0.00000000000E+00  0.00000000000E+00  0.45593999997E+02  0.45594000000E+02  0.51100000000E-03 0.  1.
         11   -1    0    0    0    0 -0.00000000000E+00 -0.00000000000E+00 -0.45593999997E+02  0.45594000000E+02  0.51100000000E-03 0. -1.
    9900012    2    1    2    0    0 -0.72138874706E+00  0.15038195433E+02  0.11136070208E+02  0.72461553907E+02  0.69999978652E+02 0.  0.
         12    1    1    2    0    0  0.72138874706E+00 -0.15038195433E+02 -0.11136070208E+02  0.18726446093E+02  0.00000000000E+00 0. -1.
         11    1    3    3    0    0  0.28670750402E+02  0.13287531579E+02 -0.49903002579E+01  0.31991772708E+02  0.51100000000E-03 0. -1.
        -11    1    3    3    0    0 -0.38690312596E+01  0.33333949451E+01 -0.51137194998E+01  0.72271053771E+01  0.51100000000E-03 0.  1.
        -12    1    3    3    0    0 -0.25523107890E+02 -0.15827310906E+01  0.21240089965E+02  0.33242675822E+02  0.00000000000E+00 0.  1.
</event>
<event>
 7    1  0.2976321E-013  0.7246156E+02  0.7816164E-02  0.1226708E+00
        -11   -1    0    0    0    0  0.00000000000E+00  0.00000000000E+00  0.45593999997E+02  0.45594000000E+02  0.51100000000E-03 0. -1.
         11   -1    0    0    0    0 -0.00000000000E+00 -0.00000000000E+00 -0.45593999997E+02  0.45594000000E+02  0.51100000000E-03 0.  1.
    9900012    2    1    2    0    0  0.20774828125E+01 -0.14249072421E+02 -0.11971944228E+02  0.72461562851E+02  0.69999990304E+02 0.  0.
         12    1    1    2    0    0 -0.20774828125E+01  0.14249072421E+02  0.11971944228E+02  0.18726437149E+02  0.00000000000E+00 0. -1.
         11    1    3    3    0    0 -0.24125322477E+02 -0.22967773675E+01 -0.14156155345E+00  0.24234818151E+02  0.51100000000E-03 0. -1.
        -11    1    3    3    0    0 -0.86000895752E+01 -0.20741631956E+00 -0.71743230639E+01  0.11201583545E+02  0.51100000000E-03 0.  1.
         12    1    3    3    0    0  0.34802894865E+02 -0.11744878734E+02 -0.46560596104E+01  0.37025161155E+02  0.00000000000E+00 0. -1.
</event>
<event>
 7    1  0.2976321E-013  0.7246142E+02  0.7816164E-02  0.1226708E+00
        -11   -1    0    0    0    0  0.00000000000E+00  0.00000000000E+00  0.45593999997E+02  0.45594000000E+02  0.51100000000E-03 0. -1.
         11   -1    0    0    0    0 -0.00000000000E+00 -0.00000000000E+00 -0.45593999997E+02  0.45594000000E+02  0.51100000000E-03 0.  1.
    9900012    2    1    2    0    0  0.37664129908E+01  0.16646450430E+02 -0.77067788859E+01  0.72461424778E+02  0.69999810438E+02 0.  0.
         12    1    1    2    0    0 -0.37664129908E+01 -0.16646450430E+02  0.77067788859E+01  0.18726575222E+02  0.00000000000E+00 0. -1.
         11    1    3    3    0    0  0.33134763849E+01 -0.94276905051E+00 -0.24227371253E+02  0.24471073889E+02  0.51100000000E-03 0. -1.
        -11    1    3    3    0    0  0.12322087725E+02  0.20878183368E+01 -0.93295260208E+01  0.15595925344E+02  0.51100000000E-03 0.  1.
         12    1    3    3    0    0 -0.11869151119E+02  0.15501401144E+02  0.25850118387E+02  0.32394425544E+02  0.00000000000E+00 0. -1.
</event>
<event>
 7    1  0.2976321E-013  0.7246164E+02  0.7816164E-02  0.1226708E+00
        -11   -1    0    0    0    0  0.00000000000E+00  0.00000000000E+00  0.45593999997E+02  0.45594000000E+02  0.51100000000E-03 0. -1.
         11   -1    0    0    0    0 -0.00000000000E+00 -0.00000000000E+00 -0.45593999997E+02  0.45594000000E+02  0.51100000000E-03 0.  1.
    9900012    2    1    2    0    0 -0.17648551810E+02 -0.28337745311E+01  0.55834577911E+01  0.72461637300E+02  0.70000087287E+02 0.  0.
         12    1    1    2    0    0  0.17648551810E+02  0.28337745311E+01 -0.55834577911E+01  0.18726362700E+02  0.00000000000E+00 0. -1.
         11    1    3    3    0    0 -0.92924782614E+01  0.69544782708E+01 -0.14475738686E+02  0.18554296834E+02  0.51100000000E-03 0. -1.
        -11    1    3    3    0    0 -0.11139039734E+02 -0.24020006024E+02 -0.30217242261E+01  0.26649009609E+02  0.51100000000E-03 0.  1.
         12    1    3    3    0    0  0.27829661861E+01  0.14231753222E+02  0.23080920703E+02  0.27258330856E+02  0.00000000000E+00 0. -1.
</event>
<event>
 7    1  0.2976321E-013  0.7246137E+02  0.7816164E-02  0.1226709E+00
        -11   -1    0    0    0    0  0.00000000000E+00  0.00000000000E+00  0.45593999997E+02  0.45594000000E+02  0.51100000000E-03 0. -1.
         11   -1    0    0    0    0 -0.00000000000E+00 -0.00000000000E+00 -0.45593999997E+02  0.45594000000E+02  0.51100000000E-03 0.  1.
    9900012    2    1    2    0    0 -0.37415388186E+01  0.84615856360E+01 -0.16281553955E+02  0.72461373411E+02  0.69999743523E+02 0.  0.
         12    1    1    2    0    0  0.37415388186E+01 -0.84615856360E+01  0.16281553955E+02  0.18726626589E+02  0.00000000000E+00 0. -1.
         11    1    3    3    0    0 -0.35356026829E+01 -0.18568183541E+02 -0.22939655331E+02  0.29723824002E+02  0.51100000000E-03 0. -1.
        -11    1    3    3    0    0  0.34306341950E+01 -0.28867593017E+01  0.11381597844E+02  0.12232881917E+02  0.51100000000E-03 0.  1.
        -12    1    3    3    0    0 -0.36365703306E+01  0.29916528478E+02 -0.47234964678E+01  0.30504667493E+02  0.00000000000E+00 0.  1.
</event>
<event>
 7    1  0.2976321E-013  0.7246157E+02  0.7816164E-02  0.1226708E+00
        -11   -1    0    0    0    0  0.00000000000E+00  0.00000000000E+00  0.45593999997E+02  0.45594000000E+02  0.51100000000E-03 0.  1.
         11   -1    0    0    0    0 -0.00000000000E+00 -0.00000000000E+00 -0.45593999997E+02  0.45594000000E+02  0.51100000000E-03 0. -1.
    9900012    2    1    2    0    0  0.14447676055E+02 -0.11356581638E+02 -0.36016469574E+01  0.72461570797E+02  0.70000000655E+02 0.  0.
         12    1    1    2    0    0 -0.14447676055E+02  0.11356581638E+02  0.36016469574E+01  0.18726429203E+02  0.00000000000E+00 0. -1.
         11    1    3    3    0    0 -0.25932596208E+01 -0.32186467214E+02 -0.15197174444E+02  0.35688202232E+02  0.51100000000E-03 0. -1.
        -11    1    3    3    0    0  0.41435116266E+01 -0.47112083885E+01  0.24336750083E+01  0.67295577408E+01  0.51100000000E-03 0.  1.
         12    1    3    3    0    0  0.12897424049E+02  0.25541093965E+02  0.91618524779E+01  0.30043810825E+02  0.00000000000E+00 0. -1.
</event>
<event>
 7    1  0.2976321E-013  0.7246157E+02  0.7816164E-02  0.1226708E+00
        -11   -1    0    0    0    0  0.00000000000E+00  0.00000000000E+00  0.45593999997E+02  0.45594000000E+02  0.51100000000E-03 0. -1.
         11   -1    0    0    0    0 -0.00000000000E+00 -0.00000000000E+00 -0.45593999997E+02  0.45594000000E+02  0.51100000000E-03 0.  1.
    9900012    2    1    2    0    0  0.10548757473E+02 -0.22185079670E+01 -0.15312774512E+02  0.72461571481E+02  0.70000001545E+02 0.  0.
         12    1    1    2    0    0 -0.10548757473E+02  0.22185079670E+01  0.15312774512E+02  0.18726428519E+02  0.00000000000E+00 0. -1.
         11    1    3    3    0    0 -0.81721083892E+00 -0.11343661811E+01  0.11580923440E+02  0.11665007852E+02  0.51100000000E-03 0. -1.
        -11    1    3    3    0    0 -0.60529571342E+01  0.23414478942E+02 -0.15067305830E+02  0.28493855818E+02  0.51100000000E-03 0.  1.
         12    1    3    3    0    0  0.17418925446E+02 -0.24498620727E+02 -0.11826392123E+02  0.32302707811E+02  0.00000000000E+00 0. -1.
</event>
<event>
 7    1  0.2976321E-013  0.7246157E+02  0.7816164E-02  0.1226708E+00
        -11   -1    0    0    0    0  0.00000000000E+00  0.00000000000E+00  0.45593999997E+02  0.45594000000E+02  0.51100000000E-03 0.  1.
         11   -1    0    0    0    0 -0.00000000000E+00 -0.00000000000E+00 -0.45593999997E+02  0.45594000000E+02  0.51100000000E-03 0. -1.
    9900012    2    1    2    0    0  0.14933195524E+02  0.90981845799E+01  0.67008979046E+01  0.72461566172E+02  0.69999994629E+02 0.  0.
         12    1    1    2    0    0 -0.14933195524E+02 -0.90981845799E+01 -0.67008979046E+01  0.18726433828E+02  0.00000000000E+00 0. -1.
         11    1    3    3    0    0  0.89485602794E+01 -0.10821894753E+02 -0.11563759096E+02  0.18190949997E+02  0.51100000000E-03 0. -1.
        -11    1    3    3    0    0 -0.97115908691E+01  0.82049493289E+01 -0.12481216408E+02  0.17816199201E+02  0.51100000000E-03 0.  1.
         12    1    3    3    0    0  0.15696226113E+02  0.11715130004E+02  0.30745873408E+02  0.36454416973E+02  0.00000000000E+00 0. -1.
</event>
<event>
 7    1  0.2976321E-013  0.7246154E+02  0.7816164E-02  0.1226708E+00
        -11   -1    0    0    0    0  0.00000000000E+00  0.00000000000E+00  0.45593999997E+02  0.45594000000E+02  0.51100000000E-03 0. -1.
         11   -1    0    0    0    0 -0.00000000000E+00 -0.00000000000E+00 -0.45593999997E+02  0.45594000000E+02  0.51100000000E-03 0.  1.
    9900012    2    1    2    0    0 -0.37511513970E+01  0.12720750012E+02  0.13220876709E+02  0.72461542818E+02  0.69999964206E+02 0.  0.
         12    1    1    2    0    0  0.37511513970E+01 -0.12720750012E+02 -0.13220876709E+02  0.18726457182E+02  0.00000000000E+00 0. -1.
         11    1    3    3    0    0 -0.24206743949E+01  0.10483146156E+02 -0.10663612859E+02  0.15148222910E+02  0.51100000000E-03 0. -1.
        -11    1    3    3    0    0 -0.23553612144E+02 -0.48103916957E+01  0.14517095164E+00  0.24040249337E+02  0.51100000000E-03 0.  1.
         12    1    3    3    0    0  0.22223135142E+02  0.70479955514E+01  0.23739318617E+02  0.33273070571E+02  0.00000000000E+00 0. -1.
</event>
<event>
 7    1  0.2976321E-013  0.7246155E+02  0.7816164E-02  0.1226708E+00
        -11   -1    0    0    0    0  0.00000000000E+00  0.00000000000E+00  0.45593999997E+02  0.45594000000E+02  0.51100000000E-03 0.  1.
         11   -1    0    0    0    0 -0.00000000000E+00 -0.00000000000E+00 -0.45593999997E+02  0.45594000000E+02  0.51100000000E-03 0. -1.
    9900012    2    1    2    0    0 -0.36851494826E+01 -0.76405336916E+01  0.16694966011E+02  0.72461548870E+02  0.69999972091E+02 0.  0.
         12    1    1    2    0    0  0.36851494826E+01  0.76405336916E+01 -0.16694966011E+02  0.18726451130E+02  0.00000000000E+00 0. -1.
         11    1    3    3    0    0 -0.57135590379E+01  0.14578824986E+02 -0.42560592843E+01  0.16226550334E+02  0.51100000000E-03 0. -1.
        -11    1    3    3    0    0 -0.11274484642E+02  0.11288418882E+02  0.86099068103E+01  0.18129338111E+02  0.51100000000E-03 0.  1.
        -12    1    3    3    0    0  0.13302894197E+02 -0.33507777560E+02  0.12341118485E+02  0.38105660425E+02  0.00000000000E+00 0.  1.
</event>
<event>
 7    1  0.2976321E-013  0.7246119E+02  0.7816164E-02  0.1226709E+00
        -11   -1    0    0    0    0  0.00000000000E+00  0.00000000000E+00  0.45593999997E+02  0.45594000000E+02  0.51100000000E-03 0. -1.
         11   -1    0    0    0    0 -0.00000000000E+00 -0.00000000000E+00 -0.45593999997E+02  0.45594000000E+02  0.51100000000E-03 0.  1.
    9900012    2    1    2    0    0  0.12609056795E+02  0.14807914760E+01  0.13766345182E+02  0.72461192575E+02  0.69999507948E+02 0.  0.
         12    1    1    2    0    0 -0.12609056795E+02 -0.14807914760E+01 -0.13766345182E+02  0.18726807425E+02  0.00000000000E+00 0. -1.
         11    1    3    3    0    0 -0.23352434014E+02  0.12109848559E+02  0.66933109374E+01  0.27143784151E+02  0.51100000000E-03 0. -1.
        -11    1    3    3    0    0  0.11686117741E+02 -0.81255596976E+01 -0.82982909399E+01  0.16475791363E+02  0.51100000000E-03 0.  1.
        -12    1    3    3    0    0  0.24275373067E+02 -0.25034973853E+01  0.15371325185E+02  0.28841617060E+02  0.00000000000E+00 0.  1.
</event>
<event>
 7    1  0.2976321E-013  0.7246157E+02  0.7816164E-02  0.1226708E+00
        -11   -1    0    0    0    0  0.00000000000E+00  0.00000000000E+00  0.45593999997E+02  0.45594000000E+02  0.51100000000E-03 0.  1.
         11   -1    0    0    0    0 -0.00000000000E+00 -0.00000000000E+00 -0.45593999997E+02  0.45594000000E+02  0.51100000000E-03 0. -1.
    9900012    2    1    2    0    0 -0.14927805524E+02  0.37060280063E+01  0.10681995481E+02  0.72461573517E+02  0.70000004199E+02 0.  0.
         12    1    1    2    0    0  0.14927805524E+02 -0.37060280063E+01 -0.10681995481E+02  0.18726426483E+02  0.00000000000E+00 0. -1.
         11    1    3    3    0    0 -0.83836751778E+01  0.20318956872E+02 -0.23995007363E+01  0.22111165096E+02  0.51100000000E-03 0. -1.
        -11    1    3    3    0    0  0.14210101134E+02  0.78957598664E+01  0.68253782067E+01  0.17631102802E+02  0.51100000000E-03 0.  1.
        -12    1    3    3    0    0 -0.20754231480E+02 -0.24508688732E+02  0.62561180110E+01  0.32719305620E+02  0.00000000000E+00 0.  1.
</event>
<event>
 7    1  0.2976321E-013  0.7246155E+02  0.7816164E-02  0.1226708E+00
        -11   -1    0    0    0    0  0.00000000000E+00  0.00000000000E+00  0.45593999997E+02  0.45594000000E+02  0.51100000000E-03 0. -1.
         11   -1    0    0    0    0 -0.00000000000E+00 -0.00000000000E+00 -0.45593999997E+02  0.45594000000E+02  0.51100000000E-03 0.  1.
    9900012    2    1    2    0    0 -0.18689589045E+02  0.89290908168E+00 -0.76274485548E+00  0.72461553326E+02  0.69999977896E+02 0.  0.
         12    1    1    2    0    0  0.18689589045E+02 -0.89290908168E+00  0.76274485548E+00  0.18726446674E+02  0.00000000000E+00 0. -1.
         11    1    3    3    0    0  0.47418862126E+01  0.97950877801E+01 -0.39234989326E+01  0.11568192322E+02  0.51100000000E-03 0.  1.
        -11    1    3    3    0    0 -0.36540025466E+02 -0.11770726320E+02  0.16670019746E+02  0.41852276136E+02  0.51100000000E-03 0. -1.
         12    1    3    3    0    0  0.13108550208E+02  0.28685476215E+01 -0.13509265669E+02  0.19041084868E+02  0.00000000000E+00 0. -1.
</event>
<event>
 7    1  0.2976321E-013  0.7246159E+02  0.7816164E-02  0.1226708E+00
        -11   -1    0    0    0    0  0.00000000000E+00  0.00000000000E+00  0.45593999997E+02  0.45594000000E+02  0.51100000000E-03 0. -1.
         11   -1    0    0    0    0 -0.00000000000E+00 -0.00000000000E+00 -0.45593999997E+02  0.45594000000E+02  0.51100000000E-03 0.  1.
    9900012    2    1    2    0    0  0.11828957127E+02  0.14513658046E+02  0.32867852972E+00  0.72461587472E+02  0.70000022377E+02 0.  0.
         12    1    1    2    0    0 -0.11828957127E+02 -0.14513658046E+02 -0.32867852972E+00  0.18726412528E+02  0.00000000000E+00 0. -1.
         11    1    3    3    0    0  0.36145330225E+01 -0.85406098688E+01 -0.18025161508E+02  0.20270996856E+02  0.51100000000E-03 0. -1.
        -11    1    3    3    0    0  0.19844994090E+02  0.18658804173E+02 -0.30787518287E+01  0.27412651763E+02  0.51100000000E-03 0.  1.
         12    1    3    3    0    0 -0.11630569986E+02  0.43954637421E+01  0.21432591866E+02  0.24777938853E+02  0.00000000000E+00 0. -1.
</event>
<event>
 7    1  0.2976321E-013  0.7246172E+02  0.7816164E-02  0.1226708E+00
        -11   -1    0    0    0    0  0.00000000000E+00  0.00000000000E+00  0.45593999997E+02  0.45594000000E+02  0.51100000000E-03 0. -1.
         11   -1    0    0    0    0 -0.00000000000E+00 -0.00000000000E+00 -0.45593999997E+02  0.45594000000E+02  0.51100000000E-03 0.  1.
    9900012    2    1    2    0    0 -0.45280211796E+01  0.20182828279E+01 -0.18058158325E+02  0.72461721046E+02  0.70000196382E+02 0.  0.
         12    1    1    2    0    0  0.45280211796E+01 -0.20182828279E+01  0.18058158325E+02  0.18726278954E+02  0.00000000000E+00 0. -1.
         11    1    3    3    0    0 -0.82121405491E+01 -0.13612541774E+02  0.12277523707E+02  0.20086765160E+02  0.51100000000E-03 0. -1.
        -11    1    3    3    0    0  0.28533038273E+01 -0.53551885522E+00  0.92034351887E+01  0.96504581606E+01  0.51100000000E-03 0.  1.
        -12    1    3    3    0    0  0.83081554210E+00  0.16166343458E+02 -0.39539117221E+02  0.42724497725E+02  0.00000000000E+00 0.  1.
</event>
<event>
 7    1  0.2976321E-013  0.7246151E+02  0.7816164E-02  0.1226708E+00
        -11   -1    0    0    0    0  0.00000000000E+00  0.00000000000E+00  0.45593999997E+02  0.45594000000E+02  0.51100000000E-03 0. -1.
         11   -1    0    0    0    0 -0.00000000000E+00 -0.00000000000E+00 -0.45593999997E+02  0.45594000000E+02  0.51100000000E-03 0.  1.
    9900012    2    1    2    0    0  0.17777867048E+02 -0.38185617145E+01  0.44774489690E+01  0.72461507546E+02  0.69999918259E+02 0.  0.
         12    1    1    2    0    0 -0.17777867048E+02  0.38185617145E+01 -0.44774489690E+01  0.18726492454E+02  0.00000000000E+00 0. -1.
         11    1    3    3    0    0 -0.78841916373E+00  0.14515981914E+02 -0.45256469706E+01  0.15225531731E+02  0.51100000000E-03 0. -1.
        -11    1    3    3    0    0  0.20689829694E+02  0.11627198103E+02 -0.47441289207E+01  0.24202635145E+02  0.51100000000E-03 0.  1.
         12    1    3    3    0    0 -0.21235434820E+01 -0.29961741732E+02  0.13747224860E+02  0.33033340671E+02  0.00000000000E+00 0. -1.
</event>
<event>
 7    1  0.2976321E-013  0.7246157E+02  0.7816164E-02  0.1226708E+00
        -11   -1    0    0    0    0  0.00000000000E+00  0.00000000000E+00  0.45593999997E+02  0.45594000000E+02  0.51100000000E-03 0. -1.
         11   -1    0    0    0    0 -0.00000000000E+00 -0.00000000000E+00 -0.45593999997E+02  0.45594000000E+02  0.51100000000E-03 0.  1.
    9900012    2    1    2    0    0 -0.28060662147E+00 -0.18112755881E+02 -0.47464169554E+01  0.72461571094E+02  0.70000001041E+02 0.  0.
         12    1    1    2    0    0  0.28060662147E+00  0.18112755881E+02  0.47464169554E+01  0.18726428906E+02  0.00000000000E+00 0. -1.
         11    1    3    3    0    0 -0.36350870378E+01  0.12158932963E+02  0.43797097223E+00  0.12698241115E+02  0.51100000000E-03 0. -1.
        -11    1    3    3    0    0  0.17836671996E+02  0.67641489502E+01  0.25674251997E+01  0.19248175273E+02  0.51100000000E-03 0.  1.
         12    1    3    3    0    0 -0.14482191580E+02 -0.37035837794E+02 -0.77518131273E+01  0.40515154706E+02  0.00000000000E+00 0. -1.
</event>
<event>
 7    1  0.2976321E-013  0.7246156E+02  0.7816164E-02  0.1226708E+00
        -11   -1    0    0    0    0  0.00000000000E+00  0.00000000000E+00  0.45593999997E+02  0.45594000000E+02  0.51100000000E-03 0.  1.
         11   -1    0    0    0    0 -0.00000000000E+00 -0.00000000000E+00 -0.45593999997E+02  0.45594000000E+02  0.51100000000E-03 0. -1.
    9900012    2    1    2    0    0 -0.10017197015E+02  0.86120721317E+01  0.13272806353E+02  0.72461563849E+02  0.69999991604E+02 0.  0.
         12    1    1    2    0    0  0.10017197015E+02 -0.86120721317E+01 -0.13272806353E+02  0.18726436151E+02  0.00000000000E+00 0. -1.
         11    1    3    3    0    0 -0.45209337428E+01 -0.13234992501E+02 -0.69059791464E+01  0.15597961939E+02  0.51100000000E-03 0. -1.
        -11    1    3    3    0    0  0.64345787710E+01 -0.28943860666E+00  0.29386346716E+02  0.30083965036E+02  0.51100000000E-03 0.  1.
         12    1    3    3    0    0 -0.11930842044E+02  0.22136503240E+02 -0.92075612175E+01  0.26779636874E+02  0.00000000000E+00 0. -1.
</event>
<event>
 7    1  0.2976321E-013  0.7246163E+02  0.7816164E-02  0.1226708E+00
        -11   -1    0    0    0    0  0.00000000000E+00  0.00000000000E+00  0.45593999997E+02  0.45594000000E+02  0.51100000000E-03 0.  1.
         11   -1    0    0    0    0 -0.00000000000E+00 -0.00000000000E+00 -0.45593999997E+02  0.45594000000E+02  0.51100000000E-03 0. -1.
    9900012    2    1    2    0    0 -0.13615602246E+02  0.11047072465E+02  0.65768029413E+01  0.72461634322E+02  0.70000083408E+02 0.  0.
         12    1    1    2    0    0  0.13615602246E+02 -0.11047072465E+02 -0.65768029413E+01  0.18726365678E+02  0.00000000000E+00 0. -1.
         11    1    3    3    0    0  0.10532094213E+02 -0.22150668278E+02 -0.10358294059E+01  0.24548931881E+02  0.51100000000E-03 0. -1.
        -11    1    3    3    0    0 -0.11267681179E+01  0.32906912053E+01  0.95077379735E+01  0.10123998056E+02  0.51100000000E-03 0.  1.
        -12    1    3    3    0    0 -0.23020928341E+02  0.29907049538E+02 -0.18951056263E+01  0.37788704385E+02  0.00000000000E+00 0.  1.
</event>
<event>
 7    1  0.2976321E-013  0.7246154E+02  0.7816164E-02  0.1226708E+00
        -11   -1    0    0    0    0  0.00000000000E+00  0.00000000000E+00  0.45593999997E+02  0.45594000000E+02  0.51100000000E-03 0. -1.
         11   -1    0    0    0    0 -0.00000000000E+00 -0.00000000000E+00 -0.45593999997E+02  0.45594000000E+02  0.51100000000E-03 0.  1.
    9900012    2    1    2    0    0 -0.22006721027E+01  0.40129348507E+01 -0.18158575333E+02  0.72461535786E+02  0.69999955047E+02 0.  0.
         12    1    1    2    0    0  0.22006721027E+01 -0.40129348507E+01  0.18158575333E+02  0.18726464214E+02  0.00000000000E+00 0. -1.
         11    1    3    3    0    0 -0.24298424947E+02 -0.99779442645E+01  0.71261411174E+00  0.26276998417E+02  0.51100000000E-03 0.  1.
        -11    1    3    3    0    0  0.27870131321E+01 -0.76550004197E+01  0.41584530416E+01  0.91465406348E+01  0.51100000000E-03 0. -1.
        -12    1    3    3    0    0  0.19310739712E+02  0.21645879535E+02 -0.23029642486E+02  0.37037996735E+02  0.00000000000E+00 0.  1.
</event>
<event>
 7    1  0.2976321E-013  0.7246157E+02  0.7816164E-02  0.1226708E+00
        -11   -1    0    0    0    0  0.00000000000E+00  0.00000000000E+00  0.45593999997E+02  0.45594000000E+02  0.51100000000E-03 0.  1.
         11   -1    0    0    0    0 -0.00000000000E+00 -0.00000000000E+00 -0.45593999997E+02  0.45594000000E+02  0.51100000000E-03 0. -1.
    9900012    2    1    2    0    0  0.49607197269E+01 -0.15010367111E+02  0.10037888276E+02  0.72461573163E+02  0.70000003738E+02 0.  0.
         12    1    1    2    0    0 -0.49607197269E+01  0.15010367111E+02 -0.10037888276E+02  0.18726426837E+02  0.00000000000E+00 0. -1.
         11    1    3    3    0    0 -0.17710707906E+02  0.17867520851E+02 -0.72847431242E+01  0.26191314563E+02  0.51100000000E-03 0. -1.
        -11    1    3    3    0    0  0.13723463304E+01 -0.68595903681E+01  0.94133725149E+01  0.11728124182E+02  0.51100000000E-03 0.  1.
        -12    1    3    3    0    0  0.21299081303E+02 -0.26018297594E+02  0.79092588849E+01  0.34542134418E+02  0.00000000000E+00 0.  1.
</event>
<event>
 7    1  0.2976321E-013  0.7246085E+02  0.7816164E-02  0.1226710E+00
        -11   -1    0    0    0    0  0.00000000000E+00  0.00000000000E+00  0.45593999997E+02  0.45594000000E+02  0.51100000000E-03 0.  1.
         11   -1    0    0    0    0 -0.00000000000E+00 -0.00000000000E+00 -0.45593999997E+02  0.45594000000E+02  0.51100000000E-03 0. -1.
    9900012    2    1    2    0    0 -0.18701558850E+02 -0.93385672845E+00  0.29260483157E+00  0.72460853678E+02  0.69999066467E+02 0.  0.
         12    1    1    2    0    0  0.18701558850E+02  0.93385672845E+00 -0.29260483157E+00  0.18727146322E+02  0.00000000000E+00 0. -1.
         11    1    3    3    0    0 -0.87887629833E+01 -0.10255253567E+02 -0.21305229754E+02  0.25225490989E+02  0.51100000000E-03 0. -1.
        -11    1    3    3    0    0  0.15225386002E+02  0.33571730424E+01  0.44044312618E+01  0.16201296391E+02  0.51100000000E-03 0.  1.
        -12    1    3    3    0    0 -0.25138181868E+02  0.59642237967E+01  0.17193403324E+02  0.31034066298E+02  0.00000000000E+00 0.  1.
</event>
<event>
 7    1  0.2976321E-013  0.7246158E+02  0.7816164E-02  0.1226708E+00
        -11   -1    0    0    0    0  0.00000000000E+00  0.00000000000E+00  0.45593999997E+02  0.45594000000E+02  0.51100000000E-03 0. -1.
         11   -1    0    0    0    0 -0.00000000000E+00 -0.00000000000E+00 -0.45593999997E+02  0.45594000000E+02  0.51100000000E-03 0.  1.
    9900012    2    1    2    0    0  0.18169571335E+02  0.33572209038E+01 -0.30454360266E+01  0.72461576549E+02  0.70000008147E+02 0.  0.
         12    1    1    2    0    0 -0.18169571335E+02 -0.33572209038E+01  0.30454360266E+01  0.18726423451E+02  0.00000000000E+00 0. -1.
         11    1    3    3    0    0  0.12419633000E+02 -0.10901241518E+01  0.61884088903E+00  0.12482732827E+02  0.51100000000E-03 0. -1.
        -11    1    3    3    0    0  0.19407560861E+02 -0.18958862801E+02  0.10870318972E+02  0.29227653551E+02  0.51100000000E-03 0.  1.
         12    1    3    3    0    0 -0.13657622526E+02  0.23406207857E+02 -0.14534595888E+02  0.30751190171E+02  0.00000000000E+00 0. -1.
</event>
<event>
 7    1  0.2976321E-013  0.7246159E+02  0.7816164E-02  0.1226708E+00
        -11   -1    0    0    0    0  0.00000000000E+00  0.00000000000E+00  0.45593999997E+02  0.45594000000E+02  0.51100000000E-03 0.  1.
         11   -1    0    0    0    0 -0.00000000000E+00 -0.00000000000E+00 -0.45593999997E+02  0.45594000000E+02  0.51100000000E-03 0. -1.
    9900012    2    1    2    0    0 -0.91362985722E+01  0.12543953640E+02  0.10481215057E+02  0.72461585672E+02  0.70000020032E+02 0.  0.
         12    1    1    2    0    0  0.91362985722E+01 -0.12543953640E+02 -0.10481215057E+02  0.18726414328E+02  0.00000000000E+00 0. -1.
         11    1    3    3    0    0 -0.34143733961E+00  0.91435922893E+01  0.91981601312E+01  0.12974128467E+02  0.51100000000E-03 0. -1.
        -11    1    3    3    0    0 -0.24351953047E+02  0.23403538486E+02 -0.24939440692E+01  0.33866842016E+02  0.51100000000E-03 0.  1.
         12    1    3    3    0    0  0.15557091815E+02 -0.20003177136E+02  0.37769989949E+01  0.25620615189E+02  0.00000000000E+00 0. -1.
</event>
<event>
 7    1  0.2976321E-013  0.7246181E+02  0.7816164E-02  0.1226707E+00
        -11   -1    0    0    0    0  0.00000000000E+00  0.00000000000E+00  0.45593999997E+02  0.45594000000E+02  0.51100000000E-03 0. -1.
         11   -1    0    0    0    0 -0.00000000000E+00 -0.00000000000E+00 -0.45593999997E+02  0.45594000000E+02  0.51100000000E-03 0.  1.
    9900012    2    1    2    0    0 -0.21383198000E+01  0.17858334433E+02 -0.52132139910E+01  0.72461811910E+02  0.70000314748E+02 0.  0.
         12    1    1    2    0    0  0.21383198000E+01 -0.17858334433E+02  0.52132139910E+01  0.18726188090E+02  0.00000000000E+00 0. -1.
         11    1    3    3    0    0  0.29848486211E+01  0.31249136258E+01 -0.49625922516E+00  0.43497907926E+01  0.51100000000E-03 0. -1.
        -11    1    3    3    0    0  0.19889101369E+02 -0.17583054185E+02  0.23090802348E+01  0.26647176202E+02  0.51100000000E-03 0.  1.
         12    1    3    3    0    0 -0.25012269790E+02  0.32316474992E+02 -0.70260350006E+01  0.41464844915E+02  0.00000000000E+00 0. -1.
</event>
<event>
 7    1  0.2976321E-013  0.7246154E+02  0.7816164E-02  0.1226708E+00
        -11   -1    0    0    0    0  0.00000000000E+00  0.00000000000E+00  0.45593999997E+02  0.45594000000E+02  0.51100000000E-03 0. -1.
         11   -1    0    0    0    0 -0.00000000000E+00 -0.00000000000E+00 -0.45593999997E+02  0.45594000000E+02  0.51100000000E-03 0.  1.
    9900012    2    1    2    0    0 -0.60134992389E+01 -0.44955734277E+01 -0.17155403270E+02  0.72461542382E+02  0.69999963639E+02 0.  0.
         12    1    1    2    0    0  0.60134992389E+01  0.44955734277E+01  0.17155403270E+02  0.18726457618E+02  0.00000000000E+00 0. -1.
         11    1    3    3    0    0 -0.11854358778E+01  0.19028522152E+02 -0.16933312929E+02  0.25499549025E+02  0.51100000000E-03 0. -1.
        -11    1    3    3    0    0 -0.90303084808E+01  0.75076626719E+01 -0.85880554318E+01  0.14548751370E+02  0.51100000000E-03 0.  1.
        -12    1    3    3    0    0  0.42022451197E+01 -0.31031758251E+02  0.83659650899E+01  0.32413241987E+02  0.00000000000E+00 0.  1.
</event>
<event>
 7    1  0.2976321E-013  0.7246158E+02  0.7816164E-02  0.1226708E+00
        -11   -1    0    0    0    0  0.00000000000E+00  0.00000000000E+00  0.45593999997E+02  0.45594000000E+02  0.51100000000E-03 0. -1.
         11   -1    0    0    0    0 -0.00000000000E+00 -0.00000000000E+00 -0.45593999997E+02  0.45594000000E+02  0.51100000000E-03 0.  1.
    9900012    2    1    2    0    0 -0.63021743094E+01 -0.16176758104E+02 -0.70195290100E+01  0.72461583063E+02  0.70000016633E+02 0.  0.
         12    1    1    2    0    0  0.63021743094E+01  0.16176758104E+02  0.70195290100E+01  0.18726416937E+02  0.00000000000E+00 0. -1.
         11    1    3    3    0    0 -0.11810664049E+02  0.12271889836E+01 -0.11889130537E+02  0.16803249783E+02  0.51100000000E-03 0. -1.
        -11    1    3    3    0    0  0.19714406936E+02 -0.29890300800E+02 -0.11061765057E+01  0.35823338056E+02  0.51100000000E-03 0.  1.
         12    1    3    3    0    0 -0.14205917196E+02  0.12486353712E+02  0.59757780331E+01  0.19834995224E+02  0.00000000000E+00 0. -1.
</event>
<event>
 7    1  0.2976321E-013  0.7246153E+02  0.7816164E-02  0.1226708E+00
        -11   -1    0    0    0    0  0.00000000000E+00  0.00000000000E+00  0.45593999997E+02  0.45594000000E+02  0.51100000000E-03 0. -1.
         11   -1    0    0    0    0 -0.00000000000E+00 -0.00000000000E+00 -0.45593999997E+02  0.45594000000E+02  0.51100000000E-03 0.  1.
    9900012    2    1    2    0    0 -0.18041503696E+02  0.49986037621E+01  0.44591652197E+00  0.72461528449E+02  0.69999945489E+02 0.  0.
         12    1    1    2    0    0  0.18041503696E+02 -0.49986037621E+01 -0.44591652197E+00  0.18726471551E+02  0.00000000000E+00 0. -1.
         11    1    3    3    0    0  0.56853164811E+01 -0.14077123636E+02 -0.31582467990E+01  0.15506861593E+02  0.51100000000E-03 0. -1.
        -11    1    3    3    0    0  0.26523342046E+01 -0.40759369314E+01 -0.16020911431E+02  0.16742692195E+02  0.51100000000E-03 0.  1.
         12    1    3    3    0    0 -0.26379154382E+02  0.23151664329E+02  0.19625074752E+02  0.40211974661E+02  0.00000000000E+00 0. -1.
</event>
<event>
 7    1  0.2976321E-013  0.7246155E+02  0.7816164E-02  0.1226708E+00
        -11   -1    0    0    0    0  0.00000000000E+00  0.00000000000E+00  0.45593999997E+02  0.45594000000E+02  0.51100000000E-03 0.  1.
         11   -1    0    0    0    0 -0.00000000000E+00 -0.00000000000E+00 -0.45593999997E+02  0.45594000000E+02  0.51100000000E-03 0. -1.
    9900012    2    1    2    0    0 -0.63666859133E+00 -0.10151122509E+02  0.15723525895E+02  0.72461550746E+02  0.69999974535E+02 0.  0.
         12    1    1    2    0    0  0.63666859133E+00  0.10151122509E+02 -0.15723525895E+02  0.18726449254E+02  0.00000000000E+00 0. -1.
         11    1    3    3    0    0  0.64585539715E+01 -0.18075970058E+02 -0.69855953424E+01  0.20426750977E+02  0.51100000000E-03 0. -1.
        -11    1    3    3    0    0 -0.18436664168E+02 -0.13047777107E+02  0.77089187298E+01  0.23865927624E+02  0.51100000000E-03 0.  1.
        -12    1    3    3    0    0  0.11341441605E+02  0.20972624657E+02  0.15000202508E+02  0.28168872145E+02  0.00000000000E+00 0.  1.
</event>
<event>
 7    1  0.2976321E-013  0.7246166E+02  0.7816164E-02  0.1226708E+00
        -11   -1    0    0    0    0  0.00000000000E+00  0.00000000000E+00  0.45593999997E+02  0.45594000000E+02  0.51100000000E-03 0.  1.
         11   -1    0    0    0    0 -0.00000000000E+00 -0.00000000000E+00 -0.45593999997E+02  0.45594000000E+02  0.51100000000E-03 0. -1.
    9900012    2    1    2    0    0  0.11849626358E+02  0.18366195318E+01 -0.14383636583E+02  0.72461659794E+02  0.70000116590E+02 0.  0.
         12    1    1    2    0    0 -0.11849626358E+02 -0.18366195318E+01  0.14383636583E+02  0.18726340206E+02  0.00000000000E+00 0. -1.
         11    1    3    3    0    0  0.11693083722E+02  0.11122358295E+02 -0.42185149885E+01  0.16680255691E+02  0.51100000000E-03 0. -1.
        -11    1    3    3    0    0 -0.27767412696E+01  0.17079699362E+02  0.12127216361E+02  0.21130447211E+02  0.51100000000E-03 0.  1.
         12    1    3    3    0    0  0.29332839063E+01 -0.26365438125E+02 -0.22292337956E+02  0.34650956892E+02  0.00000000000E+00 0. -1.
</event>
<event>
 7    1  0.2976321E-013  0.7246160E+02  0.7816164E-02  0.1226708E+00
        -11   -1    0    0    0    0  0.00000000000E+00  0.00000000000E+00  0.45593999997E+02  0.45594000000E+02  0.51100000000E-03 0.  1.
         11   -1    0    0    0    0 -0.00000000000E+00 -0.00000000000E+00 -0.45593999997E+02  0.45594000000E+02  0.51100000000E-03 0. -1.
    9900012    2    1    2    0    0 -0.13920967327E+02  0.46793267381E+01  0.11618453308E+02  0.72461604530E+02  0.70000044598E+02 0.  0.
         12    1    1    2    0    0  0.13920967327E+02 -0.46793267381E+01 -0.11618453308E+02  0.18726395470E+02  0.00000000000E+00 0. -1.
         11    1    3    3    0    0 -0.73714204918E-01  0.91526996011E+01 -0.10732118644E+02  0.14105166239E+02  0.51100000000E-03 0. -1.
        -11    1    3    3    0    0 -0.17161321119E+01 -0.26328224879E+02  0.26243586525E+01  0.26514294131E+02  0.51100000000E-03 0.  1.
         12    1    3    3    0    0 -0.12131121010E+02  0.21854852016E+02  0.19726213300E+02  0.31842144160E+02  0.00000000000E+00 0. -1.
</event>
<event>
 7    1  0.2976321E-013  0.7246159E+02  0.7816164E-02  0.1226708E+00
        -11   -1    0    0    0    0  0.00000000000E+00  0.00000000000E+00  0.45593999997E+02  0.45594000000E+02  0.51100000000E-03 0.  1.
         11   -1    0    0    0    0 -0.00000000000E+00 -0.00000000000E+00 -0.45593999997E+02  0.45594000000E+02  0.51100000000E-03 0. -1.
    9900012    2    1    2    0    0  0.47405399372E+01  0.13152577150E+02  0.12458544420E+02  0.72461592612E+02  0.70000029073E+02 0.  0.
         12    1    1    2    0    0 -0.47405399372E+01 -0.13152577150E+02 -0.12458544420E+02  0.18726407388E+02  0.00000000000E+00 0. -1.
         11    1    3    3    0    0  0.14676850926E+02 -0.50227986912E+01 -0.20337528742E+02  0.25578380234E+02  0.51100000000E-03 0. -1.
        -11    1    3    3    0    0 -0.30963658528E+01 -0.54392866426E+01  0.47864097467E+00  0.62771345468E+01  0.51100000000E-03 0.  1.
        -12    1    3    3    0    0 -0.68399451362E+01  0.23614662484E+02  0.32317432187E+02  0.40606077832E+02  0.00000000000E+00 0.  1.
</event>
<event>
 7    1  0.2976321E-013  0.7246155E+02  0.7816164E-02  0.1226708E+00
        -11   -1    0    0    0    0  0.00000000000E+00  0.00000000000E+00  0.45593999997E+02  0.45594000000E+02  0.51100000000E-03 0. -1.
         11   -1    0    0    0    0 -0.00000000000E+00 -0.00000000000E+00 -0.45593999997E+02  0.45594000000E+02  0.51100000000E-03 0.  1.
    9900012    2    1    2    0    0  0.16294624428E+02 -0.48491750826E+00 -0.92157502990E+01  0.72461548553E+02  0.69999971677E+02 0.  0.
         12    1    1    2    0    0 -0.16294624428E+02  0.48491750826E+00  0.92157502990E+01  0.18726451447E+02  0.00000000000E+00 0. -1.
         11    1    3    3    0    0  0.11130123396E+02  0.17790017073E+02 -0.97646729341E+01  0.23145478868E+02  0.51100000000E-03 0. -1.
        -11    1    3    3    0    0  0.15721320972E+02 -0.33649426022E+01 -0.17410176279E+02  0.23698038107E+02  0.51100000000E-03 0.  1.
        -12    1    3    3    0    0 -0.10556819940E+02 -0.14909991980E+02  0.17959098914E+02  0.25618031577E+02  0.00000000000E+00 0.  1.
</event>
<event>
 7    1  0.2976321E-013  0.7246156E+02  0.7816164E-02  0.1226708E+00
        -11   -1    0    0    0    0  0.00000000000E+00  0.00000000000E+00  0.45593999997E+02  0.45594000000E+02  0.51100000000E-03 0.  1.
         11   -1    0    0    0    0 -0.00000000000E+00 -0.00000000000E+00 -0.45593999997E+02  0.45594000000E+02  0.51100000000E-03 0. -1.
    9900012    2    1    2    0    0 -0.10963867188E+01 -0.18662653017E+02  0.10876117707E+01  0.72461559312E+02  0.69999985693E+02 0.  0.
         12    1    1    2    0    0  0.10963867188E+01  0.18662653017E+02 -0.10876117707E+01  0.18726440688E+02  0.00000000000E+00 0. -1.
         11    1    3    3    0    0 -0.86483949409E+01  0.27506758609E+01 -0.37554241224E+01  0.98216171451E+01  0.51100000000E-03 0. -1.
        -11    1    3    3    0    0 -0.10097194670E+02 -0.18809235335E+02 -0.21841105718E+02  0.30541358407E+02  0.51100000000E-03 0.  1.
        -12    1    3    3    0    0  0.17649202892E+02 -0.26040935435E+01  0.26684141611E+02  0.32098583760E+02  0.00000000000E+00 0.  1.
</event>
<event>
 7    1  0.2976321E-013  0.7246166E+02  0.7816164E-02  0.1226708E+00
        -11   -1    0    0    0    0  0.00000000000E+00  0.00000000000E+00  0.45593999997E+02  0.45594000000E+02  0.51100000000E-03 0.  1.
         11   -1    0    0    0    0 -0.00000000000E+00 -0.00000000000E+00 -0.45593999997E+02  0.45594000000E+02  0.51100000000E-03 0. -1.
    9900012    2    1    2    0    0 -0.57757260186E+00  0.13579596682E+02 -0.12881650205E+02  0.72461656306E+02  0.70000112046E+02 0.  0.
         12    1    1    2    0    0  0.57757260186E+00 -0.13579596682E+02  0.12881650205E+02  0.18726343694E+02  0.00000000000E+00 0. -1.
         11    1    3    3    0    0  0.13809111786E+02 -0.45051683079E+01  0.18215429659E+02  0.23297853715E+02  0.51100000000E-03 0.  1.
        -11    1    3    3    0    0 -0.14061361435E+02  0.21418978232E+02 -0.95284062781E+01  0.27336514781E+02  0.51100000000E-03 0. -1.
         12    1    3    3    0    0 -0.32532295298E+00 -0.33342132421E+01 -0.21568673585E+02  0.21827287811E+02  0.00000000000E+00 0. -1.
</event>
<event>
 7    1  0.2976321E-013  0.7246155E+02  0.7816164E-02  0.1226708E+00
        -11   -1    0    0    0    0  0.00000000000E+00  0.00000000000E+00  0.45593999997E+02  0.45594000000E+02  0.51100000000E-03 0. -1.
         11   -1    0    0    0    0 -0.00000000000E+00 -0.00000000000E+00 -0.45593999997E+02  0.45594000000E+02  0.51100000000E-03 0.  1.
    9900012    2    1    2    0    0  0.11190534823E+02  0.11653806225E+02 -0.94678769785E+01  0.72461549092E+02  0.69999972380E+02 0.  0.
         12    1    1    2    0    0 -0.11190534823E+02 -0.11653806225E+02  0.94678769785E+01  0.18726450908E+02  0.00000000000E+00 0. -1.
         11    1    3    3    0    0  0.16845299800E+02  0.68760397582E+01 -0.14517178563E+02  0.23276437051E+02  0.51100000000E-03 0. -1.
        -11    1    3    3    0    0 -0.91426856323E+01 -0.49073311638E+01 -0.19763409040E+02  0.22321804069E+02  0.51100000000E-03 0.  1.
         12    1    3    3    0    0  0.34879206549E+01  0.96850976303E+01  0.24812710625E+02  0.26863307972E+02  0.00000000000E+00 0. -1.
</event>
<event>
 7    1  0.2976321E-013  0.7246159E+02  0.7816164E-02  0.1226708E+00
        -11   -1    0    0    0    0  0.00000000000E+00  0.00000000000E+00  0.45593999997E+02  0.45594000000E+02  0.51100000000E-03 0.  1.
         11   -1    0    0    0    0 -0.00000000000E+00 -0.00000000000E+00 -0.45593999997E+02  0.45594000000E+02  0.51100000000E-03 0. -1.
    9900012    2    1    2    0    0  0.17749612310E+02 -0.59551575193E+01  0.40736502868E+00  0.72461585914E+02  0.70000020348E+02 0.  0.
         12    1    1    2    0    0 -0.17749612310E+02  0.59551575193E+01 -0.40736502868E+00  0.18726414086E+02  0.00000000000E+00 0. -1.
         11    1    3    3    0    0  0.99374850751E+01 -0.18284797388E+00  0.38250255335E+01  0.10649782326E+02  0.51100000000E-03 0. -1.
        -11    1    3    3    0    0  0.74507761604E+01 -0.21647462367E+02 -0.25720499036E+02  0.34433570295E+02  0.51100000000E-03 0.  1.
         12    1    3    3    0    0  0.36135107485E+00  0.15875152822E+02  0.22302838531E+02  0.27378233293E+02  0.00000000000E+00 0. -1.
</event>
<event>
 7    1  0.2976321E-013  0.7246157E+02  0.7816164E-02  0.1226708E+00
        -11   -1    0    0    0    0  0.00000000000E+00  0.00000000000E+00  0.45593999997E+02  0.45594000000E+02  0.51100000000E-03 0. -1.
         11   -1    0    0    0    0 -0.00000000000E+00 -0.00000000000E+00 -0.45593999997E+02  0.45594000000E+02  0.51100000000E-03 0.  1.
    9900012    2    1    2    0    0 -0.17412738509E+02  0.49376588794E+01  0.48057644879E+01  0.72461566546E+02  0.69999995117E+02 0.  0.
         12    1    1    2    0    0  0.17412738509E+02 -0.49376588794E+01 -0.48057644879E+01  0.18726433454E+02  0.00000000000E+00 0. -1.
         11    1    3    3    0    0 -0.88210783213E+01 -0.20932919659E+02  0.43353116861E+01  0.23125602173E+02  0.51100000000E-03 0. -1.
        -11    1    3    3    0    0  0.66379068159E+00 -0.61585113750E+01 -0.12189999433E+02  0.13673476766E+02  0.51100000000E-03 0.  1.
         12    1    3    3    0    0 -0.92554508695E+01  0.32029089913E+02  0.12660452235E+02  0.35662487606E+02  0.00000000000E+00 0. -1.
</event>
<event>
 7    1  0.2976321E-013  0.7246168E+02  0.7816164E-02  0.1226708E+00
        -11   -1    0    0    0    0  0.00000000000E+00  0.00000000000E+00  0.45593999997E+02  0.45594000000E+02  0.51100000000E-03 0.  1.
         11   -1    0    0    0    0 -0.00000000000E+00 -0.00000000000E+00 -0.45593999997E+02  0.45594000000E+02  0.51100000000E-03 0. -1.
    9900012    2    1    2    0    0 -0.39937944030E+01 -0.75347181183E+01  0.16671916999E+02  0.72461676621E+02  0.70000138510E+02 0.  0.
         12    1    1    2    0    0  0.39937944030E+01  0.75347181183E+01 -0.16671916999E+02  0.18726323379E+02  0.00000000000E+00 0. -1.
         11    1    3    3    0    0 -0.17023947532E+01  0.40459429992E-01 -0.25883939806E+01  0.30983170466E+01  0.51100000000E-03 0. -1.
        -11    1    3    3    0    0  0.32536456810E+01 -0.31080322816E+02 -0.86791189168E+01  0.32433004517E+02  0.51100000000E-03 0.  1.
         12    1    3    3    0    0 -0.55450453308E+01  0.23505145267E+02  0.27939429897E+02  0.36930355058E+02  0.00000000000E+00 0. -1.
</event>
<event>
 7    1  0.2976321E-013  0.7246148E+02  0.7816164E-02  0.1226708E+00
        -11   -1    0    0    0    0  0.00000000000E+00  0.00000000000E+00  0.45593999997E+02  0.45594000000E+02  0.51100000000E-03 0.  1.
         11   -1    0    0    0    0 -0.00000000000E+00 -0.00000000000E+00 -0.45593999997E+02  0.45594000000E+02  0.51100000000E-03 0. -1.
    9900012    2    1    2    0    0 -0.38762075889E+01  0.98670325226E+01  0.15436939148E+02  0.72461483871E+02  0.69999887417E+02 0.  0.
         12    1    1    2    0    0  0.38762075889E+01 -0.98670325226E+01 -0.15436939148E+02  0.18726516129E+02  0.00000000000E+00 0. -1.
         11    1    3    3    0    0 -0.18759495267E+02  0.55094088333E+01 -0.72376598954E+01  0.20848404480E+02  0.51100000000E-03 0. -1.
        -11    1    3    3    0    0 -0.50199421897E+01  0.41047230119E+01  0.29780185974E+02  0.30477992839E+02  0.51100000000E-03 0.  1.
         12    1    3    3    0    0  0.19903229868E+02  0.25290067737E+00 -0.71055869299E+01  0.21135086551E+02  0.00000000000E+00 0. -1.
</event>
<event>
 7    1  0.2976321E-013  0.7246158E+02  0.7816164E-02  0.1226708E+00
        -11   -1    0    0    0    0  0.00000000000E+00  0.00000000000E+00  0.45593999997E+02  0.45594000000E+02  0.51100000000E-03 0.  1.
         11   -1    0    0    0    0 -0.00000000000E+00 -0.00000000000E+00 -0.45593999997E+02  0.45594000000E+02  0.51100000000E-03 0. -1.
    9900012    2    1    2    0    0 -0.75371173543E+01  0.14932988285E+02 -0.84188091997E+01  0.72461584821E+02  0.70000018923E+02 0.  0.
         12    1    1    2    0    0  0.75371173543E+01 -0.14932988285E+02  0.84188091997E+01  0.18726415179E+02  0.00000000000E+00 0. -1.
         11    1    3    3    0    0  0.23164015951E+02  0.24121603744E+02 -0.12871054969E+02  0.35834166077E+02  0.51100000000E-03 0. -1.
        -11    1    3    3    0    0 -0.98892253675E+00 -0.58297446546E+01 -0.15867412906E+01  0.61222249800E+01  0.51100000000E-03 0.  1.
        -12    1    3    3    0    0 -0.29712210768E+02 -0.33588708046E+01  0.60389870602E+01  0.30505193763E+02  0.00000000000E+00 0.  1.
</event>
<event>
 7    1  0.2976321E-013  0.7246156E+02  0.7816164E-02  0.1226708E+00
        -11   -1    0    0    0    0  0.00000000000E+00  0.00000000000E+00  0.45593999997E+02  0.45594000000E+02  0.51100000000E-03 0.  1.
         11   -1    0    0    0    0 -0.00000000000E+00 -0.00000000000E+00 -0.45593999997E+02  0.45594000000E+02  0.51100000000E-03 0. -1.
    9900012    2    1    2    0    0  0.47850950015E+01 -0.89393658519E+01  0.15743890733E+02  0.72461561700E+02  0.69999988804E+02 0.  0.
         12    1    1    2    0    0 -0.47850950015E+01  0.89393658519E+01 -0.15743890733E+02  0.18726438300E+02  0.00000000000E+00 0. -1.
         11    1    3    3    0    0 -0.11742572936E+02  0.20755511991E+01  0.11745820307E+02  0.16737987540E+02  0.51100000000E-03 0. -1.
        -11    1    3    3    0    0 -0.13064558297E+02 -0.20536094454E+02  0.38156664253E+01  0.24636825474E+02  0.51100000000E-03 0.  1.
         12    1    3    3    0    0  0.29592226234E+02  0.95211774028E+01  0.18240400038E+00  0.31086748686E+02  0.00000000000E+00 0. -1.
</event>
<event>
 7    1  0.2976321E-013  0.7246155E+02  0.7816164E-02  0.1226708E+00
        -11   -1    0    0    0    0  0.00000000000E+00  0.00000000000E+00  0.45593999997E+02  0.45594000000E+02  0.51100000000E-03 0.  1.
         11   -1    0    0    0    0 -0.00000000000E+00 -0.00000000000E+00 -0.45593999997E+02  0.45594000000E+02  0.51100000000E-03 0. -1.
    9900012    2    1    2    0    0  0.15957336536E+02  0.77837220570E+01  0.59545879626E+01  0.72461547154E+02  0.69999969856E+02 0.  0.
         12    1    1    2    0    0 -0.15957336536E+02 -0.77837220570E+01 -0.59545879626E+01  0.18726452846E+02  0.00000000000E+00 0. -1.
         11    1    3    3    0    0  0.39472752013E+01  0.19030447324E+01  0.41856317409E+01  0.60598740993E+01  0.51100000000E-03 0. -1.
        -11    1    3    3    0    0  0.22165346649E+02  0.29721561701E+02 -0.92965347702E+01  0.38224329700E+02  0.51100000000E-03 0.  1.
         12    1    3    3    0    0 -0.10155285315E+02 -0.23840884376E+02  0.11065490992E+02  0.28177343355E+02  0.00000000000E+00 0. -1.
</event>
<event>
 7    1  0.2976321E-013  0.7246157E+02  0.7816164E-02  0.1226708E+00
        -11   -1    0    0    0    0  0.00000000000E+00  0.00000000000E+00  0.45593999997E+02  0.45594000000E+02  0.51100000000E-03 0. -1.
         11   -1    0    0    0    0 -0.00000000000E+00 -0.00000000000E+00 -0.45593999997E+02  0.45594000000E+02  0.51100000000E-03 0.  1.
    9900012    2    1    2    0    0 -0.91125542630E+01  0.16359439267E+02  0.96358786543E-01  0.72461569925E+02  0.69999999519E+02 0.  0.
         12    1    1    2    0    0  0.91125542630E+01 -0.16359439267E+02 -0.96358786543E-01  0.18726430075E+02  0.00000000000E+00 0. -1.
         11    1    3    3    0    0  0.19441324135E+01  0.79634252937E+01 -0.10261717058E+02  0.13133873400E+02  0.51100000000E-03 0. -1.
        -11    1    3    3    0    0  0.88363799741E+01 -0.67331878259E+00 -0.20023772957E+02  0.21897179109E+02  0.51100000000E-03 0.  1.
         12    1    3    3    0    0 -0.19893066651E+02  0.90693327563E+01  0.30381848802E+02  0.37430517416E+02  0.00000000000E+00 0. -1.
</event>
<event>
 7    1  0.2976321E-013  0.7246165E+02  0.7816164E-02  0.1226708E+00
        -11   -1    0    0    0    0  0.00000000000E+00  0.00000000000E+00  0.45593999997E+02  0.45594000000E+02  0.51100000000E-03 0.  1.
         11   -1    0    0    0    0 -0.00000000000E+00 -0.00000000000E+00 -0.45593999997E+02  0.45594000000E+02  0.51100000000E-03 0. -1.
    9900012    2    1    2    0    0 -0.16265789413E+02  0.23356378695E+01  0.89802592244E+01  0.72461650510E+02  0.70000104495E+02 0.  0.
         12    1    1    2    0    0  0.16265789413E+02 -0.23356378695E+01 -0.89802592244E+01  0.18726349490E+02  0.00000000000E+00 0. -1.
         11    1    3    3    0    0 -0.46068871810E+01 -0.41209687532E+01  0.95638444084E+01  0.11387401507E+02  0.51100000000E-03 0. -1.
        -11    1    3    3    0    0 -0.34736656214E+02 -0.48497137915E+01 -0.33203529501E+01  0.35230381104E+02  0.51100000000E-03 0.  1.
         12    1    3    3    0    0  0.23077753981E+02  0.11306320414E+02  0.27367677661E+01  0.25843867898E+02  0.00000000000E+00 0. -1.
</event>
<event>
 7    1  0.2976321E-013  0.7246158E+02  0.7816164E-02  0.1226708E+00
        -11   -1    0    0    0    0  0.00000000000E+00  0.00000000000E+00  0.45593999997E+02  0.45594000000E+02  0.51100000000E-03 0.  1.
         11   -1    0    0    0    0 -0.00000000000E+00 -0.00000000000E+00 -0.45593999997E+02  0.45594000000E+02  0.51100000000E-03 0. -1.
    9900012    2    1    2    0    0  0.13819320242E+02 -0.10652431916E+02  0.67993284389E+01  0.72461580564E+02  0.70000013378E+02 0.  0.
         12    1    1    2    0    0 -0.13819320242E+02  0.10652431916E+02 -0.67993284389E+01  0.18726419436E+02  0.00000000000E+00 0. -1.
         11    1    3    3    0    0  0.18155646342E+01  0.85884357609E+00 -0.38999384121E+01  0.43867307997E+01  0.51100000000E-03 0. -1.
        -11    1    3    3    0    0 -0.62241002103E+01  0.24806635166E+02  0.99195725689E+01  0.27431851776E+02  0.51100000000E-03 0.  1.
         12    1    3    3    0    0  0.18227855818E+02 -0.36317910658E+02  0.77969428214E+00  0.40642997988E+02  0.00000000000E+00 0. -1.
</event>
<event>
 7    1  0.2976321E-013  0.7246155E+02  0.7816164E-02  0.1226708E+00
        -11   -1    0    0    0    0  0.00000000000E+00  0.00000000000E+00  0.45593999997E+02  0.45594000000E+02  0.51100000000E-03 0.  1.
         11   -1    0    0    0    0 -0.00000000000E+00 -0.00000000000E+00 -0.45593999997E+02  0.45594000000E+02  0.51100000000E-03 0. -1.
    9900012    2    1    2    0    0  0.17754501013E+02 -0.31059794422E+01  0.50804040102E+01  0.72461550272E+02  0.69999973917E+02 0.  0.
         12    1    1    2    0    0 -0.17754501013E+02  0.31059794422E+01 -0.50804040102E+01  0.18726449728E+02  0.00000000000E+00 0. -1.
         11    1    3    3    0    0  0.11898628796E+01 -0.35050160341E+01  0.15112635064E+02  0.15559326782E+02  0.51100000000E-03 0. -1.
        -11    1    3    3    0    0  0.31333559601E+02 -0.42348997307E+01  0.85145935625E+01  0.32744841377E+02  0.51100000000E-03 0.  1.
         12    1    3    3    0    0 -0.14768921468E+02  0.46339363227E+01 -0.18546824617E+02  0.24157382113E+02  0.00000000000E+00 0. -1.
</event>
<event>
 7    1  0.2976321E-013  0.7246153E+02  0.7816164E-02  0.1226708E+00
        -11   -1    0    0    0    0  0.00000000000E+00  0.00000000000E+00  0.45593999997E+02  0.45594000000E+02  0.51100000000E-03 0. -1.
         11   -1    0    0    0    0 -0.00000000000E+00 -0.00000000000E+00 -0.45593999997E+02  0.45594000000E+02  0.51100000000E-03 0.  1.
    9900012    2    1    2    0    0  0.38734234765E+01 -0.12708405627E+00 -0.18321057491E+02  0.72461529234E+02  0.69999946511E+02 0.  0.
         12    1    1    2    0    0 -0.38734234765E+01  0.12708405627E+00  0.18321057491E+02  0.18726470766E+02  0.00000000000E+00 0. -1.
         11    1    3    3    0    0 -0.56462161492E+01  0.80478292453E+01 -0.10917756156E+01  0.98913743545E+01  0.51100000000E-03 0. -1.
        -11    1    3    3    0    0  0.75170067540E+01  0.12508978940E+02 -0.33262566735E+02  0.36323247250E+02  0.51100000000E-03 0.  1.
         12    1    3    3    0    0  0.20026328717E+01 -0.20683892242E+02  0.16033284860E+02  0.26246907629E+02  0.00000000000E+00 0. -1.
</event>
<event>
 7    1  0.2976321E-013  0.7246160E+02  0.7816164E-02  0.1226708E+00
        -11   -1    0    0    0    0  0.00000000000E+00  0.00000000000E+00  0.45593999997E+02  0.45594000000E+02  0.51100000000E-03 0.  1.
         11   -1    0    0    0    0 -0.00000000000E+00 -0.00000000000E+00 -0.45593999997E+02  0.45594000000E+02  0.51100000000E-03 0. -1.
    9900012    2    1    2    0    0 -0.16921869184E+02 -0.64522008668E+01  0.47641873177E+01  0.72461600626E+02  0.70000039513E+02 0.  0.
         12    1    1    2    0    0  0.16921869184E+02  0.64522008668E+01 -0.47641873177E+01  0.18726399374E+02  0.00000000000E+00 0. -1.
         11    1    3    3    0    0 -0.14742680427E+02  0.51699876889E+01  0.33983505173E+00  0.15626608301E+02  0.51100000000E-03 0. -1.
        -11    1    3    3    0    0 -0.87581396385E+01 -0.18895915410E+02 -0.21004980428E+02  0.29579888981E+02  0.51100000000E-03 0.  1.
        -12    1    3    3    0    0  0.65789508813E+01  0.72737268543E+01  0.25429332694E+02  0.27255103344E+02  0.00000000000E+00 0.  1.
</event>
<event>
 7    1  0.2976321E-013  0.7246157E+02  0.7816164E-02  0.1226708E+00
        -11   -1    0    0    0    0  0.00000000000E+00  0.00000000000E+00  0.45593999997E+02  0.45594000000E+02  0.51100000000E-03 0.  1.
         11   -1    0    0    0    0 -0.00000000000E+00 -0.00000000000E+00 -0.45593999997E+02  0.45594000000E+02  0.51100000000E-03 0. -1.
    9900012    2    1    2    0    0 -0.15255458848E+02 -0.53466082689E+01  0.94532556063E+01  0.72461567179E+02  0.69999995942E+02 0.  0.
         12    1    1    2    0    0  0.15255458848E+02  0.53466082689E+01 -0.94532556063E+01  0.18726432821E+02  0.00000000000E+00 0. -1.
         11    1    3    3    0    0  0.42622163427E+01  0.45900770162E+00  0.39105482612E+01  0.58025480770E+01  0.51100000000E-03 0. -1.
        -11    1    3    3    0    0  0.66715270224E+01 -0.27094883746E+02  0.14902899989E+02  0.31634449993E+02  0.51100000000E-03 0.  1.
         12    1    3    3    0    0 -0.26189202213E+02  0.21289267775E+02 -0.93601926443E+01  0.35024569109E+02  0.00000000000E+00 0. -1.
</event>
<event>
 7    1  0.2976321E-013  0.7246157E+02  0.7816164E-02  0.1226708E+00
        -11   -1    0    0    0    0  0.00000000000E+00  0.00000000000E+00  0.45593999997E+02  0.45594000000E+02  0.51100000000E-03 0. -1.
         11   -1    0    0    0    0 -0.00000000000E+00 -0.00000000000E+00 -0.45593999997E+02  0.45594000000E+02  0.51100000000E-03 0.  1.
    9900012    2    1    2    0    0  0.14955877690E+02 -0.11203937981E+02  0.12135055133E+01  0.72461572167E+02  0.70000002439E+02 0.  0.
         12    1    1    2    0    0 -0.14955877690E+02  0.11203937981E+02 -0.12135055133E+01  0.18726427833E+02  0.00000000000E+00 0. -1.
         11    1    3    3    0    0 -0.13389163011E+01 -0.60686543727E+01 -0.75937143759E+00  0.62608232684E+01  0.51100000000E-03 0. -1.
        -11    1    3    3    0    0  0.53351580627E+01 -0.15955154801E+02 -0.27906807700E+02  0.32585591794E+02  0.51100000000E-03 0.  1.
         12    1    3    3    0    0  0.10959635928E+02  0.10819871192E+02  0.29879684651E+02  0.33615157104E+02  0.00000000000E+00 0. -1.
</event>
<event>
 7    1  0.4042683E-013  0.7246158E+02  0.7816164E-02  0.1226708E+00
        -11   -1    0    0    0    0  0.00000000000E+00  0.00000000000E+00  0.45593999997E+02  0.45594000000E+02  0.51100000000E-03 0. -1.
         11   -1    0    0    0    0 -0.00000000000E+00 -0.00000000000E+00 -0.45593999997E+02  0.45594000000E+02  0.51100000000E-03 0.  1.
    9900012    2    1    2    0    0 -0.11404614109E+02 -0.10169326438E+02 -0.10825818853E+02  0.72461580774E+02  0.70000013652E+02 0.  0.
         12    1    1    2    0    0  0.11404614109E+02  0.10169326438E+02  0.10825818853E+02  0.18726419226E+02  0.00000000000E+00 0. -1.
         11    1    3    3    0    0  0.74874516395E+01 -0.55111540451E+01  0.14205263091E+02  0.16977168512E+02  0.51100000000E-03 0. -1.
        -11    1    3    3    0    0  0.62182208447E+01  0.14523497849E+02 -0.16304234254E+02  0.22703002337E+02  0.51100000000E-03 0.  1.
        -12    1    3    3    0    0 -0.25110286593E+02 -0.19181670242E+02 -0.87268476898E+01  0.32781409925E+02  0.00000000000E+00 0.  1.
</event>
<event>
 7    1  0.2976321E-013  0.7246149E+02  0.7816164E-02  0.1226708E+00
        -11   -1    0    0    0    0  0.00000000000E+00  0.00000000000E+00  0.45593999997E+02  0.45594000000E+02  0.51100000000E-03 0.  1.
         11   -1    0    0    0    0 -0.00000000000E+00 -0.00000000000E+00 -0.45593999997E+02  0.45594000000E+02  0.51100000000E-03 0. -1.
    9900012    2    1    2    0    0  0.17851154588E+02  0.35381388773E+01 -0.44158921358E+01  0.72461488039E+02  0.69999892848E+02 0.  0.
         12    1    1    2    0    0 -0.17851154588E+02 -0.35381388773E+01  0.44158921358E+01  0.18726511961E+02  0.00000000000E+00 0. -1.
         11    1    3    3    0    0  0.75070644530E+01 -0.17603340758E+02 -0.23508288619E+02  0.30312922271E+02  0.51100000000E-03 0. -1.
        -11    1    3    3    0    0  0.36166747645E+01 -0.27836014189E+01 -0.55257966907E+01  0.71668125788E+01  0.51100000000E-03 0.  1.
        -12    1    3    3    0    0  0.67274153711E+01  0.23925081055E+02  0.24618193174E+02  0.34981753189E+02  0.00000000000E+00 0.  1.
</event>
<event>
 7    1  0.2976321E-013  0.7246158E+02  0.7816164E-02  0.1226708E+00
        -11   -1    0    0    0    0  0.00000000000E+00  0.00000000000E+00  0.45593999997E+02  0.45594000000E+02  0.51100000000E-03 0.  1.
         11   -1    0    0    0    0 -0.00000000000E+00 -0.00000000000E+00 -0.45593999997E+02  0.45594000000E+02  0.51100000000E-03 0. -1.
    9900012    2    1    2    0    0  0.39077431519E+01  0.36514066330E+01  0.17946460041E+02  0.72461584034E+02  0.70000017898E+02 0.  0.
         12    1    1    2    0    0 -0.39077431519E+01 -0.36514066330E+01 -0.17946460041E+02  0.18726415966E+02  0.00000000000E+00 0. -1.
         11    1    3    3    0    0  0.94832195243E+00 -0.16036146578E+01 -0.18878004568E+02  0.18969711417E+02  0.51100000000E-03 0. -1.
        -11    1    3    3    0    0  0.81832870549E+01  0.15960734530E+01 -0.59510734901E+01  0.10243481510E+02  0.51100000000E-03 0.  1.
        -12    1    3    3    0    0 -0.52238658555E+01  0.36589478378E+01  0.42775538099E+02  0.43248391108E+02  0.00000000000E+00 0.  1.
</event>
<event>
 7    1  0.2976321E-013  0.7246147E+02  0.7816164E-02  0.1226708E+00
        -11   -1    0    0    0    0  0.00000000000E+00  0.00000000000E+00  0.45593999997E+02  0.45594000000E+02  0.51100000000E-03 0.  1.
         11   -1    0    0    0    0 -0.00000000000E+00 -0.00000000000E+00 -0.45593999997E+02  0.45594000000E+02  0.51100000000E-03 0. -1.
    9900012    2    1    2    0    0 -0.92310969133E+01  0.41491593763E+01  0.15756083131E+02  0.72461472575E+02  0.69999872703E+02 0.  0.
         12    1    1    2    0    0  0.92310969133E+01 -0.41491593763E+01 -0.15756083131E+02  0.18726527425E+02  0.00000000000E+00 0. -1.
         11    1    3    3    0    0  0.14413908328E+02 -0.11870289084E+02  0.21416827758E+02  0.28413817549E+02  0.51100000000E-03 0. -1.
        -11    1    3    3    0    0  0.55641061105E+01 -0.10350546006E+01 -0.83832061045E+01  0.10114779270E+02  0.51100000000E-03 0.  1.
        -12    1    3    3    0    0 -0.29209111351E+02  0.17054503061E+02  0.27224614775E+01  0.33932875756E+02  0.00000000000E+00 0.  1.
</event>
<event>
 7    1  0.2976321E-013  0.7246153E+02  0.7816164E-02  0.1226708E+00
        -11   -1    0    0    0    0  0.00000000000E+00  0.00000000000E+00  0.45593999997E+02  0.45594000000E+02  0.51100000000E-03 0.  1.
         11   -1    0    0    0    0 -0.00000000000E+00 -0.00000000000E+00 -0.45593999997E+02  0.45594000000E+02  0.51100000000E-03 0. -1.
    9900012    2    1    2    0    0  0.44074628037E+00 -0.11997648832E+02 -0.14371592473E+02  0.72461534637E+02  0.69999953549E+02 0.  0.
         12    1    1    2    0    0 -0.44074628037E+00  0.11997648832E+02  0.14371592473E+02  0.18726465363E+02  0.00000000000E+00 0. -1.
         11    1    3    3    0    0  0.88456088850E+01  0.11498626278E+02 -0.91057188383E+01  0.17128260818E+02  0.51100000000E-03 0. -1.
        -11    1    3    3    0    0  0.14702344348E+02 -0.67637768053E+01 -0.17900351289E+02  0.24131518447E+02  0.51100000000E-03 0.  1.
        -12    1    3    3    0    0 -0.23107206953E+02 -0.16732498305E+02  0.12634477654E+02  0.31201755372E+02  0.00000000000E+00 0.  1.
</event>
<event>
 7    1  0.2976321E-013  0.7246147E+02  0.7816164E-02  0.1226708E+00
        -11   -1    0    0    0    0  0.00000000000E+00  0.00000000000E+00  0.45593999997E+02  0.45594000000E+02  0.51100000000E-03 0.  1.
         11   -1    0    0    0    0 -0.00000000000E+00 -0.00000000000E+00 -0.45593999997E+02  0.45594000000E+02  0.51100000000E-03 0. -1.
    9900012    2    1    2    0    0  0.16410277744E+02  0.78427847815E+00  0.89872423180E+01  0.72461472483E+02  0.69999872583E+02 0.  0.
         12    1    1    2    0    0 -0.16410277744E+02 -0.78427847815E+00 -0.89872423180E+01  0.18726527517E+02  0.00000000000E+00 0. -1.
         11    1    3    3    0    0 -0.12672278951E+01  0.92399085329E+01 -0.10090941523E+02  0.13740774262E+02  0.51100000000E-03 0. -1.
        -11    1    3    3    0    0 -0.96306711824E+01 -0.94192045498E+00 -0.12820559578E+02  0.16062496373E+02  0.51100000000E-03 0.  1.
        -12    1    3    3    0    0  0.27308176821E+02 -0.75137095998E+01  0.31898743419E+02  0.42658201849E+02  0.00000000000E+00 0.  1.
</event>
<event>
 7    1  0.2976321E-013  0.7246163E+02  0.7816164E-02  0.1226708E+00
        -11   -1    0    0    0    0  0.00000000000E+00  0.00000000000E+00  0.45593999997E+02  0.45594000000E+02  0.51100000000E-03 0. -1.
         11   -1    0    0    0    0 -0.00000000000E+00 -0.00000000000E+00 -0.45593999997E+02  0.45594000000E+02  0.51100000000E-03 0.  1.
    9900012    2    1    2    0    0 -0.53369705962E+01  0.17917151970E+02  0.10812887479E+01  0.72461634223E+02  0.70000083279E+02 0.  0.
         12    1    1    2    0    0  0.53369705962E+01 -0.17917151970E+02 -0.10812887479E+01  0.18726365777E+02  0.00000000000E+00 0. -1.
         11    1    3    3    0    0  0.41971695472E+01 -0.16151973686E+02  0.10610437940E+02  0.19775840809E+02  0.51100000000E-03 0. -1.
        -11    1    3    3    0    0 -0.18903840122E+02  0.86841163831E+01  0.57867102495E+01  0.21592940153E+02  0.51100000000E-03 0.  1.
        -12    1    3    3    0    0  0.93696999781E+01  0.25385009273E+02 -0.15315859442E+02  0.31092853261E+02  0.00000000000E+00 0.  1.
</event>
<event>
 7    1  0.2976321E-013  0.7246163E+02  0.7816164E-02  0.1226708E+00
        -11   -1    0    0    0    0  0.00000000000E+00  0.00000000000E+00  0.45593999997E+02  0.45594000000E+02  0.51100000000E-03 0. -1.
         11   -1    0    0    0    0 -0.00000000000E+00 -0.00000000000E+00 -0.45593999997E+02  0.45594000000E+02  0.51100000000E-03 0.  1.
    9900012    2    1    2    0    0  0.15067769912E+02  0.41305232709E+01 -0.10323656722E+02  0.72461633542E+02  0.70000082392E+02 0.  0.
         12    1    1    2    0    0 -0.15067769912E+02 -0.41305232709E+01  0.10323656722E+02  0.18726366458E+02  0.00000000000E+00 0. -1.
         11    1    3    3    0    0 -0.49049551897E+01 -0.14784236467E+02 -0.36496907807E+01  0.15998514818E+02  0.51100000000E-03 0. -1.
        -11    1    3    3    0    0  0.53560118776E+01  0.14657312704E+01 -0.26010376498E+02  0.26596520773E+02  0.51100000000E-03 0.  1.
         12    1    3    3    0    0  0.14616713224E+02  0.17449028467E+02  0.19336410557E+02  0.29866597951E+02  0.00000000000E+00 0. -1.
</event>
<event>
 7    1  0.2976321E-013  0.7246154E+02  0.7816164E-02  0.1226708E+00
        -11   -1    0    0    0    0  0.00000000000E+00  0.00000000000E+00  0.45593999997E+02  0.45594000000E+02  0.51100000000E-03 0.  1.
         11   -1    0    0    0    0 -0.00000000000E+00 -0.00000000000E+00 -0.45593999997E+02  0.45594000000E+02  0.51100000000E-03 0. -1.
    9900012    2    1    2    0    0 -0.12834927951E+02  0.33481693359E+01  0.13218720455E+02  0.72461543211E+02  0.69999964719E+02 0.  0.
         12    1    1    2    0    0  0.12834927951E+02 -0.33481693359E+01 -0.13218720455E+02  0.18726456789E+02  0.00000000000E+00 0. -1.
         11    1    3    3    0    0  0.14315968836E+02  0.12905496822E+02  0.11771727841E+02  0.22584782234E+02  0.51100000000E-03 0. -1.
        -11    1    3    3    0    0 -0.15929848763E+01  0.14235600288E+02  0.39779321355E+01  0.14866534927E+02  0.51100000000E-03 0.  1.
        -12    1    3    3    0    0 -0.25557911910E+02 -0.23792927774E+02 -0.25309395217E+01  0.35010226051E+02  0.00000000000E+00 0.  1.
</event>
<event>
 7    1  0.2976321E-013  0.7246158E+02  0.7816164E-02  0.1226708E+00
        -11   -1    0    0    0    0  0.00000000000E+00  0.00000000000E+00  0.45593999997E+02  0.45594000000E+02  0.51100000000E-03 0. -1.
         11   -1    0    0    0    0 -0.00000000000E+00 -0.00000000000E+00 -0.45593999997E+02  0.45594000000E+02  0.51100000000E-03 0.  1.
    9900012    2    1    2    0    0  0.33766938016E+01  0.10834800463E+02 -0.14895761186E+02  0.72461583807E+02  0.70000017603E+02 0.  0.
         12    1    1    2    0    0 -0.33766938016E+01 -0.10834800463E+02  0.14895761186E+02  0.18726416193E+02  0.00000000000E+00 0. -1.
         11    1    3    3    0    0  0.17362065911E+01 -0.18519239192E+01 -0.18324742621E+01  0.31308142251E+01  0.51100000000E-03 0.  1.
        -11    1    3    3    0    0  0.69907833939E+01  0.39577564616E+02 -0.11787515349E+02  0.41883173134E+02  0.51100000000E-03 0. -1.
         12    1    3    3    0    0 -0.53502961834E+01 -0.26890840233E+02 -0.12757715745E+01  0.27447596449E+02  0.00000000000E+00 0. -1.
</event>
<event>
 7    1  0.2976321E-013  0.7246155E+02  0.7816164E-02  0.1226708E+00
        -11   -1    0    0    0    0  0.00000000000E+00  0.00000000000E+00  0.45593999997E+02  0.45594000000E+02  0.51100000000E-03 0.  1.
         11   -1    0    0    0    0 -0.00000000000E+00 -0.00000000000E+00 -0.45593999997E+02  0.45594000000E+02  0.51100000000E-03 0. -1.
    9900012    2    1    2    0    0  0.18559299446E+02  0.17799566320E+01 -0.17504519682E+01  0.72461550160E+02  0.69999973771E+02 0.  0.
         12    1    1    2    0    0 -0.18559299446E+02 -0.17799566320E+01  0.17504519682E+01  0.18726449840E+02  0.00000000000E+00 0. -1.
         11    1    3    3    0    0 -0.52177238669E+01  0.28037437017E+02 -0.97230540363E+00  0.28535379704E+02  0.51100000000E-03 0. -1.
        -11    1    3    3    0    0 -0.47474108028E+01 -0.49292187688E+01 -0.43842618035E+01  0.81275370699E+01  0.51100000000E-03 0.  1.
        -12    1    3    3    0    0  0.28524434115E+02 -0.21328261616E+02  0.36061152389E+01  0.35798633386E+02  0.00000000000E+00 0.  1.
</event>
<event>
 7    1  0.2976321E-013  0.7246155E+02  0.7816164E-02  0.1226708E+00
        -11   -1    0    0    0    0  0.00000000000E+00  0.00000000000E+00  0.45593999997E+02  0.45594000000E+02  0.51100000000E-03 0.  1.
         11   -1    0    0    0    0 -0.00000000000E+00 -0.00000000000E+00 -0.45593999997E+02  0.45594000000E+02  0.51100000000E-03 0. -1.
    9900012    2    1    2    0    0 -0.60331969558E+00  0.18373331707E+02  0.35688390761E+01  0.72461550123E+02  0.69999973722E+02 0.  0.
         12    1    1    2    0    0  0.60331969558E+00 -0.18373331707E+02 -0.35688390761E+01  0.18726449877E+02  0.00000000000E+00 0. -1.
         11    1    3    3    0    0 -0.27289508344E+02  0.19083526757E+02 -0.81739839573E+01  0.34288660999E+02  0.51100000000E-03 0. -1.
        -11    1    3    3    0    0  0.12978091403E+02 -0.11539522126E+02  0.11258679372E+02  0.20696600900E+02  0.51100000000E-03 0.  1.
        -12    1    3    3    0    0  0.13708097245E+02  0.10829327075E+02  0.48414366128E+00  0.17476288223E+02  0.00000000000E+00 0.  1.
</event>
<event>
 7    1  0.2976321E-013  0.7246162E+02  0.7816164E-02  0.1226708E+00
        -11   -1    0    0    0    0  0.00000000000E+00  0.00000000000E+00  0.45593999997E+02  0.45594000000E+02  0.51100000000E-03 0. -1.
         11   -1    0    0    0    0 -0.00000000000E+00 -0.00000000000E+00 -0.45593999997E+02  0.45594000000E+02  0.51100000000E-03 0.  1.
    9900012    2    1    2    0    0 -0.34387786955E+01  0.34534678253E+01 -0.18081087374E+02  0.72461618620E+02  0.70000062954E+02 0.  0.
         12    1    1    2    0    0  0.34387786955E+01 -0.34534678253E+01  0.18081087374E+02  0.18726381380E+02  0.00000000000E+00 0. -1.
         11    1    3    3    0    0  0.48063555650E+01  0.10333078068E+02 -0.67320169009E+01  0.13236072227E+02  0.51100000000E-03 0. -1.
        -11    1    3    3    0    0  0.70571534982E+01  0.30798054099E+01 -0.31269645702E+02  0.32203716547E+02  0.51100000000E-03 0.  1.
         12    1    3    3    0    0 -0.15302287759E+02 -0.99594156525E+01  0.19920575229E+02  0.27021829846E+02  0.00000000000E+00 0. -1.
</event>
<event>
 7    1  0.2976321E-013  0.7246150E+02  0.7816164E-02  0.1226708E+00
        -11   -1    0    0    0    0  0.00000000000E+00  0.00000000000E+00  0.45593999997E+02  0.45594000000E+02  0.51100000000E-03 0. -1.
         11   -1    0    0    0    0 -0.00000000000E+00 -0.00000000000E+00 -0.45593999997E+02  0.45594000000E+02  0.51100000000E-03 0.  1.
    9900012    2    1    2    0    0  0.11256564761E+02  0.14034350149E+02  0.51969682870E+01  0.72461502364E+02  0.69999911508E+02 0.  0.
         12    1    1    2    0    0 -0.11256564761E+02 -0.14034350149E+02 -0.51969682870E+01  0.18726497636E+02  0.00000000000E+00 0. -1.
         11    1    3    3    0    0  0.46633205875E+01 -0.12629382607E+01  0.96693489478E+01  0.10809157289E+02  0.51100000000E-03 0. -1.
        -11    1    3    3    0    0  0.27575322164E+02  0.12157628690E+02 -0.19283699173E+02  0.35778029317E+02  0.51100000000E-03 0.  1.
         12    1    3    3    0    0 -0.20982077990E+02  0.31396597189E+01  0.14811318512E+02  0.25874315758E+02  0.00000000000E+00 0. -1.
</event>
<event>
 7    1  0.2976321E-013  0.7246157E+02  0.7816164E-02  0.1226708E+00
        -11   -1    0    0    0    0  0.00000000000E+00  0.00000000000E+00  0.45593999997E+02  0.45594000000E+02  0.51100000000E-03 0.  1.
         11   -1    0    0    0    0 -0.00000000000E+00 -0.00000000000E+00 -0.45593999997E+02  0.45594000000E+02  0.51100000000E-03 0. -1.
    9900012    2    1    2    0    0 -0.31729008895E+01 -0.16373965990E+02  0.85149944133E+01  0.72461569690E+02  0.69999999212E+02 0.  0.
         12    1    1    2    0    0  0.31729008895E+01  0.16373965990E+02 -0.85149944133E+01  0.18726430310E+02  0.00000000000E+00 0. -1.
         11    1    3    3    0    0  0.18060299383E+01  0.42266777192E+01 -0.95554640987E+01  0.10603463730E+02  0.51100000000E-03 0. -1.
        -11    1    3    3    0    0  0.10447275088E+02  0.71927246954E+01  0.26146669262E+02  0.29060783868E+02  0.51100000000E-03 0.  1.
         12    1    3    3    0    0 -0.15426205916E+02 -0.27793368405E+02 -0.80762107496E+01  0.32797322091E+02  0.00000000000E+00 0. -1.
</event>
<event>
 7    1  0.2976321E-013  0.7246159E+02  0.7816164E-02  0.1226708E+00
        -11   -1    0    0    0    0  0.00000000000E+00  0.00000000000E+00  0.45593999997E+02  0.45594000000E+02  0.51100000000E-03 0. -1.
         11   -1    0    0    0    0 -0.00000000000E+00 -0.00000000000E+00 -0.45593999997E+02  0.45594000000E+02  0.51100000000E-03 0.  1.
    9900012    2    1    2    0    0 -0.15892514596E+02 -0.92033172667E+01 -0.36613294737E+01  0.72461590777E+02  0.70000026682E+02 0.  0.
         12    1    1    2    0    0  0.15892514596E+02  0.92033172667E+01  0.36613294737E+01  0.18726409223E+02  0.00000000000E+00 0. -1.
         11    1    3    3    0    0  0.83609209555E+01 -0.57202096259E+01  0.91402507527E+00  0.10171589821E+02  0.51100000000E-03 0. -1.
        -11    1    3    3    0    0  0.18527380543E+02  0.32442218783E+01 -0.17813479451E+01  0.18893438177E+02  0.51100000000E-03 0.  1.
        -12    1    3    3    0    0 -0.42780816094E+02 -0.67273295190E+01 -0.27940066039E+01  0.43396562779E+02  0.00000000000E+00 0.  1.
</event>
<event>
 7    1  0.2976321E-013  0.7246156E+02  0.7816164E-02  0.1226708E+00
        -11   -1    0    0    0    0  0.00000000000E+00  0.00000000000E+00  0.45593999997E+02  0.45594000000E+02  0.51100000000E-03 0.  1.
         11   -1    0    0    0    0 -0.00000000000E+00 -0.00000000000E+00 -0.45593999997E+02  0.45594000000E+02  0.51100000000E-03 0. -1.
    9900012    2    1    2    0    0  0.14014091960E+02 -0.97043730782E+01  0.77530655737E+01  0.72461557303E+02  0.69999983076E+02 0.  0.
         12    1    1    2    0    0 -0.14014091960E+02  0.97043730782E+01 -0.77530655737E+01  0.18726442697E+02  0.00000000000E+00 0. -1.
         11    1    3    3    0    0  0.92624180197E+01 -0.17982856338E+01  0.15026963503E+02  0.17743614378E+02  0.51100000000E-03 0. -1.
        -11    1    3    3    0    0  0.13812494761E+02 -0.15610952431E+02  0.17513198675E+02  0.27224969705E+02  0.51100000000E-03 0.  1.
         12    1    3    3    0    0 -0.90608208211E+01  0.77048649863E+01 -0.24787096605E+02  0.27492973220E+02  0.00000000000E+00 0. -1.
</event>
<event>
 7    1  0.2976321E-013  0.7246152E+02  0.7816164E-02  0.1226708E+00
        -11   -1    0    0    0    0  0.00000000000E+00  0.00000000000E+00  0.45593999997E+02  0.45594000000E+02  0.51100000000E-03 0. -1.
         11   -1    0    0    0    0 -0.00000000000E+00 -0.00000000000E+00 -0.45593999997E+02  0.45594000000E+02  0.51100000000E-03 0.  1.
    9900012    2    1    2    0    0  0.95101434296E+01 -0.98534931046E+01  0.12772902837E+02  0.72461516045E+02  0.69999929331E+02 0.  0.
         12    1    1    2    0    0 -0.95101434296E+01  0.98534931046E+01 -0.12772902837E+02  0.18726483955E+02  0.00000000000E+00 0. -1.
         11    1    3    3    0    0 -0.13568871301E+02  0.97370752221E+01  0.15175059176E+02  0.22565622604E+02  0.51100000000E-03 0. -1.
        -11    1    3    3    0    0  0.24843703487E+02 -0.85663438709E+01  0.14214295814E+02  0.29877048984E+02  0.51100000000E-03 0.  1.
         12    1    3    3    0    0 -0.17646887565E+01 -0.11024224456E+02 -0.16616452153E+02  0.20018844457E+02  0.00000000000E+00 0. -1.
</event>
<event>
 7    1  0.2976321E-013  0.7246156E+02  0.7816164E-02  0.1226708E+00
        -11   -1    0    0    0    0  0.00000000000E+00  0.00000000000E+00  0.45593999997E+02  0.45594000000E+02  0.51100000000E-03 0.  1.
         11   -1    0    0    0    0 -0.00000000000E+00 -0.00000000000E+00 -0.45593999997E+02  0.45594000000E+02  0.51100000000E-03 0. -1.
    9900012    2    1    2    0    0  0.95191882458E+01  0.23873297444E+00  0.16124755896E+02  0.72461556370E+02  0.69999981862E+02 0.  0.
         12    1    1    2    0    0 -0.95191882458E+01 -0.23873297444E+00 -0.16124755896E+02  0.18726443630E+02  0.00000000000E+00 0. -1.
         11    1    3    3    0    0  0.30691866026E+00 -0.35475663807E+01 -0.86244697233E+01  0.93306433090E+01  0.51100000000E-03 0. -1.
        -11    1    3    3    0    0  0.35496413625E+01 -0.14590076645E+02 -0.13581929781E+02  0.20246953034E+02  0.51100000000E-03 0.  1.
        -12    1    3    3    0    0  0.56626282231E+01  0.18376376000E+02  0.38331155401E+02  0.42883960028E+02  0.00000000000E+00 0.  1.
</event>
<event>
 7    1  0.2976321E-013  0.7246157E+02  0.7816164E-02  0.1226708E+00
        -11   -1    0    0    0    0  0.00000000000E+00  0.00000000000E+00  0.45593999997E+02  0.45594000000E+02  0.51100000000E-03 0.  1.
         11   -1    0    0    0    0 -0.00000000000E+00 -0.00000000000E+00 -0.45593999997E+02  0.45594000000E+02  0.51100000000E-03 0. -1.
    9900012    2    1    2    0    0  0.63422946368E+01  0.29496015101E+01  0.17371072369E+02  0.72461574672E+02  0.70000005703E+02 0.  0.
         12    1    1    2    0    0 -0.63422946368E+01 -0.29496015101E+01 -0.17371072369E+02  0.18726425328E+02  0.00000000000E+00 0. -1.
         11    1    3    3    0    0 -0.71066698758E+01 -0.23741765684E+02  0.77610589783E+01  0.25969409528E+02  0.51100000000E-03 0. -1.
        -11    1    3    3    0    0 -0.10923281460E+02  0.36434984572E+01  0.52867648679E+01  0.12670558073E+02  0.51100000000E-03 0.  1.
        -12    1    3    3    0    0  0.24372245973E+02  0.23047868737E+02  0.43232485224E+01  0.33821607071E+02  0.00000000000E+00 0.  1.
</event>
<event>
 7    1  0.2976321E-013  0.7246159E+02  0.7816164E-02  0.1226708E+00
        -11   -1    0    0    0    0  0.00000000000E+00  0.00000000000E+00  0.45593999997E+02  0.45594000000E+02  0.51100000000E-03 0.  1.
         11   -1    0    0    0    0 -0.00000000000E+00 -0.00000000000E+00 -0.45593999997E+02  0.45594000000E+02  0.51100000000E-03 0. -1.
    9900012    2    1    2    0    0  0.71950967510E+01 -0.87770734788E+01  0.14895367125E+02  0.72461590897E+02  0.70000026839E+02 0.  0.
         12    1    1    2    0    0 -0.71950967510E+01  0.87770734788E+01 -0.14895367125E+02  0.18726409103E+02  0.00000000000E+00 0. -1.
         11    1    3    3    0    0  0.41622128706E+01 -0.30913602992E+01  0.20736713513E+00  0.51887884780E+01  0.51100000000E-03 0. -1.
        -11    1    3    3    0    0 -0.18227362527E+00 -0.28472260726E+02  0.28620746629E+02  0.40371400675E+02  0.51100000000E-03 0.  1.
         12    1    3    3    0    0  0.32151575057E+01  0.22786547547E+02 -0.13932746639E+02  0.26901401744E+02  0.00000000000E+00 0. -1.
</event>
<event>
 7    1  0.2976321E-013  0.7246157E+02  0.7816164E-02  0.1226708E+00
        -11   -1    0    0    0    0  0.00000000000E+00  0.00000000000E+00  0.45593999997E+02  0.45594000000E+02  0.51100000000E-03 0.  1.
         11   -1    0    0    0    0 -0.00000000000E+00 -0.00000000000E+00 -0.45593999997E+02  0.45594000000E+02  0.51100000000E-03 0. -1.
    9900012    2    1    2    0    0 -0.11863870876E+02  0.93156639637E+01  0.11097128199E+02  0.72461567304E+02  0.69999996104E+02 0.  0.
         12    1    1    2    0    0  0.11863870876E+02 -0.93156639637E+01 -0.11097128199E+02  0.18726432696E+02  0.00000000000E+00 0. -1.
         11    1    3    3    0    0  0.90023301536E+01  0.21258255914E+02  0.13361511379E+02  0.26673683271E+02  0.51100000000E-03 0. -1.
        -11    1    3    3    0    0  0.16466323238E+01  0.35109938047E+01  0.13644675377E+02  0.14185049944E+02  0.51100000000E-03 0.  1.
         12    1    3    3    0    0 -0.22512833354E+02 -0.15453585755E+02 -0.15909058557E+02  0.31602834089E+02  0.00000000000E+00 0. -1.
</event>
<event>
 7    1  0.2976321E-013  0.7246157E+02  0.7816164E-02  0.1226708E+00
        -11   -1    0    0    0    0  0.00000000000E+00  0.00000000000E+00  0.45593999997E+02  0.45594000000E+02  0.51100000000E-03 0.  1.
         11   -1    0    0    0    0 -0.00000000000E+00 -0.00000000000E+00 -0.45593999997E+02  0.45594000000E+02  0.51100000000E-03 0. -1.
    9900012    2    1    2    0    0  0.74116936482E+00  0.17275478121E+02 -0.71894054591E+01  0.72461574094E+02  0.70000004950E+02 0.  0.
         12    1    1    2    0    0 -0.74116936482E+00 -0.17275478121E+02  0.71894054591E+01  0.18726425906E+02  0.00000000000E+00 0. -1.
         11    1    3    3    0    0  0.24761062408E+02  0.13661804209E+02 -0.37432426654E+01  0.28526601125E+02  0.51100000000E-03 0. -1.
        -11    1    3    3    0    0 -0.10229011550E+02  0.12585252904E+02 -0.16347566151E+02  0.23027465932E+02  0.51100000000E-03 0.  1.
        -12    1    3    3    0    0 -0.13790881493E+02 -0.89715789909E+01  0.12901403357E+02  0.20907507038E+02  0.00000000000E+00 0.  1.
</event>
<event>
 7    1  0.2976321E-013  0.7246155E+02  0.7816164E-02  0.1226708E+00
        -11   -1    0    0    0    0  0.00000000000E+00  0.00000000000E+00  0.45593999997E+02  0.45594000000E+02  0.51100000000E-03 0. -1.
         11   -1    0    0    0    0 -0.00000000000E+00 -0.00000000000E+00 -0.45593999997E+02  0.45594000000E+02  0.51100000000E-03 0.  1.
    9900012    2    1    2    0    0  0.15231224454E+02  0.36581190192E+01 -0.10261968910E+02  0.72461547078E+02  0.69999969757E+02 0.  0.
         12    1    1    2    0    0 -0.15231224454E+02 -0.36581190192E+01  0.10261968910E+02  0.18726452922E+02  0.00000000000E+00 0. -1.
         11    1    3    3    0    0  0.45462321477E+01 -0.28956747843E+02 -0.11468596590E+02  0.31475231221E+02  0.51100000000E-03 0. -1.
        -11    1    3    3    0    0  0.26021339902E+01  0.76981859431E+01 -0.96630867295E+01  0.12625704476E+02  0.51100000000E-03 0.  1.
         12    1    3    3    0    0  0.80828583158E+01  0.24916680919E+02  0.10869714409E+02  0.28360611382E+02  0.00000000000E+00 0. -1.
</event>
<event>
 7    1  0.2976321E-013  0.7246163E+02  0.7816164E-02  0.1226708E+00
        -11   -1    0    0    0    0  0.00000000000E+00  0.00000000000E+00  0.45593999997E+02  0.45594000000E+02  0.51100000000E-03 0.  1.
         11   -1    0    0    0    0 -0.00000000000E+00 -0.00000000000E+00 -0.45593999997E+02  0.45594000000E+02  0.51100000000E-03 0. -1.
    9900012    2    1    2    0    0 -0.16709217411E+02  0.83756146446E+01  0.11524223185E+01  0.72461629707E+02  0.70000077396E+02 0.  0.
         12    1    1    2    0    0  0.16709217411E+02 -0.83756146446E+01 -0.11524223185E+01  0.18726370293E+02  0.00000000000E+00 0. -1.
         11    1    3    3    0    0 -0.11969787482E+02 -0.17259666833E+02 -0.47965213518E+00  0.21009568724E+02  0.51100000000E-03 0. -1.
        -11    1    3    3    0    0  0.13223943790E+02 -0.56990251055E+01  0.48409030727E+01  0.15191639784E+02  0.51100000000E-03 0.  1.
         12    1    3    3    0    0 -0.17963373719E+02  0.31334306583E+02 -0.32088286191E+01  0.36260421199E+02  0.00000000000E+00 0. -1.
</event>
<event>
 7    1  0.2976321E-013  0.7246156E+02  0.7816164E-02  0.1226708E+00
        -11   -1    0    0    0    0  0.00000000000E+00  0.00000000000E+00  0.45593999997E+02  0.45594000000E+02  0.51100000000E-03 0. -1.
         11   -1    0    0    0    0 -0.00000000000E+00 -0.00000000000E+00 -0.45593999997E+02  0.45594000000E+02  0.51100000000E-03 0.  1.
    9900012    2    1    2    0    0 -0.72264656771E+01  0.16809239853E+02 -0.39884054139E+01  0.72461555373E+02  0.69999980563E+02 0.  0.
         12    1    1    2    0    0  0.72264656771E+01 -0.16809239853E+02  0.39884054139E+01  0.18726444627E+02  0.00000000000E+00 0. -1.
         11    1    3    3    0    0 -0.16426240809E+02 -0.97662957171E+01 -0.38039671642E+01  0.19485176047E+02  0.51100000000E-03 0. -1.
        -11    1    3    3    0    0  0.35176118479E+01 -0.51612951104E+01  0.15800200187E+02  0.16989964289E+02  0.51100000000E-03 0.  1.
         12    1    3    3    0    0  0.56821632840E+01  0.31736830680E+02 -0.15984638437E+02  0.35986415037E+02  0.00000000000E+00 0. -1.
</event>
<event>
 7    1  0.2976321E-013  0.7246149E+02  0.7816164E-02  0.1226708E+00
        -11   -1    0    0    0    0  0.00000000000E+00  0.00000000000E+00  0.45593999997E+02  0.45594000000E+02  0.51100000000E-03 0.  1.
         11   -1    0    0    0    0 -0.00000000000E+00 -0.00000000000E+00 -0.45593999997E+02  0.45594000000E+02  0.51100000000E-03 0. -1.
    9900012    2    1    2    0    0 -0.17094252136E+02 -0.62111241790E+01  0.44598745403E+01  0.72461494705E+02  0.69999901531E+02 0.  0.
         12    1    1    2    0    0  0.17094252136E+02  0.62111241790E+01 -0.44598745403E+01  0.18726505295E+02  0.00000000000E+00 0. -1.
         11    1    3    3    0    0 -0.52372350524E+01 -0.89584160408E+01 -0.19002339720E+02  0.21651114614E+02  0.51100000000E-03 0. -1.
        -11    1    3    3    0    0 -0.13276187604E+02 -0.15116193531E+02 -0.13954761722E+01  0.20166899072E+02  0.51100000000E-03 0.  1.
        -12    1    3    3    0    0  0.14191705212E+01  0.17863485393E+02  0.24857690432E+02  0.30643481019E+02  0.00000000000E+00 0.  1.
</event>
<event>
 7    1  0.2976321E-013  0.7246155E+02  0.7816164E-02  0.1226708E+00
        -11   -1    0    0    0    0  0.00000000000E+00  0.00000000000E+00  0.45593999997E+02  0.45594000000E+02  0.51100000000E-03 0. -1.
         11   -1    0    0    0    0 -0.00000000000E+00 -0.00000000000E+00 -0.45593999997E+02  0.45594000000E+02  0.51100000000E-03 0.  1.
    9900012    2    1    2    0    0 -0.68304925239E+01  0.15747842196E+02  0.74853100825E+01  0.72461547347E+02  0.69999970107E+02 0.  0.
         12    1    1    2    0    0  0.68304925239E+01 -0.15747842196E+02 -0.74853100825E+01  0.18726452653E+02  0.00000000000E+00 0. -1.
         11    1    3    3    0    0  0.11231801795E+02  0.50264090573E+01  0.14577478088E+02  0.19076714267E+02  0.51100000000E-03 0. -1.
        -11    1    3    3    0    0 -0.59569689739E+01  0.11219235842E+02  0.20008000362E+02  0.23699721749E+02  0.51100000000E-03 0.  1.
        -12    1    3    3    0    0 -0.12105325345E+02 -0.49780270373E+00 -0.27100168367E+02  0.29685111331E+02  0.00000000000E+00 0.  1.
</event>
<event>
 7    1  0.2976321E-013  0.7246161E+02  0.7816164E-02  0.1226708E+00
        -11   -1    0    0    0    0  0.00000000000E+00  0.00000000000E+00  0.45593999997E+02  0.45594000000E+02  0.51100000000E-03 0.  1.
         11   -1    0    0    0    0 -0.00000000000E+00 -0.00000000000E+00 -0.45593999997E+02  0.45594000000E+02  0.51100000000E-03 0. -1.
    9900012    2    1    2    0    0  0.73249935936E+01 -0.17001856594E+02 -0.28211548803E+01  0.72461612904E+02  0.70000055508E+02 0.  0.
         12    1    1    2    0    0 -0.73249935936E+01  0.17001856594E+02  0.28211548803E+01  0.18726387096E+02  0.00000000000E+00 0. -1.
         11    1    3    3    0    0 -0.20475014831E+02  0.73750128351E+01 -0.10078271678E+02  0.23983090020E+02  0.51100000000E-03 0. -1.
        -11    1    3    3    0    0 -0.22053642450E+01 -0.85337307213E+01 -0.74080085170E+01  0.11513764889E+02  0.51100000000E-03 0.  1.
        -12    1    3    3    0    0  0.30005372669E+02 -0.15843138708E+02  0.14665125315E+02  0.36964757995E+02  0.00000000000E+00 0.  1.
</event>
<event>
 7    1  0.2976321E-013  0.7246157E+02  0.7816164E-02  0.1226708E+00
        -11   -1    0    0    0    0  0.00000000000E+00  0.00000000000E+00  0.45593999997E+02  0.45594000000E+02  0.51100000000E-03 0.  1.
         11   -1    0    0    0    0 -0.00000000000E+00 -0.00000000000E+00 -0.45593999997E+02  0.45594000000E+02  0.51100000000E-03 0. -1.
    9900012    2    1    2    0    0 -0.10567736762E+02  0.12677766758E+02 -0.88474004456E+01  0.72461566146E+02  0.69999994596E+02 0.  0.
         12    1    1    2    0    0  0.10567736762E+02 -0.12677766758E+02  0.88474004456E+01  0.18726433854E+02  0.00000000000E+00 0. -1.
         11    1    3    3    0    0  0.30473421049E+01  0.67838562959E+01 -0.70197371635E+00  0.74699241969E+01  0.51100000000E-03 0. -1.
        -11    1    3    3    0    0  0.22581292255E+01 -0.35614062033E+00 -0.33966919729E+02  0.34043760367E+02  0.51100000000E-03 0.  1.
        -12    1    3    3    0    0 -0.15873208092E+02  0.62500510824E+01  0.25821493000E+02  0.30947881582E+02  0.00000000000E+00 0.  1.
</event>
<event>
 7    1  0.2976321E-013  0.7246156E+02  0.7816164E-02  0.1226708E+00
        -11   -1    0    0    0    0  0.00000000000E+00  0.00000000000E+00  0.45593999997E+02  0.45594000000E+02  0.51100000000E-03 0. -1.
         11   -1    0    0    0    0 -0.00000000000E+00 -0.00000000000E+00 -0.45593999997E+02  0.45594000000E+02  0.51100000000E-03 0.  1.
    9900012    2    1    2    0    0  0.47042605813E+01 -0.12050440952E+02 -0.13540171635E+02  0.72461563002E+02  0.69999990500E+02 0.  0.
         12    1    1    2    0    0 -0.47042605813E+01  0.12050440952E+02  0.13540171635E+02  0.18726436998E+02  0.00000000000E+00 0. -1.
         11    1    3    3    0    0 -0.17943555897E+02 -0.14414636961E+00 -0.12967908077E+02  0.22139526114E+02  0.51100000000E-03 0.  1.
        -11    1    3    3    0    0  0.59932893480E+00 -0.20285385399E+02  0.12017398263E+02  0.23585459869E+02  0.51100000000E-03 0. -1.
        -12    1    3    3    0    0  0.22048487544E+02  0.83790908171E+01 -0.12589661821E+02  0.26736577018E+02  0.00000000000E+00 0.  1.
</event>
<event>
 7    1  0.2976321E-013  0.7246159E+02  0.7816164E-02  0.1226708E+00
        -11   -1    0    0    0    0  0.00000000000E+00  0.00000000000E+00  0.45593999997E+02  0.45594000000E+02  0.51100000000E-03 0. -1.
         11   -1    0    0    0    0 -0.00000000000E+00 -0.00000000000E+00 -0.45593999997E+02  0.45594000000E+02  0.51100000000E-03 0.  1.
    9900012    2    1    2    0    0  0.81216301409E+01  0.66237309636E-01 -0.16873442616E+02  0.72461592730E+02  0.70000029227E+02 0.  0.
         12    1    1    2    0    0 -0.81216301409E+01 -0.66237309636E-01  0.16873442616E+02  0.18726407270E+02  0.00000000000E+00 0. -1.
         11    1    3    3    0    0  0.29801287915E+01  0.68796867508E+01 -0.21994051661E+01  0.78133629603E+01  0.51100000000E-03 0. -1.
        -11    1    3    3    0    0  0.79038822922E+00  0.21071850466E+02 -0.26655374169E+02  0.33987594325E+02  0.51100000000E-03 0.  1.
         12    1    3    3    0    0  0.43511131203E+01 -0.27885299907E+02  0.11981336720E+02  0.30660635445E+02  0.00000000000E+00 0. -1.
</event>
<event>
 7    1  0.4447933E-013  0.7246156E+02  0.7816164E-02  0.1226708E+00
        -11   -1    0    0    0    0  0.00000000000E+00  0.00000000000E+00  0.45593999997E+02  0.45594000000E+02  0.51100000000E-03 0. -1.
         11   -1    0    0    0    0 -0.00000000000E+00 -0.00000000000E+00 -0.45593999997E+02  0.45594000000E+02  0.51100000000E-03 0.  1.
    9900012    2    1    2    0    0 -0.13775254817E+02 -0.15390137270E+01 -0.12591791405E+02  0.72461563624E+02  0.69999991311E+02 0.  0.
         12    1    1    2    0    0  0.13775254817E+02  0.15390137270E+01  0.12591791405E+02  0.18726436376E+02  0.00000000000E+00 0. -1.
         11    1    3    3    0    0  0.37513475528E+01  0.20639708442E+02  0.14102219972E+02  0.25277317528E+02  0.51100000000E-03 0. -1.
        -11    1    3    3    0    0 -0.11070651949E+02  0.18465525728E+01 -0.76309637234E+00  0.11249506981E+02  0.51100000000E-03 0.  1.
        -12    1    3    3    0    0 -0.64559504211E+01 -0.24025274742E+02 -0.25930915005E+02  0.35934739115E+02  0.00000000000E+00 0.  1.
</event>
<event>
 7    1  0.2976321E-013  0.7246160E+02  0.7816164E-02  0.1226708E+00
        -11   -1    0    0    0    0  0.00000000000E+00  0.00000000000E+00  0.45593999997E+02  0.45594000000E+02  0.51100000000E-03 0. -1.
         11   -1    0    0    0    0 -0.00000000000E+00 -0.00000000000E+00 -0.45593999997E+02  0.45594000000E+02  0.51100000000E-03 0.  1.
    9900012    2    1    2    0    0  0.57549097185E+01  0.16827859794E+02 -0.58636306035E+01  0.72461601121E+02  0.70000040158E+02 0.  0.
         12    1    1    2    0    0 -0.57549097185E+01 -0.16827859794E+02  0.58636306035E+01  0.18726398879E+02  0.00000000000E+00 0. -1.
         11    1    3    3    0    0  0.93655015262E+01  0.13369127810E+02  0.17164306898E+00  0.16324082175E+02  0.51100000000E-03 0. -1.
        -11    1    3    3    0    0 -0.16339280619E+02 -0.15864732367E+02 -0.18959991288E+02  0.29633479278E+02  0.51100000000E-03 0.  1.
         12    1    3    3    0    0  0.12728688811E+02  0.19323464350E+02  0.12924717615E+02  0.26504039669E+02  0.00000000000E+00 0. -1.
</event>
<event>
 7    1  0.2976321E-013  0.7246151E+02  0.7816164E-02  0.1226708E+00
        -11   -1    0    0    0    0  0.00000000000E+00  0.00000000000E+00  0.45593999997E+02  0.45594000000E+02  0.51100000000E-03 0.  1.
         11   -1    0    0    0    0 -0.00000000000E+00 -0.00000000000E+00 -0.45593999997E+02  0.45594000000E+02  0.51100000000E-03 0. -1.
    9900012    2    1    2    0    0 -0.46189326281E+01 -0.10774547667E+02  0.14603292262E+02  0.72461506443E+02  0.69999916821E+02 0.  0.
         12    1    1    2    0    0  0.46189326281E+01  0.10774547667E+02 -0.14603292262E+02  0.18726493557E+02  0.00000000000E+00 0. -1.
         11    1    3    3    0    0 -0.16155524434E+01  0.26107987919E+01 -0.10138248636E+02  0.10592939427E+02  0.51100000000E-03 0. -1.
        -11    1    3    3    0    0 -0.14008714430E+02 -0.31549575894E+02  0.20696208578E+02  0.40248638099E+02  0.51100000000E-03 0.  1.
         12    1    3    3    0    0  0.11005334246E+02  0.18164229434E+02  0.40453323197E+01  0.21619928917E+02  0.00000000000E+00 0. -1.
</event>
<event>
 7    1  0.2976321E-013  0.7246154E+02  0.7816164E-02  0.1226708E+00
        -11   -1    0    0    0    0  0.00000000000E+00  0.00000000000E+00  0.45593999997E+02  0.45594000000E+02  0.51100000000E-03 0.  1.
         11   -1    0    0    0    0 -0.00000000000E+00 -0.00000000000E+00 -0.45593999997E+02  0.45594000000E+02  0.51100000000E-03 0. -1.
    9900012    2    1    2    0    0 -0.22647629872E+01  0.95092162648E+01  0.15972659370E+02  0.72461542975E+02  0.69999964412E+02 0.  0.
         12    1    1    2    0    0  0.22647629872E+01 -0.95092162648E+01 -0.15972659370E+02  0.18726457025E+02  0.00000000000E+00 0. -1.
         11    1    3    3    0    0 -0.18459554202E+01  0.17157644232E+02  0.59657072845E+01  0.18258750524E+02  0.51100000000E-03 0.  1.
        -11    1    3    3    0    0 -0.20863143829E+02 -0.17202985349E+02  0.15236312920E+02  0.31038020346E+02  0.51100000000E-03 0. -1.
         12    1    3    3    0    0  0.20444336262E+02  0.95545573810E+01 -0.52293608350E+01  0.23164772105E+02  0.00000000000E+00 0. -1.
</event>
<event>
 7    1  0.2976321E-013  0.7246155E+02  0.7816164E-02  0.1226708E+00
        -11   -1    0    0    0    0  0.00000000000E+00  0.00000000000E+00  0.45593999997E+02  0.45594000000E+02  0.51100000000E-03 0.  1.
         11   -1    0    0    0    0 -0.00000000000E+00 -0.00000000000E+00 -0.45593999997E+02  0.45594000000E+02  0.51100000000E-03 0. -1.
    9900012    2    1    2    0    0  0.10437924164E+02 -0.14550289903E+02  0.54789480057E+01  0.72461546295E+02  0.69999968736E+02 0.  0.
         12    1    1    2    0    0 -0.10437924164E+02  0.14550289903E+02 -0.54789480057E+01  0.18726453705E+02  0.00000000000E+00 0. -1.
         11    1    3    3    0    0  0.66467143631E+01  0.45366856118E-01 -0.10631063383E+01  0.67313494430E+01  0.51100000000E-03 0. -1.
        -11    1    3    3    0    0  0.30923606628E+02 -0.11546196158E+02  0.16199059989E+02  0.36769466102E+02  0.51100000000E-03 0.  1.
         12    1    3    3    0    0 -0.27132396827E+02 -0.30494606014E+01 -0.96570056447E+01  0.28960730750E+02  0.00000000000E+00 0. -1.
</event>
<event>
 7    1  0.2976321E-013  0.7246116E+02  0.7816164E-02  0.1226709E+00
        -11   -1    0    0    0    0  0.00000000000E+00  0.00000000000E+00  0.45593999997E+02  0.45594000000E+02  0.51100000000E-03 0.  1.
         11   -1    0    0    0    0 -0.00000000000E+00 -0.00000000000E+00 -0.45593999997E+02  0.45594000000E+02  0.51100000000E-03 0. -1.
    9900012    2    1    2    0    0  0.46292222054E+01  0.16013278482E+02  0.85346301331E+01  0.72461155699E+02  0.69999459910E+02 0.  0.
         12    1    1    2    0    0 -0.46292222054E+01 -0.16013278482E+02 -0.85346301331E+01  0.18726844301E+02  0.00000000000E+00 0. -1.
         11    1    3    3    0    0 -0.92706860975E+00 -0.13812231320E+02  0.13681208337E+02  0.19463110030E+02  0.51100000000E-03 0. -1.
        -11    1    3    3    0    0 -0.82844077836E+01 -0.85504153881E+01 -0.20960255744E+01  0.12088603687E+02  0.51100000000E-03 0.  1.
         12    1    3    3    0    0  0.13840698599E+02  0.38375925190E+02 -0.30505526294E+01  0.40909441981E+02  0.00000000000E+00 0. -1.
</event>
<event>
 7    1  0.2976321E-013  0.7246156E+02  0.7816164E-02  0.1226708E+00
        -11   -1    0    0    0    0  0.00000000000E+00  0.00000000000E+00  0.45593999997E+02  0.45594000000E+02  0.51100000000E-03 0. -1.
         11   -1    0    0    0    0 -0.00000000000E+00 -0.00000000000E+00 -0.45593999997E+02  0.45594000000E+02  0.51100000000E-03 0.  1.
    9900012    2    1    2    0    0 -0.17179211421E+02 -0.63843904617E+01 -0.38462807617E+01  0.72461558205E+02  0.69999984252E+02 0.  0.
         12    1    1    2    0    0  0.17179211421E+02  0.63843904617E+01  0.38462807617E+01  0.18726441795E+02  0.00000000000E+00 0. -1.
         11    1    3    3    0    0  0.74608412013E+01  0.10933869810E+01  0.17523697809E+02  0.19077201883E+02  0.51100000000E-03 0. -1.
        -11    1    3    3    0    0 -0.28765451843E+02 -0.93778627784E+01  0.12808855690E+01  0.30282605538E+02  0.51100000000E-03 0.  1.
        -12    1    3    3    0    0  0.41253992214E+01  0.19000853357E+01 -0.22650864140E+02  0.23101750784E+02  0.00000000000E+00 0.  1.
</event>
<event>
 7    1  0.2976321E-013  0.7246155E+02  0.7816164E-02  0.1226708E+00
        -11   -1    0    0    0    0  0.00000000000E+00  0.00000000000E+00  0.45593999997E+02  0.45594000000E+02  0.51100000000E-03 0.  1.
         11   -1    0    0    0    0 -0.00000000000E+00 -0.00000000000E+00 -0.45593999997E+02  0.45594000000E+02  0.51100000000E-03 0. -1.
    9900012    2    1    2    0    0  0.17841341379E+02  0.37196806131E+01  0.43047126711E+01  0.72461547126E+02  0.69999969819E+02 0.  0.
         12    1    1    2    0    0 -0.17841341379E+02 -0.37196806131E+01 -0.43047126711E+01  0.18726452874E+02  0.00000000000E+00 0. -1.
         11    1    3    3    0    0  0.65168943601E+01 -0.17863693556E+02 -0.58029633039E+00  0.19024147909E+02  0.51100000000E-03 0. -1.
        -11    1    3    3    0    0  0.16407665873E+02 -0.93498250007E+01  0.10474293716E+02  0.21594942835E+02  0.51100000000E-03 0.  1.
         12    1    3    3    0    0 -0.50832188541E+01  0.30933199170E+02 -0.55892847143E+01  0.31842456382E+02  0.00000000000E+00 0. -1.
</event>
<event>
 7    1  0.2976321E-013  0.7246156E+02  0.7816164E-02  0.1226708E+00
        -11   -1    0    0    0    0  0.00000000000E+00  0.00000000000E+00  0.45593999997E+02  0.45594000000E+02  0.51100000000E-03 0.  1.
         11   -1    0    0    0    0 -0.00000000000E+00 -0.00000000000E+00 -0.45593999997E+02  0.45594000000E+02  0.51100000000E-03 0. -1.
    9900012    2    1    2    0    0 -0.11172652024E+01 -0.10290082442E+02  0.15605945826E+02  0.72461558177E+02  0.69999984215E+02 0.  0.
         12    1    1    2    0    0  0.11172652024E+01  0.10290082442E+02 -0.15605945826E+02  0.18726441823E+02  0.00000000000E+00 0. -1.
         11    1    3    3    0    0 -0.44751889631E+00  0.22149783966E+02  0.24051548706E+02  0.32700003033E+02  0.51100000000E-03 0. -1.
        -11    1    3    3    0    0 -0.53531260364E+01 -0.24292615220E+01  0.38134245972E+01  0.70071019204E+01  0.51100000000E-03 0.  1.
        -12    1    3    3    0    0  0.46833797304E+01 -0.30010604886E+02 -0.12259027477E+02  0.32754453224E+02  0.00000000000E+00 0.  1.
</event>
<event>
 7    1  0.2976321E-013  0.7246150E+02  0.7816164E-02  0.1226708E+00
        -11   -1    0    0    0    0  0.00000000000E+00  0.00000000000E+00  0.45593999997E+02  0.45594000000E+02  0.51100000000E-03 0. -1.
         11   -1    0    0    0    0 -0.00000000000E+00 -0.00000000000E+00 -0.45593999997E+02  0.45594000000E+02  0.51100000000E-03 0.  1.
    9900012    2    1    2    0    0  0.90212801130E+01 -0.14867915402E+02 -0.69457569365E+01  0.72461496250E+02  0.69999903544E+02 0.  0.
         12    1    1    2    0    0 -0.90212801130E+01  0.14867915402E+02  0.69457569365E+01  0.18726503750E+02  0.00000000000E+00 0. -1.
         11    1    3    3    0    0  0.93717675626E+01  0.57495467736E+01  0.15686694278E+02  0.19156192027E+02  0.51100000000E-03 0. -1.
        -11    1    3    3    0    0 -0.16047367191E+02  0.24926571921E+01 -0.19217677710E+02  0.25160494242E+02  0.51100000000E-03 0.  1.
         12    1    3    3    0    0  0.15696879742E+02 -0.23110119367E+02 -0.34147735043E+01  0.28144809981E+02  0.00000000000E+00 0. -1.
</event>
<event>
 7    1  0.2976321E-013  0.7246156E+02  0.7816164E-02  0.1226708E+00
        -11   -1    0    0    0    0  0.00000000000E+00  0.00000000000E+00  0.45593999997E+02  0.45594000000E+02  0.51100000000E-03 0.  1.
         11   -1    0    0    0    0 -0.00000000000E+00 -0.00000000000E+00 -0.45593999997E+02  0.45594000000E+02  0.51100000000E-03 0. -1.
    9900012    2    1    2    0    0 -0.44289746173E+01  0.15095794341E+02  0.10157799477E+02  0.72461555779E+02  0.69999981091E+02 0.  0.
         12    1    1    2    0    0  0.44289746173E+01 -0.15095794341E+02 -0.10157799477E+02  0.18726444221E+02  0.00000000000E+00 0. -1.
         11    1    3    3    0    0  0.17062126961E+01 -0.73278909676E+01 -0.47800229320E+01  0.89139086426E+01  0.51100000000E-03 0. -1.
        -11    1    3    3    0    0  0.30185121429E+00  0.11483725968E+02  0.36644038730E+02  0.38402508394E+02  0.51100000000E-03 0.  1.
         12    1    3    3    0    0 -0.64370385277E+01  0.10939959341E+02 -0.21706216321E+02  0.25145138742E+02  0.00000000000E+00 0. -1.
</event>
<event>
 7    1  0.2976321E-013  0.7246163E+02  0.7816164E-02  0.1226708E+00
        -11   -1    0    0    0    0  0.00000000000E+00  0.00000000000E+00  0.45593999997E+02  0.45594000000E+02  0.51100000000E-03 0. -1.
         11   -1    0    0    0    0 -0.00000000000E+00 -0.00000000000E+00 -0.45593999997E+02  0.45594000000E+02  0.51100000000E-03 0.  1.
    9900012    2    1    2    0    0 -0.35877398920E+01  0.18203522122E+02 -0.25370926940E+01  0.72461629970E+02  0.70000077738E+02 0.  0.
         12    1    1    2    0    0  0.35877398920E+01 -0.18203522122E+02  0.25370926940E+01  0.18726370030E+02  0.00000000000E+00 0. -1.
         11    1    3    3    0    0 -0.19782551856E+02  0.59234726538E+01  0.12879580147E+02  0.24337634874E+02  0.51100000000E-03 0. -1.
        -11    1    3    3    0    0  0.12352867368E+02 -0.86967130770E+01  0.74602527512E+01  0.16848783990E+02  0.51100000000E-03 0.  1.
        -12    1    3    3    0    0  0.38419445962E+01  0.20976762545E+02 -0.22876925592E+02  0.31275211106E+02  0.00000000000E+00 0.  1.
</event>
<event>
 7    1  0.2976321E-013  0.7246157E+02  0.7816164E-02  0.1226708E+00
        -11   -1    0    0    0    0  0.00000000000E+00  0.00000000000E+00  0.45593999997E+02  0.45594000000E+02  0.51100000000E-03 0.  1.
         11   -1    0    0    0    0 -0.00000000000E+00 -0.00000000000E+00 -0.45593999997E+02  0.45594000000E+02  0.51100000000E-03 0. -1.
    9900012    2    1    2    0    0  0.16554395368E+02 -0.73135997413E+01  0.48106665161E+01  0.72461567892E+02  0.69999996870E+02 0.  0.
         12    1    1    2    0    0 -0.16554395368E+02  0.73135997413E+01 -0.48106665161E+01  0.18726432108E+02  0.00000000000E+00 0. -1.
         11    1    3    3    0    0  0.73328100195E+01 -0.26645884590E+02 -0.65636080135E+01  0.28405179436E+02  0.51100000000E-03 0. -1.
        -11    1    3    3    0    0  0.69293418758E+00 -0.63758116703E+01 -0.83652660108E+01  0.10540816284E+02  0.51100000000E-03 0.  1.
        -12    1    3    3    0    0  0.85286511606E+01  0.25708096519E+02  0.19739540540E+02  0.33515572172E+02  0.00000000000E+00 0.  1.
</event>
<event>
 7    1  0.2976321E-013  0.7246156E+02  0.7816164E-02  0.1226708E+00
        -11   -1    0    0    0    0  0.00000000000E+00  0.00000000000E+00  0.45593999997E+02  0.45594000000E+02  0.51100000000E-03 0. -1.
         11   -1    0    0    0    0 -0.00000000000E+00 -0.00000000000E+00 -0.45593999997E+02  0.45594000000E+02  0.51100000000E-03 0.  1.
    9900012    2    1    2    0    0  0.55224693094E+01 -0.17065000705E+02 -0.53821542378E+01  0.72461561455E+02  0.69999988485E+02 0.  0.
         12    1    1    2    0    0 -0.55224693094E+01  0.17065000705E+02  0.53821542378E+01  0.18726438545E+02  0.00000000000E+00 0. -1.
         11    1    3    3    0    0  0.98307171229E+01 -0.23908581654E+01  0.94095521351E+01  0.13816615850E+02  0.51100000000E-03 0. -1.
        -11    1    3    3    0    0  0.36428742921E+01  0.20337029529E+02 -0.31341684848E+01  0.20897088686E+02  0.51100000000E-03 0.  1.
         12    1    3    3    0    0 -0.79511221057E+01 -0.35011172069E+02 -0.11657537888E+02  0.37747856919E+02  0.00000000000E+00 0. -1.
</event>
<event>
 7    1  0.2976321E-013  0.7246157E+02  0.7816164E-02  0.1226708E+00
        -11   -1    0    0    0    0  0.00000000000E+00  0.00000000000E+00  0.45593999997E+02  0.45594000000E+02  0.51100000000E-03 0. -1.
         11   -1    0    0    0    0 -0.00000000000E+00 -0.00000000000E+00 -0.45593999997E+02  0.45594000000E+02  0.51100000000E-03 0.  1.
    9900012    2    1    2    0    0 -0.43349517485E+01 -0.73207551389E+01 -0.16682140234E+02  0.72461573078E+02  0.70000003626E+02 0.  0.
         12    1    1    2    0    0  0.43349517485E+01  0.73207551389E+01  0.16682140234E+02  0.18726426922E+02  0.00000000000E+00 0. -1.
         11    1    3    3    0    0  0.12186485919E+00 -0.17394694386E+02  0.24714355678E+01  0.17569810411E+02  0.51100000000E-03 0. -1.
        -11    1    3    3    0    0 -0.17019733126E+02 -0.12874187030E+02  0.17390841947E+01  0.21411221859E+02  0.51100000000E-03 0.  1.
        -12    1    3    3    0    0  0.12562916519E+02  0.22948126278E+02 -0.20892659997E+02  0.33480540809E+02  0.00000000000E+00 0.  1.
</event>
<event>
 7    1  0.2976321E-013  0.7246165E+02  0.7816164E-02  0.1226708E+00
        -11   -1    0    0    0    0  0.00000000000E+00  0.00000000000E+00  0.45593999997E+02  0.45594000000E+02  0.51100000000E-03 0.  1.
         11   -1    0    0    0    0 -0.00000000000E+00 -0.00000000000E+00 -0.45593999997E+02  0.45594000000E+02  0.51100000000E-03 0. -1.
    9900012    2    1    2    0    0  0.78394597131E+01 -0.39009626002E+01  0.16552997397E+02  0.72461645293E+02  0.70000097700E+02 0.  0.
         12    1    1    2    0    0 -0.78394597131E+01  0.39009626002E+01 -0.16552997397E+02  0.18726354707E+02  0.00000000000E+00 0. -1.
         11    1    3    3    0    0  0.15781145671E+02  0.11636967779E+02 -0.15998050573E+02  0.25306149453E+02  0.51100000000E-03 0. -1.
        -11    1    3    3    0    0 -0.86204736456E+01  0.29131774906E+01 -0.69563250225E+00  0.91259560488E+01  0.51100000000E-03 0.  1.
        -12    1    3    3    0    0  0.67878768786E+00 -0.18451107870E+02  0.33246680471E+02  0.38029539791E+02  0.00000000000E+00 0.  1.
</event>
<event>
 7    1  0.2976321E-013  0.7246158E+02  0.7816164E-02  0.1226708E+00
        -11   -1    0    0    0    0  0.00000000000E+00  0.00000000000E+00  0.45593999997E+02  0.45594000000E+02  0.51100000000E-03 0.  1.
         11   -1    0    0    0    0 -0.00000000000E+00 -0.00000000000E+00 -0.45593999997E+02  0.45594000000E+02  0.51100000000E-03 0. -1.
    9900012    2    1    2    0    0 -0.43121702642E+01  0.10906541064E+02  0.14599017788E+02  0.72461580942E+02  0.70000013870E+02 0.  0.
         12    1    1    2    0    0  0.43121702642E+01 -0.10906541064E+02 -0.14599017788E+02  0.18726419058E+02  0.00000000000E+00 0. -1.
         11    1    3    3    0    0  0.95225855652E-01  0.27688795624E+02 -0.66492422192E+01  0.28476146042E+02  0.51100000000E-03 0. -1.
        -11    1    3    3    0    0 -0.40009411329E+01  0.58023040813E+01  0.20176205733E+02  0.21371793108E+02  0.51100000000E-03 0.  1.
         12    1    3    3    0    0 -0.40645498688E+00 -0.22584558642E+02  0.10720542740E+01  0.22613641791E+02  0.00000000000E+00 0. -1.
</event>
<event>
 7    1  0.2976321E-013  0.7246155E+02  0.7816164E-02  0.1226708E+00
        -11   -1    0    0    0    0  0.00000000000E+00  0.00000000000E+00  0.45593999997E+02  0.45594000000E+02  0.51100000000E-03 0.  1.
         11   -1    0    0    0    0 -0.00000000000E+00 -0.00000000000E+00 -0.45593999997E+02  0.45594000000E+02  0.51100000000E-03 0. -1.
    9900012    2    1    2    0    0 -0.17560179808E+02  0.64963041205E+01 -0.34369768342E+00  0.72461547847E+02  0.69999970759E+02 0.  0.
         12    1    1    2    0    0  0.17560179808E+02 -0.64963041205E+01  0.34369768342E+00  0.18726452153E+02  0.00000000000E+00 0. -1.
         11    1    3    3    0    0 -0.57248757060E-01 -0.30851164327E+02  0.13341868205E+01  0.30880052987E+02  0.51100000000E-03 0. -1.
        -11    1    3    3    0    0 -0.48025565555E+01  0.75897831851E+01 -0.21012725877E+01  0.92241370877E+01  0.51100000000E-03 0.  1.
        -12    1    3    3    0    0 -0.12700374496E+02  0.29757685263E+02  0.42338808373E+00  0.32357357772E+02  0.00000000000E+00 0.  1.
</event>
<event>
 7    1  0.2976321E-013  0.7246155E+02  0.7816164E-02  0.1226708E+00
        -11   -1    0    0    0    0  0.00000000000E+00  0.00000000000E+00  0.45593999997E+02  0.45594000000E+02  0.51100000000E-03 0.  1.
         11   -1    0    0    0    0 -0.00000000000E+00 -0.00000000000E+00 -0.45593999997E+02  0.45594000000E+02  0.51100000000E-03 0. -1.
    9900012    2    1    2    0    0 -0.15170776345E+02 -0.10863175238E+02  0.15871567679E+01  0.72461545509E+02  0.69999967713E+02 0.  0.
         12    1    1    2    0    0  0.15170776345E+02  0.10863175238E+02 -0.15871567679E+01  0.18726454491E+02  0.00000000000E+00 0. -1.
         11    1    3    3    0    0 -0.11123686676E+01  0.17017301015E+02 -0.67739270053E+00  0.17067066503E+02  0.51100000000E-03 0.  1.
        -11    1    3    3    0    0 -0.18290195735E+02 -0.16988887389E+01 -0.15028394439E+02  0.23733312509E+02  0.51100000000E-03 0. -1.
         12    1    3    3    0    0  0.42317880575E+01 -0.26181587515E+02  0.17292943908E+02  0.31661166497E+02  0.00000000000E+00 0. -1.
</event>
<event>
 7    1  0.2976321E-013  0.7246165E+02  0.7816164E-02  0.1226708E+00
        -11   -1    0    0    0    0  0.00000000000E+00  0.00000000000E+00  0.45593999997E+02  0.45594000000E+02  0.51100000000E-03 0. -1.
         11   -1    0    0    0    0 -0.00000000000E+00 -0.00000000000E+00 -0.45593999997E+02  0.45594000000E+02  0.51100000000E-03 0.  1.
    9900012    2    1    2    0    0 -0.18567375785E+02  0.21056386254E+01  0.12227618605E+01  0.72461646801E+02  0.70000099664E+02 0.  0.
         12    1    1    2    0    0  0.18567375785E+02 -0.21056386254E+01 -0.12227618605E+01  0.18726353199E+02  0.00000000000E+00 0. -1.
         11    1    3    3    0    0 -0.20910082969E+02 -0.30611187026E+02  0.14087582650E+01  0.37097991064E+02  0.51100000000E-03 0. -1.
        -11    1    3    3    0    0 -0.14044027365E+01  0.10934829256E+01 -0.29010548736E+01  0.34035527902E+01  0.51100000000E-03 0.  1.
        -12    1    3    3    0    0  0.37471099208E+01  0.31623342725E+02  0.27150584692E+01  0.31960102947E+02  0.00000000000E+00 0.  1.
</event>
<event>
 7    1  0.2976321E-013  0.7246156E+02  0.7816164E-02  0.1226708E+00
        -11   -1    0    0    0    0  0.00000000000E+00  0.00000000000E+00  0.45593999997E+02  0.45594000000E+02  0.51100000000E-03 0. -1.
         11   -1    0    0    0    0 -0.00000000000E+00 -0.00000000000E+00 -0.45593999997E+02  0.45594000000E+02  0.51100000000E-03 0.  1.
    9900012    2    1    2    0    0 -0.11920843832E+02  0.50847419347E+01 -0.13517342769E+02  0.72461556832E+02  0.69999982463E+02 0.  0.
         12    1    1    2    0    0  0.11920843832E+02 -0.50847419347E+01  0.13517342769E+02  0.18726443168E+02  0.00000000000E+00 0. -1.
         11    1    3    3    0    0 -0.12946841897E+02  0.48908749056E+01  0.47558884082E+01  0.14634201285E+02  0.51100000000E-03 0. -1.
        -11    1    3    3    0    0 -0.19052278941E+02 -0.18890355383E+02 -0.58092578160E+01  0.27451454168E+02  0.51100000000E-03 0.  1.
        -12    1    3    3    0    0  0.20078277006E+02  0.19084222412E+02 -0.12463973361E+02  0.30375901378E+02  0.00000000000E+00 0.  1.
</event>
<event>
 7    1  0.2976321E-013  0.7246158E+02  0.7816164E-02  0.1226708E+00
        -11   -1    0    0    0    0  0.00000000000E+00  0.00000000000E+00  0.45593999997E+02  0.45594000000E+02  0.51100000000E-03 0. -1.
         11   -1    0    0    0    0 -0.00000000000E+00 -0.00000000000E+00 -0.45593999997E+02  0.45594000000E+02  0.51100000000E-03 0.  1.
    9900012    2    1    2    0    0 -0.17432773598E+02  0.52688619803E+01 -0.43607573614E+01  0.72461582653E+02  0.70000016099E+02 0.  0.
         12    1    1    2    0    0  0.17432773598E+02 -0.52688619803E+01  0.43607573614E+01  0.18726417347E+02  0.00000000000E+00 0. -1.
         11    1    3    3    0    0  0.32940097886E+01 -0.18515251321E+02 -0.65650688469E+01  0.19918964863E+02  0.51100000000E-03 0. -1.
        -11    1    3    3    0    0  0.12366346246E+02  0.36353161051E+01 -0.35589298959E+01  0.13371911790E+02  0.51100000000E-03 0.  1.
        -12    1    3    3    0    0 -0.33093129633E+02  0.20148797196E+02  0.57632413815E+01  0.39170706000E+02  0.00000000000E+00 0.  1.
</event>
<event>
 7    1  0.2976321E-013  0.7246156E+02  0.7816164E-02  0.1226708E+00
        -11   -1    0    0    0    0  0.00000000000E+00  0.00000000000E+00  0.45593999997E+02  0.45594000000E+02  0.51100000000E-03 0. -1.
         11   -1    0    0    0    0 -0.00000000000E+00 -0.00000000000E+00 -0.45593999997E+02  0.45594000000E+02  0.51100000000E-03 0.  1.
    9900012    2    1    2    0    0 -0.71789439420E+01 -0.14175521813E+01 -0.17237540549E+02  0.72461561617E+02  0.69999988697E+02 0.  0.
         12    1    1    2    0    0  0.71789439420E+01  0.14175521813E+01  0.17237540549E+02  0.18726438383E+02  0.00000000000E+00 0. -1.
         11    1    3    3    0    0 -0.23854969136E+02 -0.24464497560E+01 -0.36877363448E+01  0.24261988139E+02  0.51100000000E-03 0. -1.
        -11    1    3    3    0    0 -0.14622699813E+02  0.22672984471E+01 -0.26418884397E+01  0.15031419323E+02  0.51100000000E-03 0.  1.
        -12    1    3    3    0    0  0.31298725006E+02 -0.12384008724E+01 -0.10907915765E+02  0.33168154155E+02  0.00000000000E+00 0.  1.
</event>
<event>
 7    1  0.2976321E-013  0.7246191E+02  0.7816164E-02  0.1226707E+00
        -11   -1    0    0    0    0  0.00000000000E+00  0.00000000000E+00  0.45593999997E+02  0.45594000000E+02  0.51100000000E-03 0.  1.
         11   -1    0    0    0    0 -0.00000000000E+00 -0.00000000000E+00 -0.45593999997E+02  0.45594000000E+02  0.51100000000E-03 0. -1.
    9900012    2    1    2    0    0  0.19261067580E+01  0.49372808860E+01  0.17960504191E+02  0.72461912833E+02  0.70000446218E+02 0.  0.
         12    1    1    2    0    0 -0.19261067580E+01 -0.49372808860E+01 -0.17960504191E+02  0.18726087167E+02  0.00000000000E+00 0. -1.
         11    1    3    3    0    0 -0.13257001065E+02 -0.17870062851E+02 -0.13974868876E+02  0.26275162871E+02  0.51100000000E-03 0. -1.
        -11    1    3    3    0    0 -0.33317902460E+01  0.44983406540E+01  0.89161681930E+00  0.56684103323E+01  0.51100000000E-03 0.  1.
        -12    1    3    3    0    0  0.18514898069E+02  0.18309003083E+02  0.31043756248E+02  0.40518339630E+02  0.00000000000E+00 0.  1.
</event>
<event>
 7    1  0.2976321E-013  0.7246161E+02  0.7816164E-02  0.1226708E+00
        -11   -1    0    0    0    0  0.00000000000E+00  0.00000000000E+00  0.45593999997E+02  0.45594000000E+02  0.51100000000E-03 0.  1.
         11   -1    0    0    0    0 -0.00000000000E+00 -0.00000000000E+00 -0.45593999997E+02  0.45594000000E+02  0.51100000000E-03 0. -1.
    9900012    2    1    2    0    0  0.80458628514E+01 -0.13636337910E+02  0.99995968827E+01  0.72461613310E+02  0.70000056036E+02 0.  0.
         12    1    1    2    0    0 -0.80458628514E+01  0.13636337910E+02 -0.99995968827E+01  0.18726386690E+02  0.00000000000E+00 0. -1.
         11    1    3    3    0    0  0.86189899031E+01  0.37215928667E+01  0.16043326704E+02  0.18588318171E+02  0.51100000000E-03 0. -1.
        -11    1    3    3    0    0  0.10056088365E+02 -0.99094051337E+01  0.20171276310E+02  0.24621161865E+02  0.51100000000E-03 0.  1.
         12    1    3    3    0    0 -0.10629215417E+02 -0.74485256433E+01 -0.26215006132E+02  0.29252133275E+02  0.00000000000E+00 0. -1.
</event>
<event>
 7    1  0.2976321E-013  0.7246154E+02  0.7816164E-02  0.1226708E+00
        -11   -1    0    0    0    0  0.00000000000E+00  0.00000000000E+00  0.45593999997E+02  0.45594000000E+02  0.51100000000E-03 0.  1.
         11   -1    0    0    0    0 -0.00000000000E+00 -0.00000000000E+00 -0.45593999997E+02  0.45594000000E+02  0.51100000000E-03 0. -1.
    9900012    2    1    2    0    0 -0.11702238211E+02 -0.14602231990E+02 -0.71603535038E+00  0.72461541049E+02  0.69999961902E+02 0.  0.
         12    1    1    2    0    0  0.11702238211E+02  0.14602231990E+02  0.71603535038E+00  0.18726458951E+02  0.00000000000E+00 0. -1.
         11    1    3    3    0    0  0.19919726767E+01 -0.98352976881E+01 -0.15182130260E+02  0.18198849283E+02  0.51100000000E-03 0. -1.
        -11    1    3    3    0    0 -0.20638418845E+02  0.14534820334E+02 -0.52809915546E+01  0.25789420440E+02  0.51100000000E-03 0.  1.
        -12    1    3    3    0    0  0.69442079572E+01 -0.19301754635E+02  0.19747086464E+02  0.28473271325E+02  0.00000000000E+00 0.  1.
</event>
<event>
 7    1  0.2976321E-013  0.7246171E+02  0.7816164E-02  0.1226708E+00
        -11   -1    0    0    0    0  0.00000000000E+00  0.00000000000E+00  0.45593999997E+02  0.45594000000E+02  0.51100000000E-03 0.  1.
         11   -1    0    0    0    0 -0.00000000000E+00 -0.00000000000E+00 -0.45593999997E+02  0.45594000000E+02  0.51100000000E-03 0. -1.
    9900012    2    1    2    0    0 -0.10621712666E+02  0.67739308286E+01  0.13855214935E+02  0.72461710999E+02  0.70000183294E+02 0.  0.
         12    1    1    2    0    0  0.10621712666E+02 -0.67739308286E+01 -0.13855214935E+02  0.18726289001E+02  0.00000000000E+00 0. -1.
         11    1    3    3    0    0 -0.21296086251E+01 -0.13935652959E+02 -0.18679519840E+02  0.23402181907E+02  0.51100000000E-03 0. -1.
        -11    1    3    3    0    0  0.28999001642E+01 -0.52094645763E+01  0.41789341120E-01  0.59623559726E+01  0.51100000000E-03 0.  1.
        -12    1    3    3    0    0 -0.11392004205E+02  0.25919048364E+02  0.32492945434E+02  0.43097173120E+02  0.00000000000E+00 0.  1.
</event>
<event>
 7    1  0.2976321E-013  0.7246164E+02  0.7816164E-02  0.1226708E+00
        -11   -1    0    0    0    0  0.00000000000E+00  0.00000000000E+00  0.45593999997E+02  0.45594000000E+02  0.51100000000E-03 0. -1.
         11   -1    0    0    0    0 -0.00000000000E+00 -0.00000000000E+00 -0.45593999997E+02  0.45594000000E+02  0.51100000000E-03 0.  1.
    9900012    2    1    2    0    0  0.73387280686E+01  0.16877400347E+02 -0.34602044299E+01  0.72461639253E+02  0.70000089831E+02 0.  0.
         12    1    1    2    0    0 -0.73387280686E+01 -0.16877400347E+02  0.34602044299E+01  0.18726360747E+02  0.00000000000E+00 0. -1.
         11    1    3    3    0    0 -0.10413117520E+01 -0.21899788078E+02  0.91894860497E+01  0.23772498862E+02  0.51100000000E-03 0. -1.
        -11    1    3    3    0    0 -0.41828145492E+01  0.53812202015E+01 -0.11037142639E+02  0.12971969253E+02  0.51100000000E-03 0.  1.
        -12    1    3    3    0    0  0.12562854370E+02  0.33395968224E+02 -0.16125478406E+01  0.35717171137E+02  0.00000000000E+00 0.  1.
</event>
<event>
 7    1  0.2976321E-013  0.7246157E+02  0.7816164E-02  0.1226708E+00
        -11   -1    0    0    0    0  0.00000000000E+00  0.00000000000E+00  0.45593999997E+02  0.45594000000E+02  0.51100000000E-03 0.  1.
         11   -1    0    0    0    0 -0.00000000000E+00 -0.00000000000E+00 -0.45593999997E+02  0.45594000000E+02  0.51100000000E-03 0. -1.
    9900012    2    1    2    0    0 -0.93351032471E+01 -0.10547544751E+02  0.12340354277E+02  0.72461569571E+02  0.69999999058E+02 0.  0.
         12    1    1    2    0    0  0.93351032471E+01  0.10547544751E+02 -0.12340354277E+02  0.18726430429E+02  0.00000000000E+00 0. -1.
         11    1    3    3    0    0 -0.92907313155E+01  0.21669477699E+02  0.34224813552E+01  0.23824301270E+02  0.51100000000E-03 0. -1.
        -11    1    3    3    0    0 -0.28300251672E+01 -0.44439682775E+01  0.18414655104E+02  0.19153522375E+02  0.51100000000E-03 0.  1.
        -12    1    3    3    0    0  0.27856532356E+01 -0.27773054173E+02 -0.94967821818E+01  0.29483745926E+02  0.00000000000E+00 0.  1.
</event>
<event>
 7    1  0.2976321E-013  0.7246163E+02  0.7816164E-02  0.1226708E+00
        -11   -1    0    0    0    0  0.00000000000E+00  0.00000000000E+00  0.45593999997E+02  0.45594000000E+02  0.51100000000E-03 0.  1.
         11   -1    0    0    0    0 -0.00000000000E+00 -0.00000000000E+00 -0.45593999997E+02  0.45594000000E+02  0.51100000000E-03 0. -1.
    9900012    2    1    2    0    0 -0.11974205257E+02 -0.12741832731E+02 -0.67037971967E+01  0.72461633835E+02  0.70000082773E+02 0.  0.
         12    1    1    2    0    0  0.11974205257E+02  0.12741832731E+02  0.67037971967E+01  0.18726366165E+02  0.00000000000E+00 0. -1.
         11    1    3    3    0    0 -0.17606062523E+02  0.36854938048E+01  0.46625319825E+01  0.18582128697E+02  0.51100000000E-03 0. -1.
        -11    1    3    3    0    0 -0.11313061109E+02 -0.10243437645E+02  0.15348849159E+02  0.21644873231E+02  0.51100000000E-03 0.  1.
         12    1    3    3    0    0  0.16944918375E+02 -0.61838888909E+01 -0.26715178338E+02  0.32234631907E+02  0.00000000000E+00 0. -1.
</event>
<event>
 7    1  0.2976321E-013  0.7246162E+02  0.7816164E-02  0.1226708E+00
        -11   -1    0    0    0    0  0.00000000000E+00  0.00000000000E+00  0.45593999997E+02  0.45594000000E+02  0.51100000000E-03 0. -1.
         11   -1    0    0    0    0 -0.00000000000E+00 -0.00000000000E+00 -0.45593999997E+02  0.45594000000E+02  0.51100000000E-03 0.  1.
    9900012    2    1    2    0    0 -0.13344936068E+02  0.25232474739E+01 -0.12892764858E+02  0.72461615347E+02  0.70000058690E+02 0.  0.
         12    1    1    2    0    0  0.13344936068E+02 -0.25232474739E+01  0.12892764858E+02  0.18726384653E+02  0.00000000000E+00 0. -1.
         11    1    3    3    0    0 -0.70699037232E+01  0.19397880628E+02  0.12856455989E+02  0.24321796241E+02  0.51100000000E-03 0. -1.
        -11    1    3    3    0    0 -0.21178741702E+02 -0.10072373166E+02 -0.19858424876E+02  0.30730259355E+02  0.51100000000E-03 0.  1.
         12    1    3    3    0    0  0.14903709357E+02 -0.68022599886E+01 -0.58907959720E+01  0.17409559751E+02  0.00000000000E+00 0. -1.
</event>
<event>
 7    1  0.2976321E-013  0.7246156E+02  0.7816164E-02  0.1226708E+00
        -11   -1    0    0    0    0  0.00000000000E+00  0.00000000000E+00  0.45593999997E+02  0.45594000000E+02  0.51100000000E-03 0.  1.
         11   -1    0    0    0    0 -0.00000000000E+00 -0.00000000000E+00 -0.45593999997E+02  0.45594000000E+02  0.51100000000E-03 0. -1.
    9900012    2    1    2    0    0 -0.75313644753E+01 -0.69856056537E+01  0.15657569080E+02  0.72461558622E+02  0.69999984794E+02 0.  0.
         12    1    1    2    0    0  0.75313644753E+01  0.69856056537E+01 -0.15657569080E+02  0.18726441378E+02  0.00000000000E+00 0. -1.
         11    1    3    3    0    0 -0.13921101766E+02 -0.18683843346E+02  0.58422312416E+01  0.24021131170E+02  0.51100000000E-03 0. -1.
        -11    1    3    3    0    0 -0.77997133205E+00 -0.90492246956E+01  0.21667193857E+02  0.23493916506E+02  0.51100000000E-03 0.  1.
         12    1    3    3    0    0  0.71697086229E+01  0.20747462388E+02 -0.11851856019E+02  0.24946510946E+02  0.00000000000E+00 0. -1.
</event>
<event>
 7    1  0.2976321E-013  0.7246156E+02  0.7816164E-02  0.1226708E+00
        -11   -1    0    0    0    0  0.00000000000E+00  0.00000000000E+00  0.45593999997E+02  0.45594000000E+02  0.51100000000E-03 0.  1.
         11   -1    0    0    0    0 -0.00000000000E+00 -0.00000000000E+00 -0.45593999997E+02  0.45594000000E+02  0.51100000000E-03 0. -1.
    9900012    2    1    2    0    0  0.57920033827E+01  0.16597341380E+02 -0.64544976466E+01  0.72461559229E+02  0.69999985585E+02 0.  0.
         12    1    1    2    0    0 -0.57920033827E+01 -0.16597341380E+02  0.64544976466E+01  0.18726440771E+02  0.00000000000E+00 0. -1.
         11    1    3    3    0    0 -0.13182377388E-01  0.18917481057E+02 -0.80534822301E+01  0.20560394928E+02  0.51100000000E-03 0. -1.
        -11    1    3    3    0    0 -0.17763846902E+02  0.94814083150E+01  0.12140704449E+02  0.23512721347E+02  0.51100000000E-03 0.  1.
        -12    1    3    3    0    0  0.23569032662E+02 -0.11801547991E+02 -0.10541719865E+02  0.28388442954E+02  0.00000000000E+00 0.  1.
</event>
<event>
 7    1  0.3731726E-013  0.7246155E+02  0.7816164E-02  0.1226708E+00
        -11   -1    0    0    0    0  0.00000000000E+00  0.00000000000E+00  0.45593999997E+02  0.45594000000E+02  0.51100000000E-03 0. -1.
         11   -1    0    0    0    0 -0.00000000000E+00 -0.00000000000E+00 -0.45593999997E+02  0.45594000000E+02  0.51100000000E-03 0.  1.
    9900012    2    1    2    0    0 -0.10865518940E+02  0.66701758877E+01 -0.13716015893E+02  0.72461552388E+02  0.69999976673E+02 0.  0.
         12    1    1    2    0    0  0.10865518940E+02 -0.66701758877E+01  0.13716015893E+02  0.18726447612E+02  0.00000000000E+00 0. -1.
         11    1    3    3    0    0  0.10470878528E+02  0.72183869907E+01  0.11461355796E+02  0.17120370464E+02  0.51100000000E-03 0. -1.
        -11    1    3    3    0    0 -0.17477631884E+02  0.65158339885E+01  0.86561235522E+01  0.20563369959E+02  0.51100000000E-03 0.  1.
        -12    1    3    3    0    0 -0.38587655833E+01 -0.70640450915E+01 -0.33833495241E+02  0.34777811965E+02  0.00000000000E+00 0.  1.
</event>
<event>
 7    1  0.2976321E-013  0.7246157E+02  0.7816164E-02  0.1226708E+00
        -11   -1    0    0    0    0  0.00000000000E+00  0.00000000000E+00  0.45593999997E+02  0.45594000000E+02  0.51100000000E-03 0. -1.
         11   -1    0    0    0    0 -0.00000000000E+00 -0.00000000000E+00 -0.45593999997E+02  0.45594000000E+02  0.51100000000E-03 0.  1.
    9900012    2    1    2    0    0  0.11147589116E+02  0.12263842593E+02  0.87182920780E+01  0.72461569614E+02  0.69999999113E+02 0.  0.
         12    1    1    2    0    0 -0.11147589116E+02 -0.12263842593E+02 -0.87182920780E+01  0.18726430386E+02  0.00000000000E+00 0. -1.
         11    1    3    3    0    0  0.17272766730E+01  0.19089226197E+02 -0.16321420813E+02  0.25174805245E+02  0.51100000000E-03 0. -1.
        -11    1    3    3    0    0  0.19029568183E+02 -0.68311427367E+01 -0.26361544990E+00  0.20220249001E+02  0.51100000000E-03 0.  1.
         12    1    3    3    0    0 -0.96092557392E+01  0.57591329159E-02  0.25303328341E+02  0.27066515368E+02  0.00000000000E+00 0. -1.
</event>
<event>
 7    1  0.2976321E-013  0.7246186E+02  0.7816164E-02  0.1226707E+00
        -11   -1    0    0    0    0  0.00000000000E+00  0.00000000000E+00  0.45593999997E+02  0.45594000000E+02  0.51100000000E-03 0. -1.
         11   -1    0    0    0    0 -0.00000000000E+00 -0.00000000000E+00 -0.45593999997E+02  0.45594000000E+02  0.51100000000E-03 0.  1.
    9900012    2    1    2    0    0  0.76678027037E+01 -0.80304080934E+01 -0.15079317691E+02  0.72461855857E+02  0.70000371997E+02 0.  0.
         12    1    1    2    0    0 -0.76678027037E+01  0.80304080934E+01  0.15079317691E+02  0.18726144143E+02  0.00000000000E+00 0. -1.
         11    1    3    3    0    0 -0.11419374477E+02  0.14607662502E+01  0.18262862911E+02  0.21588610735E+02  0.51100000000E-03 0. -1.
        -11    1    3    3    0    0 -0.77019036885E+01 -0.84737763862E+01 -0.12191177999E+02  0.16725699625E+02  0.51100000000E-03 0.  1.
         12    1    3    3    0    0  0.26789080869E+02 -0.10173979575E+01 -0.21151002603E+02  0.34147545498E+02  0.00000000000E+00 0. -1.
</event>
<event>
 7    1  0.2976321E-013  0.7246155E+02  0.7816164E-02  0.1226708E+00
        -11   -1    0    0    0    0  0.00000000000E+00  0.00000000000E+00  0.45593999997E+02  0.45594000000E+02  0.51100000000E-03 0. -1.
         11   -1    0    0    0    0 -0.00000000000E+00 -0.00000000000E+00 -0.45593999997E+02  0.45594000000E+02  0.51100000000E-03 0.  1.
    9900012    2    1    2    0    0  0.42061220970E+01  0.12375445436E+02 -0.13410318169E+02  0.72461554896E+02  0.69999979941E+02 0.  0.
         12    1    1    2    0    0 -0.42061220970E+01 -0.12375445436E+02  0.13410318169E+02  0.18726445104E+02  0.00000000000E+00 0. -1.
         11    1    3    3    0    0  0.48624130900E+01  0.24001128888E+02  0.10071520958E+02  0.26478912055E+02  0.51100000000E-03 0. -1.
        -11    1    3    3    0    0  0.61348103941E+01  0.12239828233E+02 -0.13529209623E+02  0.19248085802E+02  0.51100000000E-03 0.  1.
         12    1    3    3    0    0 -0.67911013871E+01 -0.23865511685E+02 -0.99526295033E+01  0.26734557039E+02  0.00000000000E+00 0. -1.
</event>
<event>
 7    1  0.2976321E-013  0.7246160E+02  0.7816164E-02  0.1226708E+00
        -11   -1    0    0    0    0  0.00000000000E+00  0.00000000000E+00  0.45593999997E+02  0.45594000000E+02  0.51100000000E-03 0. -1.
         11   -1    0    0    0    0 -0.00000000000E+00 -0.00000000000E+00 -0.45593999997E+02  0.45594000000E+02  0.51100000000E-03 0.  1.
    9900012    2    1    2    0    0 -0.14033620699E+02  0.11931520718E+02 -0.33726167493E+01  0.72461595105E+02  0.70000032320E+02 0.  0.
         12    1    1    2    0    0  0.14033620699E+02 -0.11931520718E+02  0.33726167493E+01  0.18726404895E+02  0.00000000000E+00 0. -1.
         11    1    3    3    0    0 -0.30769549371E+02 -0.53559661251E+01 -0.84588696048E+01  0.32357441445E+02  0.51100000000E-03 0. -1.
        -11    1    3    3    0    0 -0.66715121475E+01  0.60678111240E+01 -0.70527557716E+01  0.11448526997E+02  0.51100000000E-03 0.  1.
        -12    1    3    3    0    0  0.23407440820E+02  0.11219675719E+02  0.12139008627E+02  0.28655626662E+02  0.00000000000E+00 0.  1.
</event>
<event>
 7    1  0.2976321E-013  0.7246157E+02  0.7816164E-02  0.1226708E+00
        -11   -1    0    0    0    0  0.00000000000E+00  0.00000000000E+00  0.45593999997E+02  0.45594000000E+02  0.51100000000E-03 0.  1.
         11   -1    0    0    0    0 -0.00000000000E+00 -0.00000000000E+00 -0.45593999997E+02  0.45594000000E+02  0.51100000000E-03 0. -1.
    9900012    2    1    2    0    0  0.13284225166E+02  0.98709774036E+01  0.87619871106E+01  0.72461568111E+02  0.69999997156E+02 0.  0.
         12    1    1    2    0    0 -0.13284225166E+02 -0.98709774036E+01 -0.87619871106E+01  0.18726431889E+02  0.00000000000E+00 0. -1.
         11    1    3    3    0    0 -0.12406897197E+02 -0.16900030791E+02 -0.12193451059E+02  0.24253296431E+02  0.51100000000E-03 0. -1.
        -11    1    3    3    0    0  0.85201454323E+01 -0.13171573627E+01 -0.93777498210E+00  0.86722087085E+01  0.51100000000E-03 0.  1.
        -12    1    3    3    0    0  0.17170976931E+02  0.28088165558E+02  0.21893213152E+02  0.39536062971E+02  0.00000000000E+00 0.  1.
</event>
<event>
 7    1  0.2976321E-013  0.7246178E+02  0.7816164E-02  0.1226707E+00
        -11   -1    0    0    0    0  0.00000000000E+00  0.00000000000E+00  0.45593999997E+02  0.45594000000E+02  0.51100000000E-03 0.  1.
         11   -1    0    0    0    0 -0.00000000000E+00 -0.00000000000E+00 -0.45593999997E+02  0.45594000000E+02  0.51100000000E-03 0. -1.
    9900012    2    1    2    0    0  0.85483718103E+01  0.16116196619E+02  0.42266761298E+01  0.72461781877E+02  0.70000275626E+02 0.  0.
         12    1    1    2    0    0 -0.85483718103E+01 -0.16116196619E+02 -0.42266761298E+01  0.18726218123E+02  0.00000000000E+00 0. -1.
         11    1    3    3    0    0 -0.50106727946E+01  0.19961165733E+02 -0.11538225568E+02  0.23594186335E+02  0.51100000000E-03 0. -1.
        -11    1    3    3    0    0  0.24743211127E+02  0.10557510409E+02  0.40777806284E+01  0.27208745248E+02  0.51100000000E-03 0.  1.
        -12    1    3    3    0    0 -0.11184166522E+02 -0.14402479522E+02  0.11687121070E+02  0.21658850294E+02  0.00000000000E+00 0.  1.
</event>
<event>
 7    1  0.2976321E-013  0.7246159E+02  0.7816164E-02  0.1226708E+00
        -11   -1    0    0    0    0  0.00000000000E+00  0.00000000000E+00  0.45593999997E+02  0.45594000000E+02  0.51100000000E-03 0. -1.
         11   -1    0    0    0    0 -0.00000000000E+00 -0.00000000000E+00 -0.45593999997E+02  0.45594000000E+02  0.51100000000E-03 0.  1.
    9900012    2    1    2    0    0  0.12515268178E+02 -0.13212590161E+02  0.44129286077E+01  0.72461590434E+02  0.70000026236E+02 0.  0.
         12    1    1    2    0    0 -0.12515268178E+02  0.13212590161E+02 -0.44129286077E+01  0.18726409566E+02  0.00000000000E+00 0. -1.
         11    1    3    3    0    0 -0.15942577034E+02 -0.11815900584E+01 -0.67681435830E+01  0.17360002459E+02  0.51100000000E-03 0. -1.
        -11    1    3    3    0    0 -0.17940425533E+01 -0.18130793540E+02 -0.67266947363E+01  0.19421449107E+02  0.51100000000E-03 0.  1.
         12    1    3    3    0    0  0.30251887765E+02  0.60997934374E+01  0.17907766927E+02  0.35680138868E+02  0.00000000000E+00 0. -1.
</event>
<event>
 7    1  0.2976321E-013  0.7246161E+02  0.7816164E-02  0.1226708E+00
        -11   -1    0    0    0    0  0.00000000000E+00  0.00000000000E+00  0.45593999997E+02  0.45594000000E+02  0.51100000000E-03 0.  1.
         11   -1    0    0    0    0 -0.00000000000E+00 -0.00000000000E+00 -0.45593999997E+02  0.45594000000E+02  0.51100000000E-03 0. -1.
    9900012    2    1    2    0    0 -0.79603019115E+01  0.15733510706E+02 -0.63061734333E+01  0.72461612494E+02  0.70000054973E+02 0.  0.
         12    1    1    2    0    0  0.79603019115E+01 -0.15733510706E+02  0.63061734333E+01  0.18726387506E+02  0.00000000000E+00 0. -1.
         11    1    3    3    0    0 -0.17439759698E+02 -0.13355072788E+02  0.18061779978E+01  0.22040087720E+02  0.51100000000E-03 0. -1.
        -11    1    3    3    0    0 -0.55734985476E+01  0.13115003965E+02 -0.20691396766E+02  0.25123716195E+02  0.51100000000E-03 0.  1.
         12    1    3    3    0    0  0.15052956334E+02  0.15973579529E+02  0.12579045335E+02  0.25297808579E+02  0.00000000000E+00 0. -1.
</event>
<event>
 7    1  0.2976321E-013  0.7246182E+02  0.7816164E-02  0.1226707E+00
        -11   -1    0    0    0    0  0.00000000000E+00  0.00000000000E+00  0.45593999997E+02  0.45594000000E+02  0.51100000000E-03 0.  1.
         11   -1    0    0    0    0 -0.00000000000E+00 -0.00000000000E+00 -0.45593999997E+02  0.45594000000E+02  0.51100000000E-03 0. -1.
    9900012    2    1    2    0    0  0.92287286960E+01  0.16218043437E+02 -0.15733201295E+01  0.72461823068E+02  0.70000329283E+02 0.  0.
         12    1    1    2    0    0 -0.92287286960E+01 -0.16218043437E+02  0.15733201295E+01  0.18726176932E+02  0.00000000000E+00 0. -1.
         11    1    3    3    0    0  0.58491995508E+00 -0.11453344074E+02 -0.64804772677E+01  0.13172615827E+02  0.51100000000E-03 0. -1.
        -11    1    3    3    0    0  0.24699908595E+01  0.25112357459E+01  0.25780437234E+02  0.26019955881E+02  0.51100000000E-03 0.  1.
        -12    1    3    3    0    0  0.61738178814E+01  0.25160151766E+02 -0.20873280096E+02  0.33269251360E+02  0.00000000000E+00 0.  1.
</event>
<event>
 7    1  0.2976321E-013  0.7246158E+02  0.7816164E-02  0.1226708E+00
        -11   -1    0    0    0    0  0.00000000000E+00  0.00000000000E+00  0.45593999997E+02  0.45594000000E+02  0.51100000000E-03 0.  1.
         11   -1    0    0    0    0 -0.00000000000E+00 -0.00000000000E+00 -0.45593999997E+02  0.45594000000E+02  0.51100000000E-03 0. -1.
    9900012    2    1    2    0    0  0.15026689404E+02  0.10383824436E+02 -0.41296096004E+01  0.72461578030E+02  0.70000010077E+02 0.  0.
         12    1    1    2    0    0 -0.15026689404E+02 -0.10383824436E+02  0.41296096004E+01  0.18726421970E+02  0.00000000000E+00 0. -1.
         11    1    3    3    0    0  0.88028928078E+01  0.77289006273E+01  0.84117250163E+01  0.14421648474E+02  0.51100000000E-03 0.  1.
        -11    1    3    3    0    0  0.26761824127E+02 -0.11671593891E+02  0.16758356440E+01  0.29244311582E+02  0.51100000000E-03 0. -1.
         12    1    3    3    0    0 -0.20538027530E+02  0.14326517700E+02 -0.14217170261E+02  0.28795617973E+02  0.00000000000E+00 0. -1.
</event>
<event>
 7    1  0.2976321E-013  0.7246160E+02  0.7816164E-02  0.1226708E+00
        -11   -1    0    0    0    0  0.00000000000E+00  0.00000000000E+00  0.45593999997E+02  0.45594000000E+02  0.51100000000E-03 0.  1.
         11   -1    0    0    0    0 -0.00000000000E+00 -0.00000000000E+00 -0.45593999997E+02  0.45594000000E+02  0.51100000000E-03 0. -1.
    9900012    2    1    2    0    0 -0.32493554488E+01 -0.17707386052E+02  0.51544528120E+01  0.72461595769E+02  0.70000033186E+02 0.  0.
         12    1    1    2    0    0  0.32493554488E+01  0.17707386052E+02 -0.51544528120E+01  0.18726404231E+02  0.00000000000E+00 0. -1.
         11    1    3    3    0    0 -0.15669029995E+02  0.41028535140E+01  0.21184918223E+02  0.26667445853E+02  0.51100000000E-03 0.  1.
        -11    1    3    3    0    0  0.33671211138E+01  0.76848541070E+01  0.37021070535E+01  0.91706098018E+01  0.51100000000E-03 0. -1.
         12    1    3    3    0    0  0.90525534322E+01 -0.29495093673E+02 -0.19732572465E+02  0.36623540114E+02  0.00000000000E+00 0. -1.
</event>
<event>
 7    1  0.2976321E-013  0.7246125E+02  0.7816164E-02  0.1226709E+00
        -11   -1    0    0    0    0  0.00000000000E+00  0.00000000000E+00  0.45593999997E+02  0.45594000000E+02  0.51100000000E-03 0.  1.
         11   -1    0    0    0    0 -0.00000000000E+00 -0.00000000000E+00 -0.45593999997E+02  0.45594000000E+02  0.51100000000E-03 0. -1.
    9900012    2    1    2    0    0 -0.64064985983E+01 -0.13424230628E+02 -0.11377086806E+02  0.72461246505E+02  0.69999578203E+02 0.  0.
         12    1    1    2    0    0  0.64064985983E+01  0.13424230628E+02  0.11377086806E+02  0.18726753495E+02  0.00000000000E+00 0. -1.
         11    1    3    3    0    0  0.92814861001E+01 -0.51382572070E+01 -0.32740970294E+02  0.34416839010E+02  0.51100000000E-03 0. -1.
        -11    1    3    3    0    0  0.72287771178E+01 -0.34687197983E+01  0.63406558102E+01  0.10222091372E+02  0.51100000000E-03 0.  1.
        -12    1    3    3    0    0 -0.22916761816E+02 -0.48172536230E+01  0.15023227678E+02  0.27822316123E+02  0.00000000000E+00 0.  1.
</event>
<event>
 7    1  0.2976321E-013  0.7246154E+02  0.7816164E-02  0.1226708E+00
        -11   -1    0    0    0    0  0.00000000000E+00  0.00000000000E+00  0.45593999997E+02  0.45594000000E+02  0.51100000000E-03 0.  1.
         11   -1    0    0    0    0 -0.00000000000E+00 -0.00000000000E+00 -0.45593999997E+02  0.45594000000E+02  0.51100000000E-03 0. -1.
    9900012    2    1    2    0    0  0.26210522630E+01 -0.33260330413E+01  0.18241374335E+02  0.72461544159E+02  0.69999965953E+02 0.  0.
         12    1    1    2    0    0 -0.26210522630E+01  0.33260330413E+01 -0.18241374335E+02  0.18726455841E+02  0.00000000000E+00 0. -1.
         11    1    3    3    0    0 -0.63175660403E+01 -0.98864800266E+01  0.80813183088E+00  0.11760408382E+02  0.51100000000E-03 0. -1.
        -11    1    3    3    0    0 -0.11813117863E+02 -0.16473000659E+02  0.21363608775E+02  0.29450183098E+02  0.51100000000E-03 0.  1.
         12    1    3    3    0    0  0.20751736167E+02  0.23033447644E+02 -0.39303662706E+01  0.31250952679E+02  0.00000000000E+00 0. -1.
</event>
<event>
 7    1  0.4049621E-013  0.7246159E+02  0.7816164E-02  0.1226708E+00
        -11   -1    0    0    0    0  0.00000000000E+00  0.00000000000E+00  0.45593999997E+02  0.45594000000E+02  0.51100000000E-03 0.  1.
         11   -1    0    0    0    0 -0.00000000000E+00 -0.00000000000E+00 -0.45593999997E+02  0.45594000000E+02  0.51100000000E-03 0. -1.
    9900012    2    1    2    0    0 -0.12907052213E+02 -0.13531165177E+02  0.99699918612E+00  0.72461589900E+02  0.70000025540E+02 0.  0.
         12    1    1    2    0    0  0.12907052213E+02  0.13531165177E+02 -0.99699918612E+00  0.18726410100E+02  0.00000000000E+00 0. -1.
         11    1    3    3    0    0  0.42292735013E+01 -0.16075047914E+02 -0.17195887299E+02  0.23916363855E+02  0.51100000000E-03 0. -1.
        -11    1    3    3    0    0  0.70765775325E+01 -0.13119600382E+02  0.11789741578E+02  0.19005259022E+02  0.51100000000E-03 0.  1.
        -12    1    3    3    0    0 -0.24212903246E+02  0.15663483119E+02  0.64031449067E+01  0.29539967023E+02  0.00000000000E+00 0.  1.
</event>
<event>
 7    1  0.2976321E-013  0.7246161E+02  0.7816164E-02  0.1226708E+00
        -11   -1    0    0    0    0  0.00000000000E+00  0.00000000000E+00  0.45593999997E+02  0.45594000000E+02  0.51100000000E-03 0. -1.
         11   -1    0    0    0    0 -0.00000000000E+00 -0.00000000000E+00 -0.45593999997E+02  0.45594000000E+02  0.51100000000E-03 0.  1.
    9900012    2    1    2    0    0  0.76491738563E+01 -0.12034954576E+02 -0.12137864398E+02  0.72461608344E+02  0.70000049567E+02 0.  0.
         12    1    1    2    0    0 -0.76491738563E+01  0.12034954576E+02  0.12137864398E+02  0.18726391656E+02  0.00000000000E+00 0. -1.
         11    1    3    3    0    0 -0.11962269825E+01 -0.15427094549E+01  0.82821665171E+01  0.85091241579E+01  0.51100000000E-03 0. -1.
        -11    1    3    3    0    0 -0.17740194123E+01  0.21689501819E+02  0.40722955983E+01  0.22139675376E+02  0.51100000000E-03 0.  1.
         12    1    3    3    0    0  0.10619420251E+02 -0.32181746940E+02 -0.24492326513E+02  0.41812808810E+02  0.00000000000E+00 0. -1.
</event>
<event>
 7    1  0.2976321E-013  0.7246195E+02  0.7816164E-02  0.1226707E+00
        -11   -1    0    0    0    0  0.00000000000E+00  0.00000000000E+00  0.45593999997E+02  0.45594000000E+02  0.51100000000E-03 0. -1.
         11   -1    0    0    0    0 -0.00000000000E+00 -0.00000000000E+00 -0.45593999997E+02  0.45594000000E+02  0.51100000000E-03 0.  1.
    9900012    2    1    2    0    0 -0.47753515125E+01  0.96582004768E+01 -0.15316012457E+02  0.72461947130E+02  0.70000490897E+02 0.  0.
         12    1    1    2    0    0  0.47753515125E+01 -0.96582004768E+01  0.15316012457E+02  0.18726052870E+02  0.00000000000E+00 0. -1.
         11    1    3    3    0    0  0.52670136680E+00 -0.31840476061E+01  0.11542109380E+02  0.11984818008E+02  0.51100000000E-03 0. -1.
        -11    1    3    3    0    0 -0.24913680300E+02  0.20224559280E+02 -0.22173042084E+02  0.39004718429E+02  0.51100000000E-03 0.  1.
         12    1    3    3    0    0  0.19611627421E+02 -0.73823111971E+01 -0.46850797523E+01  0.21472410693E+02  0.00000000000E+00 0. -1.
</event>
<event>
 7    1  0.2976321E-013  0.7246158E+02  0.7816164E-02  0.1226708E+00
        -11   -1    0    0    0    0  0.00000000000E+00  0.00000000000E+00  0.45593999997E+02  0.45594000000E+02  0.51100000000E-03 0. -1.
         11   -1    0    0    0    0 -0.00000000000E+00 -0.00000000000E+00 -0.45593999997E+02  0.45594000000E+02  0.51100000000E-03 0.  1.
    9900012    2    1    2    0    0 -0.19130534006E+01 -0.18526898198E+02 -0.19423947366E+01  0.72461584768E+02  0.70000018854E+02 0.  0.
         12    1    1    2    0    0  0.19130534006E+01  0.18526898198E+02  0.19423947366E+01  0.18726415232E+02  0.00000000000E+00 0. -1.
         11    1    3    3    0    0  0.17736241904E+02  0.73908129492E+01 -0.89327942153E+01  0.21189459778E+02  0.51100000000E-03 0. -1.
        -11    1    3    3    0    0  0.74260434319E+00  0.45742634984E+01  0.13270291369E+02  0.14056172347E+02  0.51100000000E-03 0.  1.
         12    1    3    3    0    0 -0.20391899647E+02 -0.30491974645E+02 -0.62798918901E+01  0.37215952643E+02  0.00000000000E+00 0. -1.
</event>
<event>
 7    1  0.2976321E-013  0.7246159E+02  0.7816164E-02  0.1226708E+00
        -11   -1    0    0    0    0  0.00000000000E+00  0.00000000000E+00  0.45593999997E+02  0.45594000000E+02  0.51100000000E-03 0.  1.
         11   -1    0    0    0    0 -0.00000000000E+00 -0.00000000000E+00 -0.45593999997E+02  0.45594000000E+02  0.51100000000E-03 0. -1.
    9900012    2    1    2    0    0  0.10773084444E+01 -0.10874840513E+02  0.15207097399E+02  0.72461586543E+02  0.70000021167E+02 0.  0.
         12    1    1    2    0    0 -0.10773084444E+01  0.10874840513E+02 -0.15207097399E+02  0.18726413457E+02  0.00000000000E+00 0. -1.
         11    1    3    3    0    0 -0.53300841114E+01  0.62544946086E+00  0.81122328160E+01  0.97267314749E+01  0.51100000000E-03 0. -1.
        -11    1    3    3    0    0  0.27200447260E+02  0.85886601224E+01  0.15712695166E+02  0.32565598467E+02  0.51100000000E-03 0.  1.
         12    1    3    3    0    0 -0.20793054704E+02 -0.20088950097E+02 -0.86178305832E+01  0.30169256601E+02  0.00000000000E+00 0. -1.
</event>
<event>
 7    1  0.2976321E-013  0.7246157E+02  0.7816164E-02  0.1226708E+00
        -11   -1    0    0    0    0  0.00000000000E+00  0.00000000000E+00  0.45593999997E+02  0.45594000000E+02  0.51100000000E-03 0.  1.
         11   -1    0    0    0    0 -0.00000000000E+00 -0.00000000000E+00 -0.45593999997E+02  0.45594000000E+02  0.51100000000E-03 0. -1.
    9900012    2    1    2    0    0  0.18408536740E+02 -0.14724267819E+01 -0.31043186313E+01  0.72461573227E+02  0.70000003820E+02 0.  0.
         12    1    1    2    0    0 -0.18408536740E+02  0.14724267819E+01  0.31043186313E+01  0.18726426773E+02  0.00000000000E+00 0. -1.
         11    1    3    3    0    0 -0.33895798635E+01  0.60665663837E+01  0.19657195385E+00  0.69520586975E+01  0.51100000000E-03 0. -1.
        -11    1    3    3    0    0 -0.73999751522E+01  0.10569929544E+02  0.20138816146E+02  0.23917670431E+02  0.51100000000E-03 0.  1.
         12    1    3    3    0    0  0.29198091756E+02 -0.18108922709E+02 -0.23439706731E+02  0.41591844098E+02  0.00000000000E+00 0. -1.
</event>
<event>
 7    1  0.2976321E-013  0.7246156E+02  0.7816164E-02  0.1226708E+00
        -11   -1    0    0    0    0  0.00000000000E+00  0.00000000000E+00  0.45593999997E+02  0.45594000000E+02  0.51100000000E-03 0. -1.
         11   -1    0    0    0    0 -0.00000000000E+00 -0.00000000000E+00 -0.45593999997E+02  0.45594000000E+02  0.51100000000E-03 0.  1.
    9900012    2    1    2    0    0 -0.28015962704E+01 -0.18441350073E+02  0.16575186015E+01  0.72461556075E+02  0.69999981477E+02 0.  0.
         12    1    1    2    0    0  0.28015962704E+01  0.18441350073E+02 -0.16575186015E+01  0.18726443925E+02  0.00000000000E+00 0. -1.
         11    1    3    3    0    0  0.59970294143E+01 -0.18490431217E+02  0.51558725309E+01  0.20110778956E+02  0.51100000000E-03 0. -1.
        -11    1    3    3    0    0  0.56341081748E+01 -0.10774755334E+02  0.19586015855E+02  0.23053211160E+02  0.51100000000E-03 0.  1.
        -12    1    3    3    0    0 -0.14432733860E+02  0.10823836479E+02 -0.23084369785E+02  0.29297565959E+02  0.00000000000E+00 0.  1.
</event>
<event>
 7    1  0.2976321E-013  0.7246163E+02  0.7816164E-02  0.1226708E+00
        -11   -1    0    0    0    0  0.00000000000E+00  0.00000000000E+00  0.45593999997E+02  0.45594000000E+02  0.51100000000E-03 0. -1.
         11   -1    0    0    0    0 -0.00000000000E+00 -0.00000000000E+00 -0.45593999997E+02  0.45594000000E+02  0.51100000000E-03 0.  1.
    9900012    2    1    2    0    0  0.18131551759E+02 -0.35223896071E+01 -0.30849154472E+01  0.72461625523E+02  0.70000071946E+02 0.  0.
         12    1    1    2    0    0 -0.18131551759E+02  0.35223896071E+01  0.30849154472E+01  0.18726374477E+02  0.00000000000E+00 0. -1.
         11    1    3    3    0    0  0.13745760289E+02 -0.86900317588E-01 -0.87748412781E+01  0.16308013898E+02  0.51100000000E-03 0. -1.
        -11    1    3    3    0    0  0.52515378845E+01 -0.29373076823E+02  0.44811066257E+01  0.30173442115E+02  0.51100000000E-03 0.  1.
         12    1    3    3    0    0 -0.86574641436E+00  0.25937587533E+02  0.12088192052E+01  0.25980169510E+02  0.00000000000E+00 0. -1.
</event>
<event>
 7    1  0.2976321E-013  0.7246140E+02  0.7816164E-02  0.1226708E+00
        -11   -1    0    0    0    0  0.00000000000E+00  0.00000000000E+00  0.45593999997E+02  0.45594000000E+02  0.51100000000E-03 0.  1.
         11   -1    0    0    0    0 -0.00000000000E+00 -0.00000000000E+00 -0.45593999997E+02  0.45594000000E+02  0.51100000000E-03 0. -1.
    9900012    2    1    2    0    0 -0.51196032894E+01 -0.14100029501E+02 -0.11210013043E+02  0.72461399610E+02  0.69999777651E+02 0.  0.
         12    1    1    2    0    0  0.51196032894E+01  0.14100029501E+02  0.11210013043E+02  0.18726600390E+02  0.00000000000E+00 0. -1.
         11    1    3    3    0    0 -0.11814364718E+02 -0.88110099795E+01 -0.16190625976E+01  0.14826816061E+02  0.51100000000E-03 0. -1.
        -11    1    3    3    0    0 -0.21892434999E+02 -0.65042752945E+01 -0.16529436314E+02  0.28192314066E+02  0.51100000000E-03 0.  1.
         12    1    3    3    0    0  0.28587196427E+02  0.12152557733E+01  0.69384858688E+01  0.29442269483E+02  0.00000000000E+00 0. -1.
</event>
<event>
 7    1  0.2976321E-013  0.7246156E+02  0.7816164E-02  0.1226708E+00
        -11   -1    0    0    0    0  0.00000000000E+00  0.00000000000E+00  0.45593999997E+02  0.45594000000E+02  0.51100000000E-03 0.  1.
         11   -1    0    0    0    0 -0.00000000000E+00 -0.00000000000E+00 -0.45593999997E+02  0.45594000000E+02  0.51100000000E-03 0. -1.
    9900012    2    1    2    0    0 -0.10159533236E+02  0.15293662772E+02  0.36833703080E+01  0.72461562715E+02  0.69999990127E+02 0.  0.
         12    1    1    2    0    0  0.10159533236E+02 -0.15293662772E+02 -0.36833703080E+01  0.18726437285E+02  0.00000000000E+00 0. -1.
         11    1    3    3    0    0 -0.20854422422E+02 -0.10212331316E+02  0.10503809150E+02  0.25485852005E+02  0.51100000000E-03 0. -1.
        -11    1    3    3    0    0 -0.67679732404E+01 -0.22073501442E+01 -0.11861429635E+02  0.13833704120E+02  0.51100000000E-03 0.  1.
        -12    1    3    3    0    0  0.17462862427E+02  0.27713344232E+02  0.50409907922E+01  0.33142006591E+02  0.00000000000E+00 0.  1.
</event>
<event>
 7    1  0.2976321E-013  0.7246158E+02  0.7816164E-02  0.1226708E+00
        -11   -1    0    0    0    0  0.00000000000E+00  0.00000000000E+00  0.45593999997E+02  0.45594000000E+02  0.51100000000E-03 0. -1.
         11   -1    0    0    0    0 -0.00000000000E+00 -0.00000000000E+00 -0.45593999997E+02  0.45594000000E+02  0.51100000000E-03 0.  1.
    9900012    2    1    2    0    0 -0.73527298869E+01 -0.16943578603E+02  0.30872557921E+01  0.72461584407E+02  0.70000018384E+02 0.  0.
         12    1    1    2    0    0  0.73527298869E+01  0.16943578603E+02 -0.30872557921E+01  0.18726415593E+02  0.00000000000E+00 0. -1.
         11    1    3    3    0    0 -0.61030673187E+01 -0.10329948147E+02  0.62389855409E+01  0.13523320607E+02  0.51100000000E-03 0. -1.
        -11    1    3    3    0    0 -0.23304765964E+02 -0.21771928471E+02 -0.41280967960E+01  0.32158516281E+02  0.51100000000E-03 0.  1.
         12    1    3    3    0    0  0.22055103396E+02  0.15158298016E+02  0.97636704718E+00  0.26779747518E+02  0.00000000000E+00 0. -1.
</event>
<event>
 7    1  0.2976321E-013  0.7246228E+02  0.7816164E-02  0.1226706E+00
        -11   -1    0    0    0    0  0.00000000000E+00  0.00000000000E+00  0.45593999997E+02  0.45594000000E+02  0.51100000000E-03 0.  1.
         11   -1    0    0    0    0 -0.00000000000E+00 -0.00000000000E+00 -0.45593999997E+02  0.45594000000E+02  0.51100000000E-03 0. -1.
    9900012    2    1    2    0    0 -0.14274144849E+02  0.93497615435E+01  0.77125419801E+01  0.72462280898E+02  0.70000925687E+02 0.  0.
         12    1    1    2    0    0  0.14274144849E+02 -0.93497615435E+01 -0.77125419801E+01  0.18725719102E+02  0.00000000000E+00 0. -1.
         11    1    3    3    0    0 -0.40424657206E+01 -0.55204793721E+01 -0.34070054666E+01  0.76436187837E+01  0.51100000000E-03 0. -1.
        -11    1    3    3    0    0 -0.89821327141E+00  0.27910905694E+02 -0.16823065734E+02  0.32601242072E+02  0.51100000000E-03 0.  1.
         12    1    3    3    0    0 -0.93334658575E+01 -0.13040664778E+02  0.27942613181E+02  0.32217420041E+02  0.00000000000E+00 0. -1.
</event>
<event>
 7    1  0.2976321E-013  0.7246159E+02  0.7816164E-02  0.1226708E+00
        -11   -1    0    0    0    0  0.00000000000E+00  0.00000000000E+00  0.45593999997E+02  0.45594000000E+02  0.51100000000E-03 0. -1.
         11   -1    0    0    0    0 -0.00000000000E+00 -0.00000000000E+00 -0.45593999997E+02  0.45594000000E+02  0.51100000000E-03 0.  1.
    9900012    2    1    2    0    0  0.52673640951E+01  0.11331452805E+02 -0.13947450129E+02  0.72461593183E+02  0.70000029817E+02 0.  0.
         12    1    1    2    0    0 -0.52673640951E+01 -0.11331452805E+02  0.13947450129E+02  0.18726406817E+02  0.00000000000E+00 0. -1.
         11    1    3    3    0    0 -0.33219928010E+01  0.76207202688E+01 -0.48628367984E+01  0.96311056257E+01  0.51100000000E-03 0. -1.
        -11    1    3    3    0    0 -0.36503272786E+01  0.10594979380E+02 -0.33135995736E+02  0.34979603928E+02  0.51100000000E-03 0.  1.
         12    1    3    3    0    0  0.12239684175E+02 -0.68842468443E+01  0.24051382406E+02  0.27850883629E+02  0.00000000000E+00 0. -1.
</event>
<event>
 7    1  0.3453845E-013  0.7246157E+02  0.7816164E-02  0.1226708E+00
        -11   -1    0    0    0    0  0.00000000000E+00  0.00000000000E+00  0.45593999997E+02  0.45594000000E+02  0.51100000000E-03 0. -1.
         11   -1    0    0    0    0 -0.00000000000E+00 -0.00000000000E+00 -0.45593999997E+02  0.45594000000E+02  0.51100000000E-03 0.  1.
    9900012    2    1    2    0    0  0.13649613765E+02 -0.50606160967E+01 -0.11779535269E+02  0.72461568350E+02  0.69999997467E+02 0.  0.
         12    1    1    2    0    0 -0.13649613765E+02  0.50606160967E+01  0.11779535269E+02  0.18726431650E+02  0.00000000000E+00 0. -1.
         11    1    3    3    0    0  0.21951078410E+02 -0.18843123385E+02  0.53630027984E+00  0.28934421724E+02  0.51100000000E-03 0. -1.
        -11    1    3    3    0    0 -0.75993676434E+01 -0.88356086211E+01 -0.16811460000E+02  0.20455892937E+02  0.51100000000E-03 0.  1.
        -12    1    3    3    0    0 -0.70209700130E+00  0.22618115910E+02  0.44956244514E+01  0.23071253688E+02  0.00000000000E+00 0.  1.
</event>
<event>
 7    1  0.2976321E-013  0.7246156E+02  0.7816164E-02  0.1226708E+00
        -11   -1    0    0    0    0  0.00000000000E+00  0.00000000000E+00  0.45593999997E+02  0.45594000000E+02  0.51100000000E-03 0.  1.
         11   -1    0    0    0    0 -0.00000000000E+00 -0.00000000000E+00 -0.45593999997E+02  0.45594000000E+02  0.51100000000E-03 0. -1.
    9900012    2    1    2    0    0  0.86419757288E+01  0.15450710417E+02 -0.61050159158E+01  0.72461563707E+02  0.69999991419E+02 0.  0.
         12    1    1    2    0    0 -0.86419757288E+01 -0.15450710417E+02  0.61050159158E+01  0.18726436293E+02  0.00000000000E+00 0. -1.
         11    1    3    3    0    0  0.19726161529E+02 -0.95834477370E+01  0.15418026985E+02  0.26808197917E+02  0.51100000000E-03 0. -1.
        -11    1    3    3    0    0 -0.53158009915E+01 -0.58105922201E+01 -0.51772264552E+00  0.78923227968E+01  0.51100000000E-03 0.  1.
         12    1    3    3    0    0 -0.57683848085E+01  0.30844750374E+02 -0.21005320255E+02  0.37761042994E+02  0.00000000000E+00 0. -1.
</event>
<event>
 7    1  0.2976321E-013  0.7246154E+02  0.7816164E-02  0.1226708E+00
        -11   -1    0    0    0    0  0.00000000000E+00  0.00000000000E+00  0.45593999997E+02  0.45594000000E+02  0.51100000000E-03 0. -1.
         11   -1    0    0    0    0 -0.00000000000E+00 -0.00000000000E+00 -0.45593999997E+02  0.45594000000E+02  0.51100000000E-03 0.  1.
    9900012    2    1    2    0    0 -0.14135328532E+02 -0.55050163134E+01 -0.10980324017E+02  0.72461541903E+02  0.69999963016E+02 0.  0.
         12    1    1    2    0    0  0.14135328532E+02  0.55050163134E+01  0.10980324017E+02  0.18726458097E+02  0.00000000000E+00 0. -1.
         11    1    3    3    0    0 -0.11764652321E+02  0.11046890789E+02 -0.85767798951E+00  0.16160954555E+02  0.51100000000E-03 0. -1.
        -11    1    3    3    0    0 -0.20750907771E+02  0.94231881652E+01 -0.88699653467E+01  0.24455529723E+02  0.51100000000E-03 0.  1.
         12    1    3    3    0    0  0.18380231559E+02 -0.25975095267E+02 -0.12526806807E+01  0.31845057626E+02  0.00000000000E+00 0. -1.
</event>
<event>
 7    1  0.3922107E-013  0.7246151E+02  0.7816164E-02  0.1226708E+00
        -11   -1    0    0    0    0  0.00000000000E+00  0.00000000000E+00  0.45593999997E+02  0.45594000000E+02  0.51100000000E-03 0.  1.
         11   -1    0    0    0    0 -0.00000000000E+00 -0.00000000000E+00 -0.45593999997E+02  0.45594000000E+02  0.51100000000E-03 0. -1.
    9900012    2    1    2    0    0  0.93028055152E+01  0.15515724987E+02  0.48375290810E+01  0.72461505402E+02  0.69999915466E+02 0.  0.
         12    1    1    2    0    0 -0.93028055152E+01 -0.15515724987E+02 -0.48375290810E+01  0.18726494598E+02  0.00000000000E+00 0. -1.
         11    1    3    3    0    0 -0.77324740386E+01  0.11712380680E+02 -0.22850095312E+02  0.26816000298E+02  0.51100000000E-03 0. -1.
        -11    1    3    3    0    0  0.14368143467E+02 -0.63396503352E+01 -0.35211577935E+00  0.15708554957E+02  0.51100000000E-03 0.  1.
        -12    1    3    3    0    0  0.26671360871E+01  0.10142994642E+02  0.28039740172E+02  0.29936950147E+02  0.00000000000E+00 0.  1.
</event>
<event>
 7    1  0.2976321E-013  0.7246158E+02  0.7816164E-02  0.1226708E+00
        -11   -1    0    0    0    0  0.00000000000E+00  0.00000000000E+00  0.45593999997E+02  0.45594000000E+02  0.51100000000E-03 0.  1.
         11   -1    0    0    0    0 -0.00000000000E+00 -0.00000000000E+00 -0.45593999997E+02  0.45594000000E+02  0.51100000000E-03 0. -1.
    9900012    2    1    2    0    0  0.14409618347E+02  0.11867805935E+02  0.14821433367E+01  0.72461583699E+02  0.70000017462E+02 0.  0.
         12    1    1    2    0    0 -0.14409618347E+02 -0.11867805935E+02 -0.14821433367E+01  0.18726416301E+02  0.00000000000E+00 0. -1.
         11    1    3    3    0    0  0.17918049032E+02  0.13866234227E+02  0.21871387821E+01  0.22762084901E+02  0.51100000000E-03 0.  1.
        -11    1    3    3    0    0  0.12345052315E+02 -0.20819318845E+02  0.43116367806E+01  0.24585250982E+02  0.51100000000E-03 0. -1.
         12    1    3    3    0    0 -0.15853483000E+02  0.18820890553E+02 -0.50166322260E+01  0.25114247816E+02  0.00000000000E+00 0. -1.
</event>
<event>
 7    1  0.2976321E-013  0.7246160E+02  0.7816164E-02  0.1226708E+00
        -11   -1    0    0    0    0  0.00000000000E+00  0.00000000000E+00  0.45593999997E+02  0.45594000000E+02  0.51100000000E-03 0.  1.
         11   -1    0    0    0    0 -0.00000000000E+00 -0.00000000000E+00 -0.45593999997E+02  0.45594000000E+02  0.51100000000E-03 0. -1.
    9900012    2    1    2    0    0  0.10058143898E+02  0.10912786351E+02  0.11420284091E+02  0.72461600096E+02  0.70000038823E+02 0.  0.
         12    1    1    2    0    0 -0.10058143898E+02 -0.10912786351E+02 -0.11420284091E+02  0.18726399904E+02  0.00000000000E+00 0. -1.
         11    1    3    3    0    0 -0.54352191514E+00 -0.10308130170E+02 -0.19239117488E+02  0.21833382826E+02  0.51100000000E-03 0. -1.
        -11    1    3    3    0    0  0.10433072126E+02  0.20021981485E+01 -0.37078120578E+01  0.11251918144E+02  0.51100000000E-03 0.  1.
        -12    1    3    3    0    0  0.16859368708E+00  0.19218718373E+02  0.34367213637E+02  0.39376299126E+02  0.00000000000E+00 0.  1.
</event>
<event>
 7    1  0.2976321E-013  0.7246189E+02  0.7816164E-02  0.1226707E+00
        -11   -1    0    0    0    0  0.00000000000E+00  0.00000000000E+00  0.45593999997E+02  0.45594000000E+02  0.51100000000E-03 0.  1.
         11   -1    0    0    0    0 -0.00000000000E+00 -0.00000000000E+00 -0.45593999997E+02  0.45594000000E+02  0.51100000000E-03 0. -1.
    9900012    2    1    2    0    0 -0.18714239762E+02  0.20531749579E+00  0.63412614416E+00  0.72461894129E+02  0.70000421853E+02 0.  0.
         12    1    1    2    0    0  0.18714239762E+02 -0.20531749579E+00 -0.63412614416E+00  0.18726105871E+02  0.00000000000E+00 0. -1.
         11    1    3    3    0    0  0.10284616308E+02  0.13217044102E+02 -0.84685080752E+01  0.18766438572E+02  0.51100000000E-03 0. -1.
        -11    1    3    3    0    0  0.15007033704E+01  0.66251307334E+01  0.15443135220E+02  0.16871126030E+02  0.51100000000E-03 0.  1.
        -12    1    3    3    0    0 -0.30499559440E+02 -0.19636857340E+02 -0.63405010005E+01  0.36824329527E+02  0.00000000000E+00 0.  1.
</event>
<event>
 7    1  0.2976321E-013  0.7246157E+02  0.7816164E-02  0.1226708E+00
        -11   -1    0    0    0    0  0.00000000000E+00  0.00000000000E+00  0.45593999997E+02  0.45594000000E+02  0.51100000000E-03 0. -1.
         11   -1    0    0    0    0 -0.00000000000E+00 -0.00000000000E+00 -0.45593999997E+02  0.45594000000E+02  0.51100000000E-03 0.  1.
    9900012    2    1    2    0    0 -0.12000818005E+00  0.93848634423E+01 -0.16204599518E+02  0.72461571902E+02  0.70000002094E+02 0.  0.
         12    1    1    2    0    0  0.12000818005E+00 -0.93848634423E+01  0.16204599518E+02  0.18726428098E+02  0.00000000000E+00 0. -1.
         11    1    3    3    0    0  0.15887825026E+00  0.31057908294E+02 -0.82470259946E+00  0.31069262053E+02  0.51100000000E-03 0. -1.
        -11    1    3    3    0    0 -0.12284954422E+02  0.93010503028E+00 -0.19005762864E+01  0.12465848989E+02  0.51100000000E-03 0.  1.
         12    1    3    3    0    0  0.12006067992E+02 -0.22603149882E+02 -0.13479320632E+02  0.28926460860E+02  0.00000000000E+00 0. -1.
</event>
<event>
 7    1  0.2976321E-013  0.7246157E+02  0.7816164E-02  0.1226708E+00
        -11   -1    0    0    0    0  0.00000000000E+00  0.00000000000E+00  0.45593999997E+02  0.45594000000E+02  0.51100000000E-03 0. -1.
         11   -1    0    0    0    0 -0.00000000000E+00 -0.00000000000E+00 -0.45593999997E+02  0.45594000000E+02  0.51100000000E-03 0.  1.
    9900012    2    1    2    0    0  0.12670597078E+02  0.11800085427E+02  0.71339319559E+01  0.72461573978E+02  0.70000004799E+02 0.  0.
         12    1    1    2    0    0 -0.12670597078E+02 -0.11800085427E+02 -0.71339319559E+01  0.18726426022E+02  0.00000000000E+00 0. -1.
         11    1    3    3    0    0  0.51988862299E+01  0.34801514141E+01 -0.20387848363E+01  0.65800087968E+01  0.51100000000E-03 0. -1.
        -11    1    3    3    0    0  0.31715040828E+01  0.46835869786E+00 -0.27726870940E+02  0.27911595627E+02  0.51100000000E-03 0.  1.
         12    1    3    3    0    0  0.43002067652E+01  0.78515753152E+01  0.36899587733E+02  0.37969969555E+02  0.00000000000E+00 0. -1.
</event>
<event>
 7    1  0.2976321E-013  0.7246160E+02  0.7816164E-02  0.1226708E+00
        -11   -1    0    0    0    0  0.00000000000E+00  0.00000000000E+00  0.45593999997E+02  0.45594000000E+02  0.51100000000E-03 0.  1.
         11   -1    0    0    0    0 -0.00000000000E+00 -0.00000000000E+00 -0.45593999997E+02  0.45594000000E+02  0.51100000000E-03 0. -1.
    9900012    2    1    2    0    0 -0.81772687925E+01  0.16534879924E+02  0.32261823348E+01  0.72461595341E+02  0.70000032628E+02 0.  0.
         12    1    1    2    0    0  0.81772687925E+01 -0.16534879924E+02 -0.32261823348E+01  0.18726404659E+02  0.00000000000E+00 0. -1.
         11    1    3    3    0    0 -0.89778937835E+01 -0.11442091636E+02 -0.11735311003E+02  0.18688005843E+02  0.51100000000E-03 0. -1.
        -11    1    3    3    0    0 -0.10676858634E+02  0.34585362680E+02  0.36918222134E+01  0.36383680044E+02  0.51100000000E-03 0.  1.
         12    1    3    3    0    0  0.11477483625E+02 -0.66083911200E+01  0.11269671125E+02  0.17389909454E+02  0.00000000000E+00 0. -1.
</event>
<event>
 7    1  0.2976321E-013  0.7246158E+02  0.7816164E-02  0.1226708E+00
        -11   -1    0    0    0    0  0.00000000000E+00  0.00000000000E+00  0.45593999997E+02  0.45594000000E+02  0.51100000000E-03 0.  1.
         11   -1    0    0    0    0 -0.00000000000E+00 -0.00000000000E+00 -0.45593999997E+02  0.45594000000E+02  0.51100000000E-03 0. -1.
    9900012    2    1    2    0    0  0.18208382370E+02 -0.14369901755E+01  0.41314476054E+01  0.72461575125E+02  0.70000006293E+02 0.  0.
         12    1    1    2    0    0 -0.18208382370E+02  0.14369901755E+01 -0.41314476054E+01  0.18726424875E+02  0.00000000000E+00 0. -1.
         11    1    3    3    0    0  0.74193567849E+00  0.24587229515E+01 -0.31517005390E+01  0.40655877376E+01  0.51100000000E-03 0. -1.
        -11    1    3    3    0    0 -0.18418078719E+02  0.17143303661E+02 -0.35502720014E+01  0.25411078601E+02  0.51100000000E-03 0.  1.
        -12    1    3    3    0    0  0.35884525410E+02 -0.21039016788E+02  0.10833420146E+02  0.42984908786E+02  0.00000000000E+00 0.  1.
</event>
<event>
 7    1  0.2976321E-013  0.7246173E+02  0.7816164E-02  0.1226708E+00
        -11   -1    0    0    0    0  0.00000000000E+00  0.00000000000E+00  0.45593999997E+02  0.45594000000E+02  0.51100000000E-03 0.  1.
         11   -1    0    0    0    0 -0.00000000000E+00 -0.00000000000E+00 -0.45593999997E+02  0.45594000000E+02  0.51100000000E-03 0. -1.
    9900012    2    1    2    0    0 -0.16801721748E+02 -0.31879065402E+01  0.76297092593E+01  0.72461733282E+02  0.70000212322E+02 0.  0.
         12    1    1    2    0    0  0.16801721748E+02  0.31879065402E+01 -0.76297092593E+01  0.18726266718E+02  0.00000000000E+00 0. -1.
         11    1    3    3    0    0 -0.87503277696E+01 -0.19412613398E+02 -0.17790208719E+02  0.27747239891E+02  0.51100000000E-03 0. -1.
        -11    1    3    3    0    0 -0.71927060040E+01 -0.78760410091E+01  0.15416922957E+01  0.10777005940E+02  0.51100000000E-03 0.  1.
        -12    1    3    3    0    0 -0.85868797395E+00  0.24100747867E+02  0.23878225682E+02  0.33937487452E+02  0.00000000000E+00 0.  1.
</event>
<event>
 7    1  0.2976321E-013  0.7246158E+02  0.7816164E-02  0.1226708E+00
        -11   -1    0    0    0    0  0.00000000000E+00  0.00000000000E+00  0.45593999997E+02  0.45594000000E+02  0.51100000000E-03 0.  1.
         11   -1    0    0    0    0 -0.00000000000E+00 -0.00000000000E+00 -0.45593999997E+02  0.45594000000E+02  0.51100000000E-03 0. -1.
    9900012    2    1    2    0    0 -0.47724274780E+01 -0.90876534718E+01  0.15662608102E+02  0.72461580102E+02  0.70000012776E+02 0.  0.
         12    1    1    2    0    0  0.47724274780E+01  0.90876534718E+01 -0.15662608102E+02  0.18726419898E+02  0.00000000000E+00 0. -1.
         11    1    3    3    0    0  0.23494470847E+00  0.44811455053E+01  0.34542565434E+01  0.56628396219E+01  0.51100000000E-03 0. -1.
        -11    1    3    3    0    0  0.21536642266E+02 -0.18455172534E+02  0.24182139799E+02  0.37271922930E+02  0.51100000000E-03 0.  1.
        -12    1    3    3    0    0 -0.26544014453E+02  0.48863735570E+01 -0.11973788241E+02  0.29526817550E+02  0.00000000000E+00 0.  1.
</event>
<event>
 7    1  0.2976321E-013  0.7246157E+02  0.7816164E-02  0.1226708E+00
        -11   -1    0    0    0    0  0.00000000000E+00  0.00000000000E+00  0.45593999997E+02  0.45594000000E+02  0.51100000000E-03 0.  1.
         11   -1    0    0    0    0 -0.00000000000E+00 -0.00000000000E+00 -0.45593999997E+02  0.45594000000E+02  0.51100000000E-03 0. -1.
    9900012    2    1    2    0    0  0.34292363756E+01  0.13467518651E+02 -0.12551715661E+02  0.72461567164E+02  0.69999995922E+02 0.  0.
         12    1    1    2    0    0 -0.34292363756E+01 -0.13467518651E+02  0.12551715661E+02  0.18726432836E+02  0.00000000000E+00 0. -1.
         11    1    3    3    0    0 -0.10352306054E+02  0.92505184340E+00 -0.13086358708E+02  0.16711635050E+02  0.51100000000E-03 0. -1.
        -11    1    3    3    0    0 -0.10459091900E+02  0.19008866989E+02  0.15383542904E+02  0.26596673103E+02  0.51100000000E-03 0.  1.
         12    1    3    3    0    0  0.24240634330E+02 -0.64664001814E+01 -0.14848899856E+02  0.29153259011E+02  0.00000000000E+00 0. -1.
</event>
<event>
 7    1  0.2976321E-013  0.7246154E+02  0.7816164E-02  0.1226708E+00
        -11   -1    0    0    0    0  0.00000000000E+00  0.00000000000E+00  0.45593999997E+02  0.45594000000E+02  0.51100000000E-03 0.  1.
         11   -1    0    0    0    0 -0.00000000000E+00 -0.00000000000E+00 -0.45593999997E+02  0.45594000000E+02  0.51100000000E-03 0. -1.
    9900012    2    1    2    0    0  0.89284089592E+01  0.46897989733E+01  0.15778772435E+02  0.72461538495E+02  0.69999958575E+02 0.  0.
         12    1    1    2    0    0 -0.89284089592E+01 -0.46897989733E+01 -0.15778772435E+02  0.18726461505E+02  0.00000000000E+00 0. -1.
         11    1    3    3    0    0  0.54725059400E+01  0.11858482514E+02 -0.67532438209E+01  0.14703000753E+02  0.51100000000E-03 0. -1.
        -11    1    3    3    0    0  0.22680073115E+02 -0.37556015960E+01 -0.54613190471E+01  0.23628716974E+02  0.51100000000E-03 0.  1.
         12    1    3    3    0    0 -0.19224170096E+02 -0.34130819444E+01  0.27993335303E+02  0.34129820767E+02  0.00000000000E+00 0. -1.
</event>
<event>
 7    1  0.2976321E-013  0.7246155E+02  0.7816164E-02  0.1226708E+00
        -11   -1    0    0    0    0  0.00000000000E+00  0.00000000000E+00  0.45593999997E+02  0.45594000000E+02  0.51100000000E-03 0.  1.
         11   -1    0    0    0    0 -0.00000000000E+00 -0.00000000000E+00 -0.45593999997E+02  0.45594000000E+02  0.51100000000E-03 0. -1.
    9900012    2    1    2    0    0 -0.11621187513E+02  0.12995047658E+02  0.68378765175E+01  0.72461552977E+02  0.69999977441E+02 0.  0.
         12    1    1    2    0    0  0.11621187513E+02 -0.12995047658E+02 -0.68378765175E+01  0.18726447023E+02  0.00000000000E+00 0. -1.
         11    1    3    3    0    0  0.11581969476E+02 -0.66849888960E+01 -0.11349553789E+02  0.17539768098E+02  0.51100000000E-03 0. -1.
        -11    1    3    3    0    0 -0.13261578003E+02 -0.11235953083E+02 -0.62226515712E+00  0.17392622200E+02  0.51100000000E-03 0.  1.
         12    1    3    3    0    0 -0.99415789854E+01  0.30915989636E+02  0.18809695464E+02  0.37529162678E+02  0.00000000000E+00 0. -1.
</event>
<event>
 7    1  0.2976321E-013  0.7246164E+02  0.7816164E-02  0.1226708E+00
        -11   -1    0    0    0    0  0.00000000000E+00  0.00000000000E+00  0.45593999997E+02  0.45594000000E+02  0.51100000000E-03 0.  1.
         11   -1    0    0    0    0 -0.00000000000E+00 -0.00000000000E+00 -0.45593999997E+02  0.45594000000E+02  0.51100000000E-03 0. -1.
    9900012    2    1    2    0    0  0.16335783303E+02  0.81822930734E+01  0.41071703823E+01  0.72461639312E+02  0.70000089908E+02 0.  0.
         12    1    1    2    0    0 -0.16335783303E+02 -0.81822930734E+01 -0.41071703823E+01  0.18726360688E+02  0.00000000000E+00 0. -1.
         11    1    3    3    0    0 -0.10855544661E+01 -0.47405560891E+01  0.20261284048E+01  0.52684435184E+01  0.51100000000E-03 0. -1.
        -11    1    3    3    0    0  0.37891130937E+02  0.14545807142E+02  0.14612327871E+02  0.43137436586E+02  0.51100000000E-03 0.  1.
         12    1    3    3    0    0 -0.20469793168E+02 -0.16229579794E+01 -0.12531285893E+02  0.24055759208E+02  0.00000000000E+00 0. -1.
</event>
<event>
 7    1  0.2976321E-013  0.7246157E+02  0.7816164E-02  0.1226708E+00
        -11   -1    0    0    0    0  0.00000000000E+00  0.00000000000E+00  0.45593999997E+02  0.45594000000E+02  0.51100000000E-03 0. -1.
         11   -1    0    0    0    0 -0.00000000000E+00 -0.00000000000E+00 -0.45593999997E+02  0.45594000000E+02  0.51100000000E-03 0.  1.
    9900012    2    1    2    0    0 -0.15031154123E+02 -0.10534789350E+02 -0.37097015378E+01  0.72461567707E+02  0.69999996629E+02 0.  0.
         12    1    1    2    0    0  0.15031154123E+02  0.10534789350E+02  0.37097015378E+01  0.18726432293E+02  0.00000000000E+00 0. -1.
         11    1    3    3    0    0 -0.13396196674E+02 -0.23180330397E+02  0.67991239312E+01  0.27622706043E+02  0.51100000000E-03 0. -1.
        -11    1    3    3    0    0  0.30325050871E+01 -0.10867190055E+02 -0.16632015219E+02  0.20097657507E+02  0.51100000000E-03 0.  1.
        -12    1    3    3    0    0 -0.46674625368E+01  0.23512731102E+02  0.61231897495E+01  0.24741204157E+02  0.00000000000E+00 0.  1.
</event>
<event>
 7    1  0.2976321E-013  0.7246157E+02  0.7816164E-02  0.1226708E+00
        -11   -1    0    0    0    0  0.00000000000E+00  0.00000000000E+00  0.45593999997E+02  0.45594000000E+02  0.51100000000E-03 0. -1.
         11   -1    0    0    0    0 -0.00000000000E+00 -0.00000000000E+00 -0.45593999997E+02  0.45594000000E+02  0.51100000000E-03 0.  1.
    9900012    2    1    2    0    0  0.18386070584E+02  0.31552089351E+01  0.16359123676E+01  0.72461570970E+02  0.70000000880E+02 0.  0.
         12    1    1    2    0    0 -0.18386070584E+02 -0.31552089351E+01 -0.16359123676E+01  0.18726429030E+02  0.00000000000E+00 0. -1.
         11    1    3    3    0    0  0.46533689012E+01  0.88731172591E+01 -0.29889427008E+01  0.10455612405E+02  0.51100000000E-03 0. -1.
        -11    1    3    3    0    0 -0.72614895743E+01  0.15291857607E+02 -0.17969454898E+02  0.24687475560E+02  0.51100000000E-03 0.  1.
         12    1    3    3    0    0  0.20994191257E+02 -0.21009765931E+02  0.22594309967E+02  0.37318483006E+02  0.00000000000E+00 0. -1.
</event>
<event>
 7    1  0.2976321E-013  0.7246159E+02  0.7816164E-02  0.1226708E+00
        -11   -1    0    0    0    0  0.00000000000E+00  0.00000000000E+00  0.45593999997E+02  0.45594000000E+02  0.51100000000E-03 0. -1.
         11   -1    0    0    0    0 -0.00000000000E+00 -0.00000000000E+00 -0.45593999997E+02  0.45594000000E+02  0.51100000000E-03 0.  1.
    9900012    2    1    2    0    0 -0.21636222202E+01  0.22450937812E+01 -0.18465012051E+02  0.72461591448E+02  0.70000027557E+02 0.  0.
         12    1    1    2    0    0  0.21636222202E+01 -0.22450937812E+01  0.18465012051E+02  0.18726408552E+02  0.00000000000E+00 0. -1.
         11    1    3    3    0    0 -0.14424036298E+02 -0.35099058131E+01 -0.13706939293E+02  0.20205257904E+02  0.51100000000E-03 0. -1.
        -11    1    3    3    0    0 -0.82240324970E+01  0.10532672371E+02 -0.21539531507E+02  0.25348043625E+02  0.51100000000E-03 0.  1.
        -12    1    3    3    0    0  0.20484446574E+02 -0.47776727770E+01  0.16781458749E+02  0.26908289919E+02  0.00000000000E+00 0.  1.
</event>
<event>
 7    1  0.2976321E-013  0.7246152E+02  0.7816164E-02  0.1226708E+00
        -11   -1    0    0    0    0  0.00000000000E+00  0.00000000000E+00  0.45593999997E+02  0.45594000000E+02  0.51100000000E-03 0. -1.
         11   -1    0    0    0    0 -0.00000000000E+00 -0.00000000000E+00 -0.45593999997E+02  0.45594000000E+02  0.51100000000E-03 0.  1.
    9900012    2    1    2    0    0  0.82926385918E+01  0.15398331617E+02  0.66936201862E+01  0.72461520817E+02  0.69999935547E+02 0.  0.
         12    1    1    2    0    0 -0.82926385918E+01 -0.15398331617E+02 -0.66936201862E+01  0.18726479183E+02  0.00000000000E+00 0. -1.
         11    1    3    3    0    0 -0.91136912958E+01  0.66065952223E+01 -0.14193840176E+02  0.18115506305E+02  0.51100000000E-03 0. -1.
        -11    1    3    3    0    0 -0.60831860259E+00  0.24050201286E+02  0.20531218956E+01  0.24145342060E+02  0.51100000000E-03 0.  1.
         12    1    3    3    0    0  0.18014648490E+02 -0.15258464892E+02  0.18834338467E+02  0.30200672452E+02  0.00000000000E+00 0. -1.
</event>
<event>
 7    1  0.2976321E-013  0.7246155E+02  0.7816164E-02  0.1226708E+00
        -11   -1    0    0    0    0  0.00000000000E+00  0.00000000000E+00  0.45593999997E+02  0.45594000000E+02  0.51100000000E-03 0.  1.
         11   -1    0    0    0    0 -0.00000000000E+00 -0.00000000000E+00 -0.45593999997E+02  0.45594000000E+02  0.51100000000E-03 0. -1.
    9900012    2    1    2    0    0  0.14553502556E+02 -0.11557757778E+02 -0.23008340797E+01  0.72461547080E+02  0.69999969759E+02 0.  0.
         12    1    1    2    0    0 -0.14553502556E+02  0.11557757778E+02  0.23008340797E+01  0.18726452920E+02  0.00000000000E+00 0. -1.
         11    1    3    3    0    0  0.11196333767E+02 -0.98230019867E+01  0.35473619034E+01  0.15311206177E+02  0.51100000000E-03 0. -1.
        -11    1    3    3    0    0 -0.52031193346E+01 -0.35956910472E+01  0.24634706114E+02  0.25433642887E+02  0.51100000000E-03 0.  1.
         12    1    3    3    0    0  0.85602881229E+01  0.18609352556E+01 -0.30482902097E+02  0.31716698016E+02  0.00000000000E+00 0. -1.
</event>
<event>
 7    1  0.2976321E-013  0.7246155E+02  0.7816164E-02  0.1226708E+00
        -11   -1    0    0    0    0  0.00000000000E+00  0.00000000000E+00  0.45593999997E+02  0.45594000000E+02  0.51100000000E-03 0.  1.
         11   -1    0    0    0    0 -0.00000000000E+00 -0.00000000000E+00 -0.45593999997E+02  0.45594000000E+02  0.51100000000E-03 0. -1.
    9900012    2    1    2    0    0 -0.13647964832E+02  0.86115819286E+01  0.95001862923E+01  0.72461552740E+02  0.69999977133E+02 0.  0.
         12    1    1    2    0    0  0.13647964832E+02 -0.86115819286E+01 -0.95001862923E+01  0.18726447260E+02  0.00000000000E+00 0. -1.
         11    1    3    3    0    0 -0.47831210971E+01 -0.12926285248E+02 -0.72954044020E+01  0.15594551080E+02  0.51100000000E-03 0. -1.
        -11    1    3    3    0    0 -0.23134681051E+01 -0.58572189967E+00  0.30125613597E+02  0.30219990067E+02  0.51100000000E-03 0.  1.
         12    1    3    3    0    0 -0.65513756302E+01  0.22123589076E+02 -0.13330022903E+02  0.26647011593E+02  0.00000000000E+00 0. -1.
</event>
<event>
 7    1  0.2976321E-013  0.7246157E+02  0.7816164E-02  0.1226708E+00
        -11   -1    0    0    0    0  0.00000000000E+00  0.00000000000E+00  0.45593999997E+02  0.45594000000E+02  0.51100000000E-03 0.  1.
         11   -1    0    0    0    0 -0.00000000000E+00 -0.00000000000E+00 -0.45593999997E+02  0.45594000000E+02  0.51100000000E-03 0. -1.
    9900012    2    1    2    0    0  0.15659280329E+02 -0.49961830032E+01  0.89724195129E+01  0.72461569028E+02  0.69999998350E+02 0.  0.
         12    1    1    2    0    0 -0.15659280329E+02  0.49961830032E+01 -0.89724195129E+01  0.18726430972E+02  0.00000000000E+00 0. -1.
         11    1    3    3    0    0  0.47514549096E+01  0.98996617081E+01 -0.15300258062E+02  0.18832884078E+02  0.51100000000E-03 0. -1.
        -11    1    3    3    0    0  0.12183678584E+02  0.93119918165E+01  0.25054243316E+02  0.29374654446E+02  0.51100000000E-03 0.  1.
         12    1    3    3    0    0 -0.12758531646E+01 -0.24207836528E+02 -0.78156574181E+00  0.24254030503E+02  0.00000000000E+00 0. -1.
</event>
<event>
 7    1  0.2976321E-013  0.7246136E+02  0.7816164E-02  0.1226709E+00
        -11   -1    0    0    0    0  0.00000000000E+00  0.00000000000E+00  0.45593999997E+02  0.45594000000E+02  0.51100000000E-03 0.  1.
         11   -1    0    0    0    0 -0.00000000000E+00 -0.00000000000E+00 -0.45593999997E+02  0.45594000000E+02  0.51100000000E-03 0. -1.
    9900012    2    1    2    0    0 -0.15426375508E+02 -0.59796115034E+01  0.87725815120E+01  0.72461361182E+02  0.69999727591E+02 0.  0.
         12    1    1    2    0    0  0.15426375508E+02  0.59796115034E+01 -0.87725815120E+01  0.18726638818E+02  0.00000000000E+00 0. -1.
         11    1    3    3    0    0  0.88608442361E+01  0.21530785302E+02  0.39979966346E+01  0.23623574108E+02  0.51100000000E-03 0. -1.
        -11    1    3    3    0    0 -0.27142515696E+01  0.71644041918E+01 -0.40890954030E+00  0.76722262923E+01  0.51100000000E-03 0.  1.
        -12    1    3    3    0    0 -0.21572968175E+02 -0.34674800997E+02  0.51834944177E+01  0.41165560781E+02  0.00000000000E+00 0.  1.
</event>
<event>
 7    1  0.2976321E-013  0.7246149E+02  0.7816164E-02  0.1226708E+00
        -11   -1    0    0    0    0  0.00000000000E+00  0.00000000000E+00  0.45593999997E+02  0.45594000000E+02  0.51100000000E-03 0. -1.
         11   -1    0    0    0    0 -0.00000000000E+00 -0.00000000000E+00 -0.45593999997E+02  0.45594000000E+02  0.51100000000E-03 0.  1.
    9900012    2    1    2    0    0 -0.39644264113E+01 -0.14536942114E+02 -0.11119479406E+02  0.72461489779E+02  0.69999895114E+02 0.  0.
         12    1    1    2    0    0  0.39644264113E+01  0.14536942114E+02  0.11119479406E+02  0.18726510221E+02  0.00000000000E+00 0. -1.
         11    1    3    3    0    0 -0.30513431162E+01 -0.79693582889E+01  0.25616194066E+02  0.27000199352E+02  0.51100000000E-03 0. -1.
        -11    1    3    3    0    0 -0.70641260658E+00 -0.16469545834E+02 -0.19058279429E+02  0.25198471656E+02  0.51100000000E-03 0.  1.
        -12    1    3    3    0    0 -0.20667068851E+00  0.99019620093E+01 -0.17677394043E+02  0.20262818771E+02  0.00000000000E+00 0.  1.
</event>
<event>
 7    1  0.2976321E-013  0.7246172E+02  0.7816164E-02  0.1226708E+00
        -11   -1    0    0    0    0  0.00000000000E+00  0.00000000000E+00  0.45593999997E+02  0.45594000000E+02  0.51100000000E-03 0. -1.
         11   -1    0    0    0    0 -0.00000000000E+00 -0.00000000000E+00 -0.45593999997E+02  0.45594000000E+02  0.51100000000E-03 0.  1.
    9900012    2    1    2    0    0  0.60726054746E+01 -0.12178523557E+02 -0.12863930677E+02  0.72461716713E+02  0.70000190737E+02 0.  0.
         12    1    1    2    0    0 -0.60726054746E+01  0.12178523557E+02  0.12863930677E+02  0.18726283287E+02  0.00000000000E+00 0. -1.
         11    1    3    3    0    0  0.11994822141E+02 -0.32736285747E+02  0.30863849446E+01  0.35000941915E+02  0.51100000000E-03 0. -1.
        -11    1    3    3    0    0  0.98040912790E+01  0.31100234396E+01 -0.63340127173E+01  0.12079410953E+02  0.51100000000E-03 0.  1.
         12    1    3    3    0    0 -0.15726307945E+02  0.17447738749E+02 -0.96163029043E+01  0.25381363845E+02  0.00000000000E+00 0. -1.
</event>
<event>
 7    1  0.2976321E-013  0.7246156E+02  0.7816164E-02  0.1226708E+00
        -11   -1    0    0    0    0  0.00000000000E+00  0.00000000000E+00  0.45593999997E+02  0.45594000000E+02  0.51100000000E-03 0. -1.
         11   -1    0    0    0    0 -0.00000000000E+00 -0.00000000000E+00 -0.45593999997E+02  0.45594000000E+02  0.51100000000E-03 0.  1.
    9900012    2    1    2    0    0 -0.34224001896E+01 -0.18282983931E+02 -0.21678002019E+01  0.72461556606E+02  0.69999982168E+02 0.  0.
         12    1    1    2    0    0  0.34224001896E+01  0.18282983931E+02  0.21678002019E+01  0.18726443394E+02  0.00000000000E+00 0. -1.
         11    1    3    3    0    0  0.25724488726E+01 -0.16096217700E+02 -0.38081825473E+01  0.16739413730E+02  0.51100000000E-03 0. -1.
        -11    1    3    3    0    0 -0.16824326024E+01 -0.12651257732E+02 -0.24284692058E+02  0.27434124194E+02  0.51100000000E-03 0.  1.
         12    1    3    3    0    0 -0.43124164599E+01  0.10464491502E+02  0.25925074403E+02  0.28288018682E+02  0.00000000000E+00 0. -1.
</event>
<event>
 7    1  0.2976321E-013  0.7246156E+02  0.7816164E-02  0.1226708E+00
        -11   -1    0    0    0    0  0.00000000000E+00  0.00000000000E+00  0.45593999997E+02  0.45594000000E+02  0.51100000000E-03 0. -1.
         11   -1    0    0    0    0 -0.00000000000E+00 -0.00000000000E+00 -0.45593999997E+02  0.45594000000E+02  0.51100000000E-03 0.  1.
    9900012    2    1    2    0    0  0.35797389072E+01 -0.25808862711E+01 -0.18199016769E+02  0.72461555704E+02  0.69999980994E+02 0.  0.
         12    1    1    2    0    0 -0.35797389072E+01  0.25808862711E+01  0.18199016769E+02  0.18726444296E+02  0.00000000000E+00 0. -1.
         11    1    3    3    0    0  0.52286428401E+01  0.65577323898E+00  0.92660111349E+00  0.53504517916E+01  0.51100000000E-03 0. -1.
        -11    1    3    3    0    0  0.12234981828E+01  0.28648010069E+02  0.20183956615E+01  0.28745075231E+02  0.51100000000E-03 0.  1.
         12    1    3    3    0    0 -0.28724021156E+01 -0.31884669579E+02 -0.21144013544E+02  0.38366028682E+02  0.00000000000E+00 0. -1.
</event>
<event>
 7    1  0.2976321E-013  0.7246166E+02  0.7816164E-02  0.1226708E+00
        -11   -1    0    0    0    0  0.00000000000E+00  0.00000000000E+00  0.45593999997E+02  0.45594000000E+02  0.51100000000E-03 0. -1.
         11   -1    0    0    0    0 -0.00000000000E+00 -0.00000000000E+00 -0.45593999997E+02  0.45594000000E+02  0.51100000000E-03 0.  1.
    9900012    2    1    2    0    0 -0.13652005455E+02  0.17303021058E+01 -0.12700578661E+02  0.72461657681E+02  0.70000113837E+02 0.  0.
         12    1    1    2    0    0  0.13652005455E+02 -0.17303021058E+01  0.12700578661E+02  0.18726342319E+02  0.00000000000E+00 0. -1.
         11    1    3    3    0    0 -0.11933793705E+02 -0.23981113557E+02  0.69971514676E+01  0.27685183195E+02  0.51100000000E-03 0.  1.
        -11    1    3    3    0    0  0.25839932686E-01  0.49952111705E+01  0.84305265114E+01  0.97993152751E+01  0.51100000000E-03 0. -1.
        -12    1    3    3    0    0 -0.17440516828E+01  0.20716204492E+02 -0.28128256640E+02  0.34977159211E+02  0.00000000000E+00 0.  1.
</event>
<event>
 7    1  0.2976321E-013  0.7246164E+02  0.7816164E-02  0.1226708E+00
        -11   -1    0    0    0    0  0.00000000000E+00  0.00000000000E+00  0.45593999997E+02  0.45594000000E+02  0.51100000000E-03 0.  1.
         11   -1    0    0    0    0 -0.00000000000E+00 -0.00000000000E+00 -0.45593999997E+02  0.45594000000E+02  0.51100000000E-03 0. -1.
    9900012    2    1    2    0    0 -0.14599054726E+02 -0.30655382621E+01  0.11320190602E+02  0.72461637860E+02  0.70000088017E+02 0.  0.
         12    1    1    2    0    0  0.14599054726E+02  0.30655382621E+01 -0.11320190602E+02  0.18726362140E+02  0.00000000000E+00 0. -1.
         11    1    3    3    0    0 -0.30713932293E+02  0.12640138182E+02  0.17440155675E+02  0.37513700969E+02  0.51100000000E-03 0. -1.
        -11    1    3    3    0    0 -0.56124167420E+01 -0.21284131353E+01  0.42010658229E+01  0.73265488786E+01  0.51100000000E-03 0.  1.
        -12    1    3    3    0    0  0.21727294310E+02 -0.13577263309E+02 -0.10321030895E+02  0.27621388012E+02  0.00000000000E+00 0.  1.
</event>
<event>
 7    1  0.2976321E-013  0.7246150E+02  0.7816164E-02  0.1226708E+00
        -11   -1    0    0    0    0  0.00000000000E+00  0.00000000000E+00  0.45593999997E+02  0.45594000000E+02  0.51100000000E-03 0.  1.
         11   -1    0    0    0    0 -0.00000000000E+00 -0.00000000000E+00 -0.45593999997E+02  0.45594000000E+02  0.51100000000E-03 0. -1.
    9900012    2    1    2    0    0  0.21168888785E+01  0.37479408699E+01  0.18225075001E+02  0.72461504384E+02  0.69999914139E+02 0.  0.
         12    1    1    2    0    0 -0.21168888785E+01 -0.37479408699E+01 -0.18225075001E+02  0.18726495616E+02  0.00000000000E+00 0. -1.
         11    1    3    3    0    0  0.50492757447E+01  0.22029231017E+02  0.11470221465E+02  0.25344588880E+02  0.51100000000E-03 0. -1.
        -11    1    3    3    0    0  0.18047693076E+02 -0.15548512892E+02  0.97670079794E+01  0.25746260382E+02  0.51100000000E-03 0.  1.
         12    1    3    3    0    0 -0.20980079943E+02 -0.27327772552E+01 -0.30121544440E+01  0.21370655121E+02  0.00000000000E+00 0. -1.
</event>
<event>
 7    1  0.3359385E-013  0.7246155E+02  0.7816164E-02  0.1226708E+00
        -11   -1    0    0    0    0  0.00000000000E+00  0.00000000000E+00  0.45593999997E+02  0.45594000000E+02  0.51100000000E-03 0.  1.
         11   -1    0    0    0    0 -0.00000000000E+00 -0.00000000000E+00 -0.45593999997E+02  0.45594000000E+02  0.51100000000E-03 0. -1.
    9900012    2    1    2    0    0  0.15894429196E+02 -0.93128975856E+01  0.33640543659E+01  0.72461553389E+02  0.69999977978E+02 0.  0.
         12    1    1    2    0    0 -0.15894429196E+02  0.93128975856E+01 -0.33640543659E+01  0.18726446611E+02  0.00000000000E+00 0. -1.
         11    1    3    3    0    0 -0.93433377857E+01  0.15332738170E+02  0.40081233358E+01  0.18397170264E+02  0.51100000000E-03 0. -1.
        -11    1    3    3    0    0 -0.73696346602E+01 -0.80821547992E+01 -0.11542861108E+02  0.15901898756E+02  0.51100000000E-03 0.  1.
        -12    1    3    3    0    0  0.32607401642E+02 -0.16563480957E+02  0.10898792138E+02  0.38162484370E+02  0.00000000000E+00 0.  1.
</event>
<event>
 7    1  0.2976321E-013  0.7246158E+02  0.7816164E-02  0.1226708E+00
        -11   -1    0    0    0    0  0.00000000000E+00  0.00000000000E+00  0.45593999997E+02  0.45594000000E+02  0.51100000000E-03 0. -1.
         11   -1    0    0    0    0 -0.00000000000E+00 -0.00000000000E+00 -0.45593999997E+02  0.45594000000E+02  0.51100000000E-03 0.  1.
    9900012    2    1    2    0    0 -0.61148411270E+01  0.13529831847E+02 -0.11411888687E+02  0.72461579220E+02  0.70000011627E+02 0.  0.
         12    1    1    2    0    0  0.61148411270E+01 -0.13529831847E+02  0.11411888687E+02  0.18726420780E+02  0.00000000000E+00 0. -1.
         11    1    3    3    0    0  0.13298053515E+02  0.95111805104E+01 -0.56999324196E+01  0.17314445178E+02  0.51100000000E-03 0. -1.
        -11    1    3    3    0    0 -0.97133863943E+01  0.27230494198E+02 -0.76788549707E+01  0.29913450209E+02  0.51100000000E-03 0.  1.
         12    1    3    3    0    0 -0.96995082473E+01 -0.23211842861E+02  0.19668987031E+01  0.25233683832E+02  0.00000000000E+00 0. -1.
</event>
<event>
 7    1  0.2976321E-013  0.7246153E+02  0.7816164E-02  0.1226708E+00
        -11   -1    0    0    0    0  0.00000000000E+00  0.00000000000E+00  0.45593999997E+02  0.45594000000E+02  0.51100000000E-03 0. -1.
         11   -1    0    0    0    0 -0.00000000000E+00 -0.00000000000E+00 -0.45593999997E+02  0.45594000000E+02  0.51100000000E-03 0.  1.
    9900012    2    1    2    0    0 -0.15047235642E+02 -0.84768793778E+01 -0.72390430551E+01  0.72461534001E+02  0.69999952721E+02 0.  0.
         12    1    1    2    0    0  0.15047235642E+02  0.84768793778E+01  0.72390430551E+01  0.18726465999E+02  0.00000000000E+00 0. -1.
         11    1    3    3    0    0  0.59476228662E+01  0.54574086501E+01  0.53965736541E+01  0.97098163936E+01  0.51100000000E-03 0. -1.
        -11    1    3    3    0    0 -0.40920906355E+01 -0.33687093900E+02 -0.20555917075E+00  0.33935346705E+02  0.51100000000E-03 0.  1.
         12    1    3    3    0    0 -0.16902767873E+02  0.19752805872E+02 -0.12430057538E+02  0.28816370902E+02  0.00000000000E+00 0. -1.
</event>
<event>
 7    1  0.2976321E-013  0.7246158E+02  0.7816164E-02  0.1226708E+00
        -11   -1    0    0    0    0  0.00000000000E+00  0.00000000000E+00  0.45593999997E+02  0.45594000000E+02  0.51100000000E-03 0. -1.
         11   -1    0    0    0    0 -0.00000000000E+00 -0.00000000000E+00 -0.45593999997E+02  0.45594000000E+02  0.51100000000E-03 0.  1.
    9900012    2    1    2    0    0  0.12650900639E+02 -0.98866944715E+01 -0.96377741557E+01  0.72461582691E+02  0.70000016149E+02 0.  0.
         12    1    1    2    0    0 -0.12650900639E+02  0.98866944715E+01  0.96377741557E+01  0.18726417309E+02  0.00000000000E+00 0. -1.
         11    1    3    3    0    0  0.24867731385E+02  0.38011722792E+01 -0.96293990018E+01  0.26936560662E+02  0.51100000000E-03 0. -1.
        -11    1    3    3    0    0 -0.19657667076E+02 -0.12802477481E+02 -0.15636929696E+02  0.28192922429E+02  0.51100000000E-03 0.  1.
         12    1    3    3    0    0  0.74408363303E+01 -0.88538926987E+00  0.15628554542E+02  0.17332099600E+02  0.00000000000E+00 0. -1.
</event>
<event>
 7    1  0.2976321E-013  0.7246161E+02  0.7816164E-02  0.1226708E+00
        -11   -1    0    0    0    0  0.00000000000E+00  0.00000000000E+00  0.45593999997E+02  0.45594000000E+02  0.51100000000E-03 0.  1.
         11   -1    0    0    0    0 -0.00000000000E+00 -0.00000000000E+00 -0.45593999997E+02  0.45594000000E+02  0.51100000000E-03 0. -1.
    9900012    2    1    2    0    0 -0.12602027723E+02 -0.10594074556E+02  0.89236895792E+01  0.72461608086E+02  0.70000049230E+02 0.  0.
         12    1    1    2    0    0  0.12602027723E+02  0.10594074556E+02 -0.89236895792E+01  0.18726391914E+02  0.00000000000E+00 0. -1.
         11    1    3    3    0    0  0.70082793462E+01 -0.11903338272E+02 -0.54769741509E+01  0.14859430929E+02  0.51100000000E-03 0.  1.
        -11    1    3    3    0    0 -0.23179752887E+02  0.90989401593E+00 -0.15232771849E+02  0.27751868216E+02  0.51100000000E-03 0. -1.
         12    1    3    3    0    0  0.35694458181E+01  0.39936969972E+00  0.29633435580E+02  0.29850308941E+02  0.00000000000E+00 0. -1.
</event>
<event>
 7    1  0.2976321E-013  0.7246159E+02  0.7816164E-02  0.1226708E+00
        -11   -1    0    0    0    0  0.00000000000E+00  0.00000000000E+00  0.45593999997E+02  0.45594000000E+02  0.51100000000E-03 0. -1.
         11   -1    0    0    0    0 -0.00000000000E+00 -0.00000000000E+00 -0.45593999997E+02  0.45594000000E+02  0.51100000000E-03 0.  1.
    9900012    2    1    2    0    0 -0.85275030629E+01 -0.98196491954E+01 -0.13473484413E+02  0.72461585473E+02  0.70000019773E+02 0.  0.
         12    1    1    2    0    0  0.85275030629E+01  0.98196491954E+01  0.13473484413E+02  0.18726414527E+02  0.00000000000E+00 0. -1.
         11    1    3    3    0    0 -0.14353901697E+02  0.88266867121E+01 -0.29531972365E+02  0.34001210041E+02  0.51100000000E-03 0. -1.
        -11    1    3    3    0    0  0.63664141733E+01 -0.78303642454E+01 -0.74723530711E+01  0.12557145150E+02  0.51100000000E-03 0.  1.
         12    1    3    3    0    0 -0.54001553938E+00 -0.10815971662E+02  0.23530841023E+02  0.25903230282E+02  0.00000000000E+00 0. -1.
</event>
<event>
 7    1  0.2976321E-013  0.7246156E+02  0.7816164E-02  0.1226708E+00
        -11   -1    0    0    0    0  0.00000000000E+00  0.00000000000E+00  0.45593999997E+02  0.45594000000E+02  0.51100000000E-03 0.  1.
         11   -1    0    0    0    0 -0.00000000000E+00 -0.00000000000E+00 -0.45593999997E+02  0.45594000000E+02  0.51100000000E-03 0. -1.
    9900012    2    1    2    0    0  0.16880202063E+02  0.58793858474E+01  0.55831042826E+01  0.72461562724E+02  0.69999990138E+02 0.  0.
         12    1    1    2    0    0 -0.16880202063E+02 -0.58793858474E+01 -0.55831042826E+01  0.18726437276E+02  0.00000000000E+00 0. -1.
         11    1    3    3    0    0  0.76250896742E+01  0.83941448484E+01  0.25821091746E+01  0.11630603954E+02  0.51100000000E-03 0. -1.
        -11    1    3    3    0    0  0.11438562058E+01  0.96268518781E+01  0.29238609145E+02  0.30803911263E+02  0.51100000000E-03 0.  1.
         12    1    3    3    0    0  0.81112561832E+01 -0.12141610879E+02 -0.26237614037E+02  0.30027047507E+02  0.00000000000E+00 0. -1.
</event>
<event>
 7    1  0.2976321E-013  0.7246159E+02  0.7816164E-02  0.1226708E+00
        -11   -1    0    0    0    0  0.00000000000E+00  0.00000000000E+00  0.45593999997E+02  0.45594000000E+02  0.51100000000E-03 0.  1.
         11   -1    0    0    0    0 -0.00000000000E+00 -0.00000000000E+00 -0.45593999997E+02  0.45594000000E+02  0.51100000000E-03 0. -1.
    9900012    2    1    2    0    0  0.64597859278E+01  0.98674205631E+01  0.14545919295E+02  0.72461585743E+02  0.70000020124E+02 0.  0.
         12    1    1    2    0    0 -0.64597859278E+01 -0.98674205631E+01 -0.14545919295E+02  0.18726414257E+02  0.00000000000E+00 0. -1.
         11    1    3    3    0    0 -0.24891925665E+00  0.16042311052E+02  0.54039100140E+01  0.16929853762E+02  0.51100000000E-03 0. -1.
        -11    1    3    3    0    0  0.22537242917E+02  0.39354477559E+01  0.22807255995E+02  0.32304581619E+02  0.51100000000E-03 0.  1.
         12    1    3    3    0    0 -0.15828537733E+02 -0.10110338245E+02 -0.13665246714E+02  0.23227150362E+02  0.00000000000E+00 0. -1.
</event>
<event>
 7    1  0.2976321E-013  0.7246155E+02  0.7816164E-02  0.1226708E+00
        -11   -1    0    0    0    0  0.00000000000E+00  0.00000000000E+00  0.45593999997E+02  0.45594000000E+02  0.51100000000E-03 0.  1.
         11   -1    0    0    0    0 -0.00000000000E+00 -0.00000000000E+00 -0.45593999997E+02  0.45594000000E+02  0.51100000000E-03 0. -1.
    9900012    2    1    2    0    0 -0.70849339110E+01 -0.17328508854E+02  0.45451831788E+00  0.72461545596E+02  0.69999967826E+02 0.  0.
         12    1    1    2    0    0  0.70849339110E+01  0.17328508854E+02 -0.45451831788E+00  0.18726454404E+02  0.00000000000E+00 0. -1.
         11    1    3    3    0    0 -0.84797969567E+01  0.10560444282E+02  0.84028002434E+01  0.15938537952E+02  0.51100000000E-03 0. -1.
        -11    1    3    3    0    0 -0.10324069817E+02  0.94665665980E+00  0.14729239184E+02  0.18012025528E+02  0.51100000000E-03 0.  1.
        -12    1    3    3    0    0  0.11718932863E+02 -0.28835609797E+02 -0.22677521110E+02  0.38510982115E+02  0.00000000000E+00 0.  1.
</event>
<event>
 7    1  0.2976321E-013  0.7246155E+02  0.7816164E-02  0.1226708E+00
        -11   -1    0    0    0    0  0.00000000000E+00  0.00000000000E+00  0.45593999997E+02  0.45594000000E+02  0.51100000000E-03 0. -1.
         11   -1    0    0    0    0 -0.00000000000E+00 -0.00000000000E+00 -0.45593999997E+02  0.45594000000E+02  0.51100000000E-03 0.  1.
    9900012    2    1    2    0    0 -0.17666888371E+02 -0.54341752487E+01 -0.30051296334E+01  0.72461547868E+02  0.69999970786E+02 0.  0.
         12    1    1    2    0    0  0.17666888371E+02  0.54341752487E+01  0.30051296334E+01  0.18726452132E+02  0.00000000000E+00 0. -1.
         11    1    3    3    0    0  0.36707329373E+01  0.47698652916E-01  0.10120347760E+02  0.10765593087E+02  0.51100000000E-03 0. -1.
        -11    1    3    3    0    0  0.14347312021E+02 -0.16840647329E+02 -0.94823266168E+01  0.24070049502E+02  0.51100000000E-03 0.  1.
        -12    1    3    3    0    0 -0.35684933329E+02  0.11358773427E+02 -0.36431507770E+01  0.37625905279E+02  0.00000000000E+00 0.  1.
</event>
<event>
 7    1  0.2976321E-013  0.7246154E+02  0.7816164E-02  0.1226708E+00
        -11   -1    0    0    0    0  0.00000000000E+00  0.00000000000E+00  0.45593999997E+02  0.45594000000E+02  0.51100000000E-03 0.  1.
         11   -1    0    0    0    0 -0.00000000000E+00 -0.00000000000E+00 -0.45593999997E+02  0.45594000000E+02  0.51100000000E-03 0. -1.
    9900012    2    1    2    0    0  0.57124394888E+01 -0.13241104325E+02  0.11946609525E+02  0.72461540436E+02  0.69999961103E+02 0.  0.
         12    1    1    2    0    0 -0.57124394888E+01  0.13241104325E+02 -0.11946609525E+02  0.18726459564E+02  0.00000000000E+00 0. -1.
         11    1    3    3    0    0  0.61841329223E+01 -0.93568660617E+01 -0.20486762381E+02  0.23355981581E+02  0.51100000000E-03 0. -1.
        -11    1    3    3    0    0  0.13443051888E+02 -0.13978034357E+02  0.14126587241E+02  0.23992948045E+02  0.51100000000E-03 0.  1.
         12    1    3    3    0    0 -0.13914745321E+02  0.10093796093E+02  0.18306784665E+02  0.25112610810E+02  0.00000000000E+00 0. -1.
</event>
<event>
 7    1  0.2976321E-013  0.7246156E+02  0.7816164E-02  0.1226708E+00
        -11   -1    0    0    0    0  0.00000000000E+00  0.00000000000E+00  0.45593999997E+02  0.45594000000E+02  0.51100000000E-03 0.  1.
         11   -1    0    0    0    0 -0.00000000000E+00 -0.00000000000E+00 -0.45593999997E+02  0.45594000000E+02  0.51100000000E-03 0. -1.
    9900012    2    1    2    0    0  0.20356738214E+01  0.17552978934E+02 -0.61990674049E+01  0.72461562164E+02  0.69999989408E+02 0.  0.
         12    1    1    2    0    0 -0.20356738214E+01 -0.17552978934E+02  0.61990674049E+01  0.18726437836E+02  0.00000000000E+00 0. -1.
         11    1    3    3    0    0 -0.52506420754E+00  0.12296361014E+02 -0.20199656963E+02  0.23653801561E+02  0.51100000000E-03 0. -1.
        -11    1    3    3    0    0  0.11101442726E+02  0.81831841701E+00 -0.14755607579E+02  0.18483496177E+02  0.51100000000E-03 0.  1.
        -12    1    3    3    0    0 -0.85407046967E+01  0.44382995029E+01  0.28756197137E+02  0.30324264426E+02  0.00000000000E+00 0.  1.
</event>
<event>
 7    1  0.2976321E-013  0.7246157E+02  0.7816164E-02  0.1226708E+00
        -11   -1    0    0    0    0  0.00000000000E+00  0.00000000000E+00  0.45593999997E+02  0.45594000000E+02  0.51100000000E-03 0.  1.
         11   -1    0    0    0    0 -0.00000000000E+00 -0.00000000000E+00 -0.45593999997E+02  0.45594000000E+02  0.51100000000E-03 0. -1.
    9900012    2    1    2    0    0  0.69282757395E+01  0.16779863372E+02  0.45950449997E+01  0.72461567930E+02  0.69999996921E+02 0.  0.
         12    1    1    2    0    0 -0.69282757395E+01 -0.16779863372E+02 -0.45950449997E+01  0.18726432070E+02  0.00000000000E+00 0. -1.
         11    1    3    3    0    0 -0.50981556431E+01  0.90214608886E+00  0.22826919805E+02  0.23406694055E+02  0.51100000000E-03 0. -1.
        -11    1    3    3    0    0  0.26437870945E+01 -0.11168420335E+02  0.46731351694E+01  0.12391989975E+02  0.51100000000E-03 0.  1.
        -12    1    3    3    0    0  0.93826442881E+01  0.27046137618E+02 -0.22905009975E+02  0.36662883900E+02  0.00000000000E+00 0.  1.
</event>
<event>
 7    1  0.2976321E-013  0.7246151E+02  0.7816164E-02  0.1226708E+00
        -11   -1    0    0    0    0  0.00000000000E+00  0.00000000000E+00  0.45593999997E+02  0.45594000000E+02  0.51100000000E-03 0.  1.
         11   -1    0    0    0    0 -0.00000000000E+00 -0.00000000000E+00 -0.45593999997E+02  0.45594000000E+02  0.51100000000E-03 0. -1.
    9900012    2    1    2    0    0  0.52942585625E+01  0.14262255829E+02  0.10919713880E+02  0.72461514310E+02  0.69999927070E+02 0.  0.
         12    1    1    2    0    0 -0.52942585625E+01 -0.14262255829E+02 -0.10919713880E+02  0.18726485690E+02  0.00000000000E+00 0. -1.
         11    1    3    3    0    0 -0.63855174479E+01 -0.10036183964E+02 -0.92387076277E+01  0.15061657961E+02  0.51100000000E-03 0. -1.
        -11    1    3    3    0    0 -0.12692285162E+02  0.12547333189E+02  0.24171815410E+02  0.30046735817E+02  0.51100000000E-03 0.  1.
        -12    1    3    3    0    0  0.24372061172E+02  0.11751106605E+02 -0.40133939025E+01  0.27353120532E+02  0.00000000000E+00 0.  1.
</event>
<event>
 7    1  0.2976321E-013  0.7246092E+02  0.7816164E-02  0.1226710E+00
        -11   -1    0    0    0    0  0.00000000000E+00  0.00000000000E+00  0.45593999997E+02  0.45594000000E+02  0.51100000000E-03 0.  1.
         11   -1    0    0    0    0 -0.00000000000E+00 -0.00000000000E+00 -0.45593999997E+02  0.45594000000E+02  0.51100000000E-03 0. -1.
    9900012    2    1    2    0    0 -0.88451210666E+01  0.15858547714E+02 -0.45797261463E+01  0.72460918170E+02  0.69999150482E+02 0.  0.
         12    1    1    2    0    0  0.88451210666E+01 -0.15858547714E+02  0.45797261463E+01  0.18727081830E+02  0.00000000000E+00 0. -1.
         11    1    3    3    0    0  0.33844993374E+01  0.26997885448E+02 -0.58228796592E+01  0.27825286741E+02  0.51100000000E-03 0. -1.
        -11    1    3    3    0    0  0.10291071294E+02  0.87480999098E+01  0.49018833798E+01  0.14368850384E+02  0.51100000000E-03 0.  1.
        -12    1    3    3    0    0 -0.22520691698E+02 -0.19887437644E+02 -0.36587298668E+01  0.30266781045E+02  0.00000000000E+00 0.  1.
</event>
<event>
 7    1  0.2976321E-013  0.7246152E+02  0.7816164E-02  0.1226708E+00
        -11   -1    0    0    0    0  0.00000000000E+00  0.00000000000E+00  0.45593999997E+02  0.45594000000E+02  0.51100000000E-03 0.  1.
         11   -1    0    0    0    0 -0.00000000000E+00 -0.00000000000E+00 -0.45593999997E+02  0.45594000000E+02  0.51100000000E-03 0. -1.
    9900012    2    1    2    0    0 -0.17089703685E+02 -0.34474350776E+01  0.68365283257E+01  0.72461524085E+02  0.69999939803E+02 0.  0.
         12    1    1    2    0    0  0.17089703685E+02  0.34474350776E+01 -0.68365283257E+01  0.18726475915E+02  0.00000000000E+00 0. -1.
         11    1    3    3    0    0 -0.19247258597E+02  0.56413175037E+01  0.17035932881E+02  0.26315479020E+02  0.51100000000E-03 0.  1.
        -11    1    3    3    0    0  0.16673934808E+02 -0.17993893185E+02 -0.14611798983E+02  0.28553545554E+02  0.51100000000E-03 0. -1.
         12    1    3    3    0    0 -0.14516379895E+02  0.89051406039E+01  0.44123944278E+01  0.17592499511E+02  0.00000000000E+00 0. -1.
</event>
<event>
 7    1  0.2976321E-013  0.7246158E+02  0.7816164E-02  0.1226708E+00
        -11   -1    0    0    0    0  0.00000000000E+00  0.00000000000E+00  0.45593999997E+02  0.45594000000E+02  0.51100000000E-03 0.  1.
         11   -1    0    0    0    0 -0.00000000000E+00 -0.00000000000E+00 -0.45593999997E+02  0.45594000000E+02  0.51100000000E-03 0. -1.
    9900012    2    1    2    0    0 -0.16656826690E+02  0.85451399417E+01 -0.45789385109E+00  0.72461575921E+02  0.70000007330E+02 0.  0.
         12    1    1    2    0    0  0.16656826690E+02 -0.85451399417E+01  0.45789385109E+00  0.18726424079E+02  0.00000000000E+00 0. -1.
         11    1    3    3    0    0  0.11586825813E+02  0.36071453766E+01 -0.26250725708E+02  0.28920003988E+02  0.51100000000E-03 0. -1.
        -11    1    3    3    0    0 -0.36506848596E+01  0.28450477600E+01 -0.30780145588E+01  0.55584143949E+01  0.51100000000E-03 0.  1.
        -12    1    3    3    0    0 -0.24592967643E+02  0.20929468051E+01  0.28870846416E+02  0.37983157538E+02  0.00000000000E+00 0.  1.
</event>
<event>
 7    1  0.2976321E-013  0.7246157E+02  0.7816164E-02  0.1226708E+00
        -11   -1    0    0    0    0  0.00000000000E+00  0.00000000000E+00  0.45593999997E+02  0.45594000000E+02  0.51100000000E-03 0. -1.
         11   -1    0    0    0    0 -0.00000000000E+00 -0.00000000000E+00 -0.45593999997E+02  0.45594000000E+02  0.51100000000E-03 0.  1.
    9900012    2    1    2    0    0 -0.12930565979E+02  0.12378681059E+02 -0.54997982596E+01  0.72461573160E+02  0.70000003732E+02 0.  0.
         12    1    1    2    0    0  0.12930565979E+02 -0.12378681059E+02  0.54997982596E+01  0.18726426840E+02  0.00000000000E+00 0. -1.
         11    1    3    3    0    0  0.11650653607E+02  0.43096889490E+01 -0.34893981797E+00  0.12427103748E+02  0.51100000000E-03 0. -1.
        -11    1    3    3    0    0  0.63040269730E+01 -0.83870063882E+00 -0.22587429566E+02  0.23465637633E+02  0.51100000000E-03 0.  1.
         12    1    3    3    0    0 -0.30885246559E+02  0.89076927493E+01  0.17436571124E+02  0.36568831779E+02  0.00000000000E+00 0. -1.
</event>
<event>
 7    1  0.2976321E-013  0.7246157E+02  0.7816164E-02  0.1226708E+00
        -11   -1    0    0    0    0  0.00000000000E+00  0.00000000000E+00  0.45593999997E+02  0.45594000000E+02  0.51100000000E-03 0.  1.
         11   -1    0    0    0    0 -0.00000000000E+00 -0.00000000000E+00 -0.45593999997E+02  0.45594000000E+02  0.51100000000E-03 0. -1.
    9900012    2    1    2    0    0  0.96810771014E+01  0.12996836025E+01  0.15977066160E+02  0.72461572835E+02  0.70000003309E+02 0.  0.
         12    1    1    2    0    0 -0.96810771014E+01 -0.12996836025E+01 -0.15977066160E+02  0.18726427165E+02  0.00000000000E+00 0. -1.
         11    1    3    3    0    0 -0.15302780692E+02 -0.62442021826E+01 -0.60325086050E+01  0.17594212632E+02  0.51100000000E-03 0. -1.
        -11    1    3    3    0    0  0.62009410618E+01 -0.16151867381E+02  0.16929803708E+02  0.24206460786E+02  0.51100000000E-03 0.  1.
         12    1    3    3    0    0  0.18782916732E+02  0.23695753166E+02  0.50797710569E+01  0.30660899417E+02  0.00000000000E+00 0. -1.
</event>
<event>
 7    1  0.2976321E-013  0.7246158E+02  0.7816164E-02  0.1226708E+00
        -11   -1    0    0    0    0  0.00000000000E+00  0.00000000000E+00  0.45593999997E+02  0.45594000000E+02  0.51100000000E-03 0.  1.
         11   -1    0    0    0    0 -0.00000000000E+00 -0.00000000000E+00 -0.45593999997E+02  0.45594000000E+02  0.51100000000E-03 0. -1.
    9900012    2    1    2    0    0 -0.76318608526E+00 -0.18631938430E+02 -0.17167871189E+01  0.72461576405E+02  0.70000007960E+02 0.  0.
         12    1    1    2    0    0  0.76318608526E+00  0.18631938430E+02  0.17167871189E+01  0.18726423595E+02  0.00000000000E+00 0. -1.
         11    1    3    3    0    0 -0.11762737425E+02 -0.83996670702E+01 -0.24934550769E+02  0.28820968425E+02  0.51100000000E-03 0. -1.
        -11    1    3    3    0    0  0.45889156320E+01 -0.67950777287E+01 -0.80782418624E+01  0.11510396165E+02  0.51100000000E-03 0.  1.
         12    1    3    3    0    0  0.64106357074E+01 -0.34371936312E+01  0.31296005513E+02  0.32130211815E+02  0.00000000000E+00 0. -1.
</event>
<event>
 7    1  0.2976321E-013  0.7246157E+02  0.7816164E-02  0.1226708E+00
        -11   -1    0    0    0    0  0.00000000000E+00  0.00000000000E+00  0.45593999997E+02  0.45594000000E+02  0.51100000000E-03 0.  1.
         11   -1    0    0    0    0 -0.00000000000E+00 -0.00000000000E+00 -0.45593999997E+02  0.45594000000E+02  0.51100000000E-03 0. -1.
    9900012    2    1    2    0    0  0.49708169941E+00 -0.18023221081E+02  0.50592196062E+01  0.72461567040E+02  0.69999995761E+02 0.  0.
         12    1    1    2    0    0 -0.49708169941E+00  0.18023221081E+02 -0.50592196062E+01  0.18726432960E+02  0.00000000000E+00 0. -1.
         11    1    3    3    0    0 -0.60374787397E+01 -0.36196874522E+02  0.20743610015E+01  0.36755514532E+02  0.51100000000E-03 0. -1.
        -11    1    3    3    0    0 -0.47773494782E+01 -0.17635656195E+01  0.10428129835E+02  0.11605133512E+02  0.51100000000E-03 0.  1.
         12    1    3    3    0    0  0.11311909917E+02  0.19937219060E+02 -0.74432712299E+01  0.24100918996E+02  0.00000000000E+00 0. -1.
</event>
<event>
 7    1  0.2976321E-013  0.7246167E+02  0.7816164E-02  0.1226708E+00
        -11   -1    0    0    0    0  0.00000000000E+00  0.00000000000E+00  0.45593999997E+02  0.45594000000E+02  0.51100000000E-03 0. -1.
         11   -1    0    0    0    0 -0.00000000000E+00 -0.00000000000E+00 -0.45593999997E+02  0.45594000000E+02  0.51100000000E-03 0.  1.
    9900012    2    1    2    0    0 -0.83911656382E+01  0.16366843813E+02  0.35199567971E+01  0.72461672730E+02  0.70000133442E+02 0.  0.
         12    1    1    2    0    0  0.83911656382E+01 -0.16366843813E+02 -0.35199567971E+01  0.18726327270E+02  0.00000000000E+00 0. -1.
         11    1    3    3    0    0  0.21021749371E+01 -0.69832707275E+01  0.18691071494E+02  0.20063433489E+02  0.51100000000E-03 0. -1.
        -11    1    3    3    0    0  0.35533433881E+01  0.76166883422E+01  0.14043062799E+02  0.16366056446E+02  0.51100000000E-03 0.  1.
        -12    1    3    3    0    0 -0.14046683963E+02  0.15733426198E+02 -0.29214177496E+02  0.36032182796E+02  0.00000000000E+00 0.  1.
</event>
<event>
 7    1  0.2976321E-013  0.7246159E+02  0.7816164E-02  0.1226708E+00
        -11   -1    0    0    0    0  0.00000000000E+00  0.00000000000E+00  0.45593999997E+02  0.45594000000E+02  0.51100000000E-03 0. -1.
         11   -1    0    0    0    0 -0.00000000000E+00 -0.00000000000E+00 -0.45593999997E+02  0.45594000000E+02  0.51100000000E-03 0.  1.
    9900012    2    1    2    0    0 -0.24456075186E+01 -0.22094002810E+01 -0.18434102051E+02  0.72461586457E+02  0.70000021055E+02 0.  0.
         12    1    1    2    0    0  0.24456075186E+01  0.22094002810E+01  0.18434102051E+02  0.18726413543E+02  0.00000000000E+00 0. -1.
         11    1    3    3    0    0 -0.74207289230E+00  0.56519142744E+01  0.36140410912E-01  0.57005362496E+01  0.51100000000E-03 0. -1.
        -11    1    3    3    0    0  0.18826570358E+02 -0.13003523639E+02 -0.33666782057E+02  0.40706063342E+02  0.51100000000E-03 0.  1.
         12    1    3    3    0    0 -0.20530104984E+02  0.51422090833E+01  0.15196539595E+02  0.26054986866E+02  0.00000000000E+00 0. -1.
</event>
<event>
 7    1  0.2976321E-013  0.7246156E+02  0.7816164E-02  0.1226708E+00
        -11   -1    0    0    0    0  0.00000000000E+00  0.00000000000E+00  0.45593999997E+02  0.45594000000E+02  0.51100000000E-03 0. -1.
         11   -1    0    0    0    0 -0.00000000000E+00 -0.00000000000E+00 -0.45593999997E+02  0.45594000000E+02  0.51100000000E-03 0.  1.
    9900012    2    1    2    0    0 -0.12081934788E+02  0.14293215864E+02 -0.64069153138E+00  0.72461557369E+02  0.69999983163E+02 0.  0.
         12    1    1    2    0    0  0.12081934788E+02 -0.14293215864E+02  0.64069153138E+00  0.18726442631E+02  0.00000000000E+00 0. -1.
         11    1    3    3    0    0 -0.12692446087E+02 -0.87408386385E+00  0.22992696531E+02  0.26277867194E+02  0.51100000000E-03 0. -1.
        -11    1    3    3    0    0  0.12154599623E+02  0.50283053397E+01  0.46871972608E+01  0.13963809115E+02  0.51100000000E-03 0.  1.
        -12    1    3    3    0    0 -0.11544088325E+02  0.10138994388E+02 -0.28320585323E+02  0.32219881059E+02  0.00000000000E+00 0.  1.
</event>
<event>
 7    1  0.2976321E-013  0.7246160E+02  0.7816164E-02  0.1226708E+00
        -11   -1    0    0    0    0  0.00000000000E+00  0.00000000000E+00  0.45593999997E+02  0.45594000000E+02  0.51100000000E-03 0.  1.
         11   -1    0    0    0    0 -0.00000000000E+00 -0.00000000000E+00 -0.45593999997E+02  0.45594000000E+02  0.51100000000E-03 0. -1.
    9900012    2    1    2    0    0 -0.12559116694E+02  0.14949288661E+01  0.13809839905E+02  0.72461604120E+02  0.70000044064E+02 0.  0.
         12    1    1    2    0    0  0.12559116694E+02 -0.14949288661E+01 -0.13809839905E+02  0.18726395880E+02  0.00000000000E+00 0. -1.
         11    1    3    3    0    0  0.12707649521E+02 -0.27203977566E+01 -0.10124209715E+02  0.16473753152E+02  0.51100000000E-03 0. -1.
        -11    1    3    3    0    0  0.12249164208E+02 -0.77047234040E+00  0.26092639093E+01  0.12547665513E+02  0.51100000000E-03 0.  1.
        -12    1    3    3    0    0 -0.37515930423E+02  0.49857989631E+01  0.21324785710E+02  0.43440185455E+02  0.00000000000E+00 0.  1.
</event>
<event>
 7    1  0.2976321E-013  0.7246157E+02  0.7816164E-02  0.1226708E+00
        -11   -1    0    0    0    0  0.00000000000E+00  0.00000000000E+00  0.45593999997E+02  0.45594000000E+02  0.51100000000E-03 0. -1.
         11   -1    0    0    0    0 -0.00000000000E+00 -0.00000000000E+00 -0.45593999997E+02  0.45594000000E+02  0.51100000000E-03 0.  1.
    9900012    2    1    2    0    0 -0.46408702360E+01 -0.18111719223E+02 -0.10522047622E+01  0.72461569891E+02  0.69999999474E+02 0.  0.
         12    1    1    2    0    0  0.46408702360E+01  0.18111719223E+02  0.10522047622E+01  0.18726430109E+02  0.00000000000E+00 0. -1.
         11    1    3    3    0    0  0.12691897975E+02  0.10912716482E+02 -0.77520994768E+01  0.18446319464E+02  0.51100000000E-03 0. -1.
        -11    1    3    3    0    0  0.12756484817E+02 -0.16806336761E+02  0.18575772708E+01  0.21180921930E+02  0.51100000000E-03 0.  1.
        -12    1    3    3    0    0 -0.30089253028E+02 -0.12218098944E+02  0.48423174438E+01  0.32834328497E+02  0.00000000000E+00 0.  1.
</event>
<event>
 7    1  0.2976321E-013  0.7246157E+02  0.7816164E-02  0.1226708E+00
        -11   -1    0    0    0    0  0.00000000000E+00  0.00000000000E+00  0.45593999997E+02  0.45594000000E+02  0.51100000000E-03 0. -1.
         11   -1    0    0    0    0 -0.00000000000E+00 -0.00000000000E+00 -0.45593999997E+02  0.45594000000E+02  0.51100000000E-03 0.  1.
    9900012    2    1    2    0    0 -0.10939862423E+02 -0.12038481988E+02 -0.92775828601E+01  0.72461569957E+02  0.69999999561E+02 0.  0.
         12    1    1    2    0    0  0.10939862423E+02  0.12038481988E+02  0.92775828601E+01  0.18726430043E+02  0.00000000000E+00 0. -1.
         11    1    3    3    0    0  0.49248984116E+01 -0.11480263890E+02  0.15793734845E+02  0.20136860330E+02  0.51100000000E-03 0. -1.
        -11    1    3    3    0    0 -0.90422775265E+01 -0.21295588603E+02 -0.18204969496E+02  0.29439527704E+02  0.51100000000E-03 0.  1.
         12    1    3    3    0    0 -0.68224833082E+01  0.20737370504E+02 -0.68663482094E+01  0.22885181923E+02  0.00000000000E+00 0. -1.
</event>
<event>
 7    1  0.2976321E-013  0.7246157E+02  0.7816164E-02  0.1226708E+00
        -11   -1    0    0    0    0  0.00000000000E+00  0.00000000000E+00  0.45593999997E+02  0.45594000000E+02  0.51100000000E-03 0.  1.
         11   -1    0    0    0    0 -0.00000000000E+00 -0.00000000000E+00 -0.45593999997E+02  0.45594000000E+02  0.51100000000E-03 0. -1.
    9900012    2    1    2    0    0 -0.23487052593E+01  0.18514305751E+02  0.15437765958E+01  0.72461570015E+02  0.69999999636E+02 0.  0.
         12    1    1    2    0    0  0.23487052593E+01 -0.18514305751E+02 -0.15437765958E+01  0.18726429985E+02  0.00000000000E+00 0. -1.
         11    1    3    3    0    0  0.65651732896E+01 -0.57742016015E+00  0.86137507889E+01  0.10845811047E+02  0.51100000000E-03 0. -1.
        -11    1    3    3    0    0  0.14670069345E+02  0.39613370621E+01  0.18321043093E+02  0.23802599567E+02  0.51100000000E-03 0.  1.
         12    1    3    3    0    0 -0.23583947894E+02  0.15130388849E+02 -0.25391017286E+02  0.37813159400E+02  0.00000000000E+00 0. -1.
</event>
<event>
 7    1  0.2976321E-013  0.7246153E+02  0.7816164E-02  0.1226708E+00
        -11   -1    0    0    0    0  0.00000000000E+00  0.00000000000E+00  0.45593999997E+02  0.45594000000E+02  0.51100000000E-03 0. -1.
         11   -1    0    0    0    0 -0.00000000000E+00 -0.00000000000E+00 -0.45593999997E+02  0.45594000000E+02  0.51100000000E-03 0.  1.
    9900012    2    1    2    0    0 -0.82168613585E+01 -0.12360547931E+02 -0.11418440498E+02  0.72461528385E+02  0.69999945406E+02 0.  0.
         12    1    1    2    0    0  0.82168613585E+01  0.12360547931E+02  0.11418440498E+02  0.18726471615E+02  0.00000000000E+00 0. -1.
         11    1    3    3    0    0 -0.22730834918E+02 -0.27358703519E+02 -0.18856473935E+01  0.35619449471E+02  0.51100000000E-03 0. -1.
        -11    1    3    3    0    0 -0.77608341356E+01  0.33560739381E+00  0.16218999762E+01  0.79355994478E+01  0.51100000000E-03 0.  1.
        -12    1    3    3    0    0  0.22274807695E+02  0.14662548195E+02 -0.11154693081E+02  0.28906479466E+02  0.00000000000E+00 0.  1.
</event>
<event>
 7    1  0.2976321E-013  0.7246159E+02  0.7816164E-02  0.1226708E+00
        -11   -1    0    0    0    0  0.00000000000E+00  0.00000000000E+00  0.45593999997E+02  0.45594000000E+02  0.51100000000E-03 0.  1.
         11   -1    0    0    0    0 -0.00000000000E+00 -0.00000000000E+00 -0.45593999997E+02  0.45594000000E+02  0.51100000000E-03 0. -1.
    9900012    2    1    2    0    0  0.10145540720E+02  0.15178300315E+02 -0.41671964146E+01  0.72461592899E+02  0.70000029447E+02 0.  0.
         12    1    1    2    0    0 -0.10145540720E+02 -0.15178300315E+02  0.41671964146E+01  0.18726407101E+02  0.00000000000E+00 0. -1.
         11    1    3    3    0    0  0.12279337707E+02  0.22127993003E+02 -0.28847256556E+02  0.38374397975E+02  0.51100000000E-03 0. -1.
        -11    1    3    3    0    0  0.34129588333E+01 -0.62471227145E+00 -0.33493653905E+01  0.48225306842E+01  0.51100000000E-03 0.  1.
        -12    1    3    3    0    0 -0.55467558197E+01 -0.63249804173E+01  0.28029425532E+02  0.29264664240E+02  0.00000000000E+00 0.  1.
</event>
<event>
 7    1  0.2976321E-013  0.7246149E+02  0.7816164E-02  0.1226708E+00
        -11   -1    0    0    0    0  0.00000000000E+00  0.00000000000E+00  0.45593999997E+02  0.45594000000E+02  0.51100000000E-03 0.  1.
         11   -1    0    0    0    0 -0.00000000000E+00 -0.00000000000E+00 -0.45593999997E+02  0.45594000000E+02  0.51100000000E-03 0. -1.
    9900012    2    1    2    0    0  0.15500103228E+02  0.10491698621E+02  0.59418144602E+00  0.72461494944E+02  0.69999901842E+02 0.  0.
         12    1    1    2    0    0 -0.15500103228E+02 -0.10491698621E+02 -0.59418144602E+00  0.18726505056E+02  0.00000000000E+00 0. -1.
         11    1    3    3    0    0 -0.32787838119E+01  0.60432357802E+00  0.40019058211E+01  0.52087312020E+01  0.51100000000E-03 0. -1.
        -11    1    3    3    0    0  0.38602790450E+02 -0.85653690373E+01 -0.62054722660E+01  0.40025602602E+02  0.51100000000E-03 0.  1.
         12    1    3    3    0    0 -0.19823903411E+02  0.18452744080E+02  0.27977478909E+01  0.27227161141E+02  0.00000000000E+00 0. -1.
</event>
<event>
 7    1  0.2976321E-013  0.7246158E+02  0.7816164E-02  0.1226708E+00
        -11   -1    0    0    0    0  0.00000000000E+00  0.00000000000E+00  0.45593999997E+02  0.45594000000E+02  0.51100000000E-03 0. -1.
         11   -1    0    0    0    0 -0.00000000000E+00 -0.00000000000E+00 -0.45593999997E+02  0.45594000000E+02  0.51100000000E-03 0.  1.
    9900012    2    1    2    0    0  0.92808805155E+01 -0.22365187330E+01 -0.16110306008E+02  0.72461582327E+02  0.70000015675E+02 0.  0.
         12    1    1    2    0    0 -0.92808805155E+01  0.22365187330E+01  0.16110306008E+02  0.18726417673E+02  0.00000000000E+00 0. -1.
         11    1    3    3    0    0 -0.23716266114E+02  0.33929397665E+01 -0.17795124190E+02  0.29843588320E+02  0.51100000000E-03 0. -1.
        -11    1    3    3    0    0 -0.22205990886E+01  0.28512171679E+01  0.50804857714E+01  0.62347281885E+01  0.51100000000E-03 0.  1.
        -12    1    3    3    0    0  0.35217745718E+02 -0.84806756673E+01 -0.33956675897E+01  0.36383265818E+02  0.00000000000E+00 0.  1.
</event>
<event>
 7    1  0.2976321E-013  0.7246157E+02  0.7816164E-02  0.1226708E+00
        -11   -1    0    0    0    0  0.00000000000E+00  0.00000000000E+00  0.45593999997E+02  0.45594000000E+02  0.51100000000E-03 0.  1.
         11   -1    0    0    0    0 -0.00000000000E+00 -0.00000000000E+00 -0.45593999997E+02  0.45594000000E+02  0.51100000000E-03 0. -1.
    9900012    2    1    2    0    0  0.63597553105E+01 -0.59857228404E+01  0.16565140928E+02  0.72461567892E+02  0.69999996870E+02 0.  0.
         12    1    1    2    0    0 -0.63597553105E+01  0.59857228404E+01 -0.16565140928E+02  0.18726432108E+02  0.00000000000E+00 0. -1.
         11    1    3    3    0    0  0.44559098955E+01  0.34109735354E+00  0.21316644819E+02  0.21780055716E+02  0.51100000000E-03 0. -1.
        -11    1    3    3    0    0 -0.61610890838E+00 -0.19251781274E+02  0.16711615405E+02  0.25500760030E+02  0.51100000000E-03 0.  1.
         12    1    3    3    0    0  0.25199543234E+01  0.12924961080E+02 -0.21463119296E+02  0.25180752146E+02  0.00000000000E+00 0. -1.
</event>
<event>
 7    1  0.2976321E-013  0.7246152E+02  0.7816164E-02  0.1226708E+00
        -11   -1    0    0    0    0  0.00000000000E+00  0.00000000000E+00  0.45593999997E+02  0.45594000000E+02  0.51100000000E-03 0.  1.
         11   -1    0    0    0    0 -0.00000000000E+00 -0.00000000000E+00 -0.45593999997E+02  0.45594000000E+02  0.51100000000E-03 0. -1.
    9900012    2    1    2    0    0  0.10076947202E+02 -0.15710140941E+02 -0.15256736974E+01  0.72461519457E+02  0.69999933774E+02 0.  0.
         12    1    1    2    0    0 -0.10076947202E+02  0.15710140941E+02  0.15256736974E+01  0.18726480543E+02  0.00000000000E+00 0. -1.
         11    1    3    3    0    0 -0.82452166774E+01 -0.63625611725E+01 -0.59597613713E+01  0.11999355757E+02  0.51100000000E-03 0. -1.
        -11    1    3    3    0    0  0.22562214396E+02 -0.29379234735E+02  0.11523462198E+02  0.38794112097E+02  0.51100000000E-03 0.  1.
        -12    1    3    3    0    0 -0.42400505163E+01  0.20031654967E+02 -0.70893745243E+01  0.21668051602E+02  0.00000000000E+00 0.  1.
</event>
<event>
 7    1  0.2976321E-013  0.7246157E+02  0.7816164E-02  0.1226708E+00
        -11   -1    0    0    0    0  0.00000000000E+00  0.00000000000E+00  0.45593999997E+02  0.45594000000E+02  0.51100000000E-03 0. -1.
         11   -1    0    0    0    0 -0.00000000000E+00 -0.00000000000E+00 -0.45593999997E+02  0.45594000000E+02  0.51100000000E-03 0.  1.
    9900012    2    1    2    0    0 -0.12202384144E+02 -0.11981108861E+02  0.76311345715E+01  0.72461565124E+02  0.69999993264E+02 0.  0.
         12    1    1    2    0    0  0.12202384144E+02  0.11981108861E+02 -0.76311345715E+01  0.18726434876E+02  0.00000000000E+00 0. -1.
         11    1    3    3    0    0 -0.24693073950E+02 -0.20295758085E+02  0.21989591620E+02  0.38797008096E+02  0.51100000000E-03 0. -1.
        -11    1    3    3    0    0 -0.10861623414E+01 -0.85928057575E+01 -0.53745303418E+01  0.10193215198E+02  0.51100000000E-03 0.  1.
        -12    1    3    3    0    0  0.13576852148E+02  0.16907454982E+02 -0.89839267067E+01  0.23471341829E+02  0.00000000000E+00 0.  1.
</event>
<event>
 7    1  0.2976321E-013  0.7246158E+02  0.7816164E-02  0.1226708E+00
        -11   -1    0    0    0    0  0.00000000000E+00  0.00000000000E+00  0.45593999997E+02  0.45594000000E+02  0.51100000000E-03 0. -1.
         11   -1    0    0    0    0 -0.00000000000E+00 -0.00000000000E+00 -0.45593999997E+02  0.45594000000E+02  0.51100000000E-03 0.  1.
    9900012    2    1    2    0    0 -0.15128626707E+02  0.51023259006E+01 -0.97861961096E+01  0.72461582565E+02  0.70000015985E+02 0.  0.
         12    1    1    2    0    0  0.15128626707E+02 -0.51023259006E+01  0.97861961096E+01  0.18726417435E+02  0.00000000000E+00 0. -1.
         11    1    3    3    0    0  0.44412599077E+01 -0.24650538174E+01 -0.17855566751E+02  0.18564012070E+02  0.51100000000E-03 0. -1.
        -11    1    3    3    0    0 -0.14794081518E+02 -0.14303570303E+02 -0.12009258373E+02  0.23826020614E+02  0.51100000000E-03 0.  1.
         12    1    3    3    0    0 -0.47758050966E+01  0.21870950021E+02  0.20078629015E+02  0.30071549881E+02  0.00000000000E+00 0. -1.
</event>
<event>
 7    1  0.2976321E-013  0.7246143E+02  0.7816164E-02  0.1226708E+00
        -11   -1    0    0    0    0  0.00000000000E+00  0.00000000000E+00  0.45593999997E+02  0.45594000000E+02  0.51100000000E-03 0.  1.
         11   -1    0    0    0    0 -0.00000000000E+00 -0.00000000000E+00 -0.45593999997E+02  0.45594000000E+02  0.51100000000E-03 0. -1.
    9900012    2    1    2    0    0 -0.10215883914E+02  0.88607700792E+01  0.12954027438E+02  0.72461431777E+02  0.69999819556E+02 0.  0.
         12    1    1    2    0    0  0.10215883914E+02 -0.88607700792E+01 -0.12954027438E+02  0.18726568223E+02  0.00000000000E+00 0. -1.
         11    1    3    3    0    0 -0.99326362374E+00  0.31476489755E+02 -0.55754097517E+01  0.31981888219E+02  0.51100000000E-03 0. -1.
        -11    1    3    3    0    0 -0.11488569950E+01  0.52432658724E+01  0.79760097532E+01  0.96139711487E+01  0.51100000000E-03 0.  1.
        -12    1    3    3    0    0 -0.80737632954E+01 -0.27858985548E+02  0.10553427436E+02  0.30865572409E+02  0.00000000000E+00 0.  1.
</event>
<event>
 7    1  0.2976321E-013  0.7246149E+02  0.7816164E-02  0.1226708E+00
        -11   -1    0    0    0    0  0.00000000000E+00  0.00000000000E+00  0.45593999997E+02  0.45594000000E+02  0.51100000000E-03 0.  1.
         11   -1    0    0    0    0 -0.00000000000E+00 -0.00000000000E+00 -0.45593999997E+02  0.45594000000E+02  0.51100000000E-03 0. -1.
    9900012    2    1    2    0    0  0.17056132088E+02  0.89887710052E+00  0.76787035055E+01  0.72461491800E+02  0.69999897747E+02 0.  0.
         12    1    1    2    0    0 -0.17056132088E+02 -0.89887710052E+00 -0.76787035055E+01  0.18726508200E+02  0.00000000000E+00 0. -1.
         11    1    3    3    0    0 -0.12168722933E+02  0.51256309343E+01  0.90290485682E+01  0.15996050407E+02  0.51100000000E-03 0. -1.
        -11    1    3    3    0    0 -0.13661931728E+01 -0.21021111887E+02 -0.40949839320E+01  0.21459788499E+02  0.51100000000E-03 0.  1.
         12    1    3    3    0    0  0.30591048194E+02  0.16794358053E+02  0.27446388692E+01  0.35005652894E+02  0.00000000000E+00 0. -1.
</event>
<event>
 7    1  0.2976321E-013  0.7246183E+02  0.7816164E-02  0.1226707E+00
        -11   -1    0    0    0    0  0.00000000000E+00  0.00000000000E+00  0.45593999997E+02  0.45594000000E+02  0.51100000000E-03 0. -1.
         11   -1    0    0    0    0 -0.00000000000E+00 -0.00000000000E+00 -0.45593999997E+02  0.45594000000E+02  0.51100000000E-03 0.  1.
    9900012    2    1    2    0    0 -0.89964113273E+00  0.11182201531E+02 -0.14993942879E+02  0.72461833592E+02  0.70000342994E+02 0.  0.
         12    1    1    2    0    0  0.89964113273E+00 -0.11182201531E+02  0.14993942879E+02  0.18726166408E+02  0.00000000000E+00 0. -1.
         11    1    3    3    0    0  0.17531857249E+02  0.15669117549E+01  0.80194541056E+00  0.17619998517E+02  0.51100000000E-03 0. -1.
        -11    1    3    3    0    0  0.78715544924E-01 -0.26027487803E+01  0.15924863743E+02  0.16136349737E+02  0.51100000000E-03 0.  1.
        -12    1    3    3    0    0 -0.18510213926E+02  0.12218038557E+02 -0.31720752033E+02  0.38705485338E+02  0.00000000000E+00 0.  1.
</event>
<event>
 7    1  0.2976321E-013  0.7246156E+02  0.7816164E-02  0.1226708E+00
        -11   -1    0    0    0    0  0.00000000000E+00  0.00000000000E+00  0.45593999997E+02  0.45594000000E+02  0.51100000000E-03 0.  1.
         11   -1    0    0    0    0 -0.00000000000E+00 -0.00000000000E+00 -0.45593999997E+02  0.45594000000E+02  0.51100000000E-03 0. -1.
    9900012    2    1    2    0    0  0.79630127526E+01  0.85915149679E+01  0.14610134636E+02  0.72461555180E+02  0.69999980310E+02 0.  0.
         12    1    1    2    0    0 -0.79630127526E+01 -0.85915149679E+01 -0.14610134636E+02  0.18726444820E+02  0.00000000000E+00 0. -1.
         11    1    3    3    0    0  0.15556178161E+01  0.42617556741E+01 -0.23190982612E+02  0.23630577289E+02  0.51100000000E-03 0. -1.
        -11    1    3    3    0    0 -0.11826250092E+02  0.40703316092E+01  0.17924154263E+02  0.21856420040E+02  0.51100000000E-03 0.  1.
        -12    1    3    3    0    0  0.18233645029E+02  0.25942768458E+00  0.19876962984E+02  0.26974557851E+02  0.00000000000E+00 0.  1.
</event>
<event>
 7    1  0.3373362E-013  0.7246160E+02  0.7816164E-02  0.1226708E+00
        -11   -1    0    0    0    0  0.00000000000E+00  0.00000000000E+00  0.45593999997E+02  0.45594000000E+02  0.51100000000E-03 0. -1.
         11   -1    0    0    0    0 -0.00000000000E+00 -0.00000000000E+00 -0.45593999997E+02  0.45594000000E+02  0.51100000000E-03 0.  1.
    9900012    2    1    2    0    0 -0.89144638883E+01  0.82212073264E+01 -0.14269625823E+02  0.72461597851E+02  0.70000035897E+02 0.  0.
         12    1    1    2    0    0  0.89144638883E+01 -0.82212073264E+01  0.14269625823E+02  0.18726402149E+02  0.00000000000E+00 0. -1.
         11    1    3    3    0    0  0.17772298242E+02 -0.93285790526E+01  0.13256009144E+02  0.24054079709E+02  0.51100000000E-03 0. -1.
        -11    1    3    3    0    0 -0.46571922438E+01  0.37184140385E+01  0.42671189579E+01  0.73296894217E+01  0.51100000000E-03 0.  1.
        -12    1    3    3    0    0 -0.22029569887E+02  0.13831372341E+02 -0.31792753925E+02  0.41077828720E+02  0.00000000000E+00 0.  1.
</event>
<event>
 7    1  0.2976321E-013  0.7246156E+02  0.7816164E-02  0.1226708E+00
        -11   -1    0    0    0    0  0.00000000000E+00  0.00000000000E+00  0.45593999997E+02  0.45594000000E+02  0.51100000000E-03 0. -1.
         11   -1    0    0    0    0 -0.00000000000E+00 -0.00000000000E+00 -0.45593999997E+02  0.45594000000E+02  0.51100000000E-03 0.  1.
    9900012    2    1    2    0    0 -0.16522765703E+01  0.16643455720E+02 -0.84228708262E+01  0.72461564431E+02  0.69999992362E+02 0.  0.
         12    1    1    2    0    0  0.16522765703E+01 -0.16643455720E+02  0.84228708262E+01  0.18726435569E+02  0.00000000000E+00 0. -1.
         11    1    3    3    0    0  0.65759872199E+01  0.27377069223E+02 -0.19455107063E+01  0.28222908059E+02  0.51100000000E-03 0. -1.
        -11    1    3    3    0    0 -0.20324447320E+01  0.65012302625E+01  0.14723343272E+02  0.16222628143E+02  0.51100000000E-03 0.  1.
         12    1    3    3    0    0 -0.61958190582E+01 -0.17234843766E+02 -0.21200703392E+02  0.28016028229E+02  0.00000000000E+00 0. -1.
</event>
<event>
 7    1  0.2976321E-013  0.7246155E+02  0.7816164E-02  0.1226708E+00
        -11   -1    0    0    0    0  0.00000000000E+00  0.00000000000E+00  0.45593999997E+02  0.45594000000E+02  0.51100000000E-03 0. -1.
         11   -1    0    0    0    0 -0.00000000000E+00 -0.00000000000E+00 -0.45593999997E+02  0.45594000000E+02  0.51100000000E-03 0.  1.
    9900012    2    1    2    0    0 -0.16666556384E+02 -0.59780999093E+00 -0.85175359866E+01  0.72461550850E+02  0.69999974670E+02 0.  0.
         12    1    1    2    0    0  0.16666556384E+02  0.59780999093E+00  0.85175359866E+01  0.18726449150E+02  0.00000000000E+00 0. -1.
         11    1    3    3    0    0 -0.36763363745E+01 -0.18772232662E+01 -0.54041616178E+00  0.41631077596E+01  0.51100000000E-03 0.  1.
        -11    1    3    3    0    0 -0.10036252646E+02 -0.21906293299E+02  0.20373988478E+02  0.31554895976E+02  0.51100000000E-03 0. -1.
        -12    1    3    3    0    0 -0.29539673639E+01  0.23185706575E+02 -0.28351108303E+02  0.36743547114E+02  0.00000000000E+00 0.  1.
</event>
<event>
 7    1  0.2976321E-013  0.7246174E+02  0.7816164E-02  0.1226708E+00
        -11   -1    0    0    0    0  0.00000000000E+00  0.00000000000E+00  0.45593999997E+02  0.45594000000E+02  0.51100000000E-03 0.  1.
         11   -1    0    0    0    0 -0.00000000000E+00 -0.00000000000E+00 -0.45593999997E+02  0.45594000000E+02  0.51100000000E-03 0. -1.
    9900012    2    1    2    0    0  0.15450019403E+02 -0.61938092222E+01  0.85794265216E+01  0.72461736847E+02  0.70000216965E+02 0.  0.
         12    1    1    2    0    0 -0.15450019403E+02  0.61938092222E+01 -0.85794265216E+01  0.18726263153E+02  0.00000000000E+00 0. -1.
         11    1    3    3    0    0  0.13789942553E+02 -0.71057988942E+00 -0.11701306164E+02  0.18099392410E+02  0.51100000000E-03 0. -1.
        -11    1    3    3    0    0  0.39442719700E+01  0.21330839570E+02  0.16353449490E+02  0.27166105878E+02  0.51100000000E-03 0.  1.
         12    1    3    3    0    0 -0.22841951200E+01 -0.26814068902E+02  0.39272831955E+01  0.27196238559E+02  0.00000000000E+00 0. -1.
</event>
<event>
 7    1  0.2976321E-013  0.7246161E+02  0.7816164E-02  0.1226708E+00
        -11   -1    0    0    0    0  0.00000000000E+00  0.00000000000E+00  0.45593999997E+02  0.45594000000E+02  0.51100000000E-03 0.  1.
         11   -1    0    0    0    0 -0.00000000000E+00 -0.00000000000E+00 -0.45593999997E+02  0.45594000000E+02  0.51100000000E-03 0. -1.
    9900012    2    1    2    0    0 -0.14109462153E+02  0.19170080689E+01  0.12162474234E+02  0.72461611622E+02  0.70000053836E+02 0.  0.
         12    1    1    2    0    0  0.14109462153E+02 -0.19170080689E+01 -0.12162474234E+02  0.18726388378E+02  0.00000000000E+00 0. -1.
         11    1    3    3    0    0  0.17096439508E+02 -0.43250876024E+01 -0.66440146672E+01  0.18845093732E+02  0.51100000000E-03 0. -1.
        -11    1    3    3    0    0  0.40314350971E+01  0.68766548351E+01 -0.64533317422E+01  0.10256039270E+02  0.51100000000E-03 0.  1.
        -12    1    3    3    0    0 -0.35237336759E+02 -0.63455916379E+00  0.25259820644E+02  0.43360478620E+02  0.00000000000E+00 0.  1.
</event>
<event>
 7    1  0.2976321E-013  0.7246163E+02  0.7816164E-02  0.1226708E+00
        -11   -1    0    0    0    0  0.00000000000E+00  0.00000000000E+00  0.45593999997E+02  0.45594000000E+02  0.51100000000E-03 0. -1.
         11   -1    0    0    0    0 -0.00000000000E+00 -0.00000000000E+00 -0.45593999997E+02  0.45594000000E+02  0.51100000000E-03 0.  1.
    9900012    2    1    2    0    0  0.11620241887E+02 -0.83962620924E+01 -0.12047810525E+02  0.72461628833E+02  0.70000076257E+02 0.  0.
         12    1    1    2    0    0 -0.11620241887E+02  0.83962620924E+01  0.12047810525E+02  0.18726371167E+02  0.00000000000E+00 0. -1.
         11    1    3    3    0    0 -0.42629331838E+01 -0.43563701818E+01  0.11372364919E+02  0.12902761124E+02  0.51100000000E-03 0. -1.
        -11    1    3    3    0    0 -0.14211399619E+02  0.13771185516E+02 -0.86766011596E+01  0.21607703200E+02  0.51100000000E-03 0.  1.
         12    1    3    3    0    0  0.30094574690E+02 -0.17811077427E+02 -0.14743574285E+02  0.37951164509E+02  0.00000000000E+00 0. -1.
</event>
<event>
 7    1  0.2976321E-013  0.7246156E+02  0.7816164E-02  0.1226708E+00
        -11   -1    0    0    0    0  0.00000000000E+00  0.00000000000E+00  0.45593999997E+02  0.45594000000E+02  0.51100000000E-03 0.  1.
         11   -1    0    0    0    0 -0.00000000000E+00 -0.00000000000E+00 -0.45593999997E+02  0.45594000000E+02  0.51100000000E-03 0. -1.
    9900012    2    1    2    0    0  0.58859967473E+01 -0.90664881507E+01  0.15291616599E+02  0.72461556042E+02  0.69999981434E+02 0.  0.
         12    1    1    2    0    0 -0.58859967473E+01  0.90664881507E+01 -0.15291616599E+02  0.18726443958E+02  0.00000000000E+00 0. -1.
         11    1    3    3    0    0  0.19926011406E+02  0.11315105272E+01  0.19617258116E+02  0.27985050704E+02  0.51100000000E-03 0. -1.
        -11    1    3    3    0    0 -0.71988050168E+00 -0.24393600777E+02  0.54388449810E+00  0.24410280568E+02  0.51100000000E-03 0.  1.
         12    1    3    3    0    0 -0.13320134157E+02  0.14195602099E+02 -0.48695260149E+01  0.20066224770E+02  0.00000000000E+00 0. -1.
</event>
<event>
 7    1  0.2976321E-013  0.7246182E+02  0.7816164E-02  0.1226707E+00
        -11   -1    0    0    0    0  0.00000000000E+00  0.00000000000E+00  0.45593999997E+02  0.45594000000E+02  0.51100000000E-03 0.  1.
         11   -1    0    0    0    0 -0.00000000000E+00 -0.00000000000E+00 -0.45593999997E+02  0.45594000000E+02  0.51100000000E-03 0. -1.
    9900012    2    1    2    0    0  0.15307647683E+02 -0.95353147828E+01  0.50421754725E+01  0.72461819421E+02  0.70000324533E+02 0.  0.
         12    1    1    2    0    0 -0.15307647683E+02  0.95353147828E+01 -0.50421754725E+01  0.18726180579E+02  0.00000000000E+00 0. -1.
         11    1    3    3    0    0  0.29843105328E+00 -0.22571940176E+02 -0.11541418344E+02  0.25353222321E+02  0.51100000000E-03 0. -1.
        -11    1    3    3    0    0  0.18365893736E+02 -0.99088395840E+01  0.69183548014E+01  0.21985331201E+02  0.51100000000E-03 0.  1.
        -12    1    3    3    0    0 -0.33566771060E+01  0.22945464977E+02  0.96652390156E+01  0.25123265899E+02  0.00000000000E+00 0.  1.
</event>
<event>
 7    1  0.2976321E-013  0.7246157E+02  0.7816164E-02  0.1226708E+00
        -11   -1    0    0    0    0  0.00000000000E+00  0.00000000000E+00  0.45593999997E+02  0.45594000000E+02  0.51100000000E-03 0.  1.
         11   -1    0    0    0    0 -0.00000000000E+00 -0.00000000000E+00 -0.45593999997E+02  0.45594000000E+02  0.51100000000E-03 0. -1.
    9900012    2    1    2    0    0 -0.60236312655E+01  0.98534221625E+01  0.14741269561E+02  0.72461572412E+02  0.70000002759E+02 0.  0.
         12    1    1    2    0    0  0.60236312655E+01 -0.98534221625E+01 -0.14741269561E+02  0.18726427588E+02  0.00000000000E+00 0. -1.
         11    1    3    3    0    0 -0.14717122037E+02  0.29857930015E+02  0.30561562219E+01  0.33427978655E+02  0.51100000000E-03 0. -1.
        -11    1    3    3    0    0  0.57476814799E+00 -0.10959922542E+01  0.17583606271E+02  0.17627103199E+02  0.51100000000E-03 0.  1.
        -12    1    3    3    0    0  0.81187226233E+01 -0.18908515598E+02 -0.58984929317E+01  0.21406490558E+02  0.00000000000E+00 0.  1.
</event>
<event>
 7    1  0.2976321E-013  0.7246159E+02  0.7816164E-02  0.1226708E+00
        -11   -1    0    0    0    0  0.00000000000E+00  0.00000000000E+00  0.45593999997E+02  0.45594000000E+02  0.51100000000E-03 0. -1.
         11   -1    0    0    0    0 -0.00000000000E+00 -0.00000000000E+00 -0.45593999997E+02  0.45594000000E+02  0.51100000000E-03 0.  1.
    9900012    2    1    2    0    0  0.70541393186E+01  0.13014207595E+02  0.11469441222E+02  0.72461586493E+02  0.70000021102E+02 0.  0.
         12    1    1    2    0    0 -0.70541393186E+01 -0.13014207595E+02 -0.11469441222E+02  0.18726413507E+02  0.00000000000E+00 0. -1.
         11    1    3    3    0    0 -0.46269970266E+01  0.28037505867E+01  0.21305069697E+00  0.54143798996E+01  0.51100000000E-03 0. -1.
        -11    1    3    3    0    0  0.15705115232E+02 -0.53419953479E+01 -0.23495706954E+02  0.28761707256E+02  0.51100000000E-03 0.  1.
         12    1    3    3    0    0 -0.40239788867E+01  0.15552452357E+02  0.34752097479E+02  0.38285499338E+02  0.00000000000E+00 0. -1.
</event>
<event>
 7    1  0.2976321E-013  0.7246157E+02  0.7816164E-02  0.1226708E+00
        -11   -1    0    0    0    0  0.00000000000E+00  0.00000000000E+00  0.45593999997E+02  0.45594000000E+02  0.51100000000E-03 0. -1.
         11   -1    0    0    0    0 -0.00000000000E+00 -0.00000000000E+00 -0.45593999997E+02  0.45594000000E+02  0.51100000000E-03 0.  1.
    9900012    2    1    2    0    0 -0.53515483896E+01 -0.17819596197E+02 -0.21218435539E+01  0.72461566841E+02  0.69999995502E+02 0.  0.
         12    1    1    2    0    0  0.53515483896E+01  0.17819596197E+02  0.21218435539E+01  0.18726433159E+02  0.00000000000E+00 0. -1.
         11    1    3    3    0    0 -0.33217917124E+01 -0.65623621322E+01  0.23559864684E+02  0.24681290913E+02  0.51100000000E-03 0. -1.
        -11    1    3    3    0    0 -0.10642584970E+02 -0.14604299713E+02  0.23888858791E+01  0.18227917076E+02  0.51100000000E-03 0.  1.
        -12    1    3    3    0    0  0.86128282925E+01  0.33470656482E+01 -0.28070594117E+02  0.29552358852E+02  0.00000000000E+00 0.  1.
</event>
<event>
 7    1  0.2976321E-013  0.7246162E+02  0.7816164E-02  0.1226708E+00
        -11   -1    0    0    0    0  0.00000000000E+00  0.00000000000E+00  0.45593999997E+02  0.45594000000E+02  0.51100000000E-03 0.  1.
         11   -1    0    0    0    0 -0.00000000000E+00 -0.00000000000E+00 -0.45593999997E+02  0.45594000000E+02  0.51100000000E-03 0. -1.
    9900012    2    1    2    0    0  0.13885742087E+02 -0.52006473661E+00  0.12553612471E+02  0.72461615226E+02  0.70000058532E+02 0.  0.
         12    1    1    2    0    0 -0.13885742087E+02  0.52006473661E+00 -0.12553612471E+02  0.18726384774E+02  0.00000000000E+00 0. -1.
         11    1    3    3    0    0 -0.25165463684E+01  0.14450241268E+02 -0.68271204752E+01  0.16178753122E+02  0.51100000000E-03 0. -1.
        -11    1    3    3    0    0  0.45822452290E+01  0.15906579598E+02 -0.23490165495E+01  0.16719274053E+02  0.51100000000E-03 0.  1.
        -12    1    3    3    0    0  0.11820043226E+02 -0.30876885602E+02  0.21729749495E+02  0.39563588052E+02  0.00000000000E+00 0.  1.
</event>
<event>
 7    1  0.2976321E-013  0.7246148E+02  0.7816164E-02  0.1226708E+00
        -11   -1    0    0    0    0  0.00000000000E+00  0.00000000000E+00  0.45593999997E+02  0.45594000000E+02  0.51100000000E-03 0. -1.
         11   -1    0    0    0    0 -0.00000000000E+00 -0.00000000000E+00 -0.45593999997E+02  0.45594000000E+02  0.51100000000E-03 0.  1.
    9900012    2    1    2    0    0  0.17829181436E+02 -0.18273280164E-01 -0.57273431227E+01  0.72461481268E+02  0.69999884026E+02 0.  0.
         12    1    1    2    0    0 -0.17829181436E+02  0.18273280164E-01  0.57273431227E+01  0.18726518732E+02  0.00000000000E+00 0. -1.
         11    1    3    3    0    0  0.12825652001E+02 -0.52829536985E+01  0.14798621992E+02  0.20283149709E+02  0.51100000000E-03 0. -1.
        -11    1    3    3    0    0  0.20277964451E+02 -0.12101997127E+01 -0.27493808869E+02  0.34184352444E+02  0.51100000000E-03 0.  1.
         12    1    3    3    0    0 -0.15274435016E+02  0.64748801311E+01  0.69678437548E+01  0.17993979114E+02  0.00000000000E+00 0. -1.
</event>
<event>
 7    1  0.2976321E-013  0.7246166E+02  0.7816164E-02  0.1226708E+00
        -11   -1    0    0    0    0  0.00000000000E+00  0.00000000000E+00  0.45593999997E+02  0.45594000000E+02  0.51100000000E-03 0.  1.
         11   -1    0    0    0    0 -0.00000000000E+00 -0.00000000000E+00 -0.45593999997E+02  0.45594000000E+02  0.51100000000E-03 0. -1.
    9900012    2    1    2    0    0  0.14416665394E+02  0.84367455652E+01  0.84650417272E+01  0.72461658973E+02  0.70000115520E+02 0.  0.
         12    1    1    2    0    0 -0.14416665394E+02 -0.84367455652E+01 -0.84650417272E+01  0.18726341027E+02  0.00000000000E+00 0. -1.
         11    1    3    3    0    0  0.82129749165E+01 -0.41697803984E+01 -0.18340839097E+02  0.20523800930E+02  0.51100000000E-03 0. -1.
        -11    1    3    3    0    0 -0.75182133231E+00 -0.14713271574E+02  0.29889341334E+01  0.15032608664E+02  0.51100000000E-03 0.  1.
        -12    1    3    3    0    0  0.69555118103E+01  0.27319797538E+02  0.23816946691E+02  0.36905249379E+02  0.00000000000E+00 0.  1.
</event>
<event>
 7    1  0.2976321E-013  0.7246163E+02  0.7816164E-02  0.1226708E+00
        -11   -1    0    0    0    0  0.00000000000E+00  0.00000000000E+00  0.45593999997E+02  0.45594000000E+02  0.51100000000E-03 0. -1.
         11   -1    0    0    0    0 -0.00000000000E+00 -0.00000000000E+00 -0.45593999997E+02  0.45594000000E+02  0.51100000000E-03 0.  1.
    9900012    2    1    2    0    0  0.71245869104E+01 -0.93673481762E+01 -0.14566057533E+02  0.72461628687E+02  0.70000076067E+02 0.  0.
         12    1    1    2    0    0 -0.71245869104E+01  0.93673481762E+01  0.14566057533E+02  0.18726371313E+02  0.00000000000E+00 0. -1.
         11    1    3    3    0    0 -0.10121239347E+02 -0.40967148126E+01  0.18800614675E+02  0.21741335529E+02  0.51100000000E-03 0. -1.
        -11    1    3    3    0    0  0.70745223833E+01 -0.11162883301E+01  0.63132511401E+01  0.95473612484E+01  0.51100000000E-03 0.  1.
        -12    1    3    3    0    0  0.10171303874E+02 -0.41543450335E+01 -0.39679923348E+02  0.41172931910E+02  0.00000000000E+00 0.  1.
</event>
<event>
 7    1  0.2976321E-013  0.7246155E+02  0.7816164E-02  0.1226708E+00
        -11   -1    0    0    0    0  0.00000000000E+00  0.00000000000E+00  0.45593999997E+02  0.45594000000E+02  0.51100000000E-03 0.  1.
         11   -1    0    0    0    0 -0.00000000000E+00 -0.00000000000E+00 -0.45593999997E+02  0.45594000000E+02  0.51100000000E-03 0. -1.
    9900012    2    1    2    0    0 -0.13187370756E+02 -0.13269379184E+02  0.83468438948E+00  0.72461551607E+02  0.69999975656E+02 0.  0.
         12    1    1    2    0    0  0.13187370756E+02  0.13269379184E+02 -0.83468438948E+00  0.18726448393E+02  0.00000000000E+00 0. -1.
         11    1    3    3    0    0  0.10524761201E+02  0.50256771408E+00 -0.14657538973E+02  0.18051776135E+02  0.51100000000E-03 0. -1.
        -11    1    3    3    0    0  0.75163172866E+01 -0.39819063481E+01  0.19657347637E+02  0.21418728256E+02  0.51100000000E-03 0.  1.
        -12    1    3    3    0    0 -0.31228449243E+02 -0.97900405504E+01 -0.41651242753E+01  0.32991047215E+02  0.00000000000E+00 0.  1.
</event>
<event>
 7    1  0.2976321E-013  0.7246148E+02  0.7816164E-02  0.1226708E+00
        -11   -1    0    0    0    0  0.00000000000E+00  0.00000000000E+00  0.45593999997E+02  0.45594000000E+02  0.51100000000E-03 0. -1.
         11   -1    0    0    0    0 -0.00000000000E+00 -0.00000000000E+00 -0.45593999997E+02  0.45594000000E+02  0.51100000000E-03 0.  1.
    9900012    2    1    2    0    0 -0.14700058809E+02 -0.74110441582E+01 -0.89256442548E+01  0.72461483243E+02  0.69999886599E+02 0.  0.
         12    1    1    2    0    0  0.14700058809E+02  0.74110441582E+01  0.89256442548E+01  0.18726516757E+02  0.00000000000E+00 0. -1.
         11    1    3    3    0    0  0.17794331851E+01 -0.74557978771E+01 -0.12867737356E+02  0.14977782525E+02  0.51100000000E-03 0. -1.
        -11    1    3    3    0    0 -0.24568446253E+02 -0.14366093558E+02 -0.15142825145E+02  0.32238150521E+02  0.51100000000E-03 0.  1.
         12    1    3    3    0    0  0.80889542595E+01  0.14410847277E+02  0.19084918246E+02  0.25245550196E+02  0.00000000000E+00 0. -1.
</event>
<event>
 7    1  0.2976321E-013  0.7246133E+02  0.7816164E-02  0.1226709E+00
        -11   -1    0    0    0    0  0.00000000000E+00  0.00000000000E+00  0.45593999997E+02  0.45594000000E+02  0.51100000000E-03 0. -1.
         11   -1    0    0    0    0 -0.00000000000E+00 -0.00000000000E+00 -0.45593999997E+02  0.45594000000E+02  0.51100000000E-03 0.  1.
    9900012    2    1    2    0    0  0.13634020677E+02 -0.11822271119E+02 -0.50035381123E+01  0.72461334309E+02  0.69999692585E+02 0.  0.
         12    1    1    2    0    0 -0.13634020677E+02  0.11822271119E+02  0.50035381123E+01  0.18726665691E+02  0.00000000000E+00 0. -1.
         11    1    3    3    0    0  0.20884903924E+02 -0.95324457539E+00 -0.28586262657E+02  0.35415565788E+02  0.51100000000E-03 0. -1.
        -11    1    3    3    0    0  0.36672204016E+01 -0.97960063837E+01 -0.61422585135E+00  0.10477954008E+02  0.51100000000E-03 0.  1.
         12    1    3    3    0    0 -0.10918103648E+02 -0.10730201604E+01  0.24196950396E+02  0.26567814513E+02  0.00000000000E+00 0. -1.
</event>
<event>
 7    1  0.2976321E-013  0.7246156E+02  0.7816164E-02  0.1226708E+00
        -11   -1    0    0    0    0  0.00000000000E+00  0.00000000000E+00  0.45593999997E+02  0.45594000000E+02  0.51100000000E-03 0. -1.
         11   -1    0    0    0    0 -0.00000000000E+00 -0.00000000000E+00 -0.45593999997E+02  0.45594000000E+02  0.51100000000E-03 0.  1.
    9900012    2    1    2    0    0  0.15369184820E+02 -0.74185944926E+01 -0.77092260786E+01  0.72461560055E+02  0.69999986662E+02 0.  0.
         12    1    1    2    0    0 -0.15369184820E+02  0.74185944926E+01  0.77092260786E+01  0.18726439945E+02  0.00000000000E+00 0. -1.
         11    1    3    3    0    0  0.31453918984E+01 -0.29526965976E+01  0.21739387422E+02  0.22163322701E+02  0.51100000000E-03 0. -1.
        -11    1    3    3    0    0 -0.57773069299E+01  0.12943249289E+02 -0.43100074007E+01  0.14814895936E+02  0.51100000000E-03 0.  1.
        -12    1    3    3    0    0  0.18001099852E+02 -0.17409147184E+02 -0.25138606100E+02  0.35483341418E+02  0.00000000000E+00 0.  1.
</event>
<event>
 7    1  0.2976321E-013  0.7246153E+02  0.7816164E-02  0.1226708E+00
        -11   -1    0    0    0    0  0.00000000000E+00  0.00000000000E+00  0.45593999997E+02  0.45594000000E+02  0.51100000000E-03 0.  1.
         11   -1    0    0    0    0 -0.00000000000E+00 -0.00000000000E+00 -0.45593999997E+02  0.45594000000E+02  0.51100000000E-03 0. -1.
    9900012    2    1    2    0    0  0.65655813613E+01 -0.17490034460E+02  0.12932821457E+01  0.72461528289E+02  0.69999945280E+02 0.  0.
         12    1    1    2    0    0 -0.65655813613E+01  0.17490034460E+02 -0.12932821457E+01  0.18726471711E+02  0.00000000000E+00 0. -1.
         11    1    3    3    0    0 -0.38426467571E+01 -0.11997329595E+02 -0.13874897388E+02  0.18740721152E+02  0.51100000000E-03 0. -1.
        -11    1    3    3    0    0  0.21346068410E+02 -0.22134683003E+02  0.13955972623E+02  0.33769335207E+02  0.51100000000E-03 0.  1.
        -12    1    3    3    0    0 -0.10937840292E+02  0.16641978138E+02  0.12122069099E+01  0.19951471930E+02  0.00000000000E+00 0.  1.
</event>
<event>
 7    1  0.2976321E-013  0.7246158E+02  0.7816164E-02  0.1226708E+00
        -11   -1    0    0    0    0  0.00000000000E+00  0.00000000000E+00  0.45593999997E+02  0.45594000000E+02  0.51100000000E-03 0.  1.
         11   -1    0    0    0    0 -0.00000000000E+00 -0.00000000000E+00 -0.45593999997E+02  0.45594000000E+02  0.51100000000E-03 0. -1.
    9900012    2    1    2    0    0 -0.50622867546E+01 -0.16352883785E+02  0.75917789206E+01  0.72461583833E+02  0.70000017637E+02 0.  0.
         12    1    1    2    0    0  0.50622867546E+01  0.16352883785E+02 -0.75917789206E+01  0.18726416167E+02  0.00000000000E+00 0. -1.
         11    1    3    3    0    0  0.54625888273E+01  0.91904718063E+01 -0.19027548674E+01  0.10859333546E+02  0.51100000000E-03 0. -1.
        -11    1    3    3    0    0  0.19063152595E+02 -0.53264968021E+01  0.15661647872E+02  0.25240098442E+02  0.51100000000E-03 0.  1.
         12    1    3    3    0    0 -0.29588028177E+02 -0.20216858789E+02 -0.61671140840E+01  0.36362151845E+02  0.00000000000E+00 0. -1.
</event>
<event>
 7    1  0.2976321E-013  0.7246157E+02  0.7816164E-02  0.1226708E+00
        -11   -1    0    0    0    0  0.00000000000E+00  0.00000000000E+00  0.45593999997E+02  0.45594000000E+02  0.51100000000E-03 0.  1.
         11   -1    0    0    0    0 -0.00000000000E+00 -0.00000000000E+00 -0.45593999997E+02  0.45594000000E+02  0.51100000000E-03 0. -1.
    9900012    2    1    2    0    0  0.29798390966E+01  0.16362297156E+02  0.86066749408E+01  0.72461573144E+02  0.70000003712E+02 0.  0.
         12    1    1    2    0    0 -0.29798390966E+01 -0.16362297156E+02 -0.86066749408E+01  0.18726426856E+02  0.00000000000E+00 0. -1.
         11    1    3    3    0    0  0.22562634293E+02  0.13066794109E+02 -0.11329271809E+02  0.28428260139E+02  0.51100000000E-03 0. -1.
        -11    1    3    3    0    0 -0.13438488112E+02  0.13165640420E+02 -0.22883547378E+01  0.18951612545E+02  0.51100000000E-03 0.  1.
         12    1    3    3    0    0 -0.61443070851E+01 -0.98701373732E+01  0.22224301488E+02  0.25081700459E+02  0.00000000000E+00 0. -1.
</event>
<event>
 7    1  0.2976321E-013  0.7246156E+02  0.7816164E-02  0.1226708E+00
        -11   -1    0    0    0    0  0.00000000000E+00  0.00000000000E+00  0.45593999997E+02  0.45594000000E+02  0.51100000000E-03 0.  1.
         11   -1    0    0    0    0 -0.00000000000E+00 -0.00000000000E+00 -0.45593999997E+02  0.45594000000E+02  0.51100000000E-03 0. -1.
    9900012    2    1    2    0    0 -0.13232644981E+01  0.16080299527E+02  0.95053895044E+01  0.72461561699E+02  0.69999988803E+02 0.  0.
         12    1    1    2    0    0  0.13232644981E+01 -0.16080299527E+02 -0.95053895044E+01  0.18726438301E+02  0.00000000000E+00 0. -1.
         11    1    3    3    0    0 -0.11952802923E+02 -0.12197434657E+02  0.14603899506E+02  0.22470442607E+02  0.51100000000E-03 0.  1.
        -11    1    3    3    0    0  0.57502280750E+01 -0.41888128125E+01 -0.14233855342E+02  0.15912696624E+02  0.51100000000E-03 0. -1.
        -12    1    3    3    0    0  0.48793103498E+01  0.32466546996E+02  0.91353453410E+01  0.34078422467E+02  0.00000000000E+00 0.  1.
</event>
<event>
 7    1  0.2976321E-013  0.7246159E+02  0.7816164E-02  0.1226708E+00
        -11   -1    0    0    0    0  0.00000000000E+00  0.00000000000E+00  0.45593999997E+02  0.45594000000E+02  0.51100000000E-03 0.  1.
         11   -1    0    0    0    0 -0.00000000000E+00 -0.00000000000E+00 -0.45593999997E+02  0.45594000000E+02  0.51100000000E-03 0. -1.
    9900012    2    1    2    0    0 -0.23109172790E+01  0.18139655138E+02  0.40361887363E+01  0.72461594934E+02  0.70000032097E+02 0.  0.
         12    1    1    2    0    0  0.23109172790E+01 -0.18139655138E+02 -0.40361887363E+01  0.18726405066E+02  0.00000000000E+00 0. -1.
         11    1    3    3    0    0  0.14277463367E+02  0.20616292542E+02  0.63750983124E+01  0.25875072118E+02  0.51100000000E-03 0.  1.
        -11    1    3    3    0    0 -0.27807053782E+02  0.42469311878E+01  0.87290856605E+01  0.29452768992E+02  0.51100000000E-03 0. -1.
         12    1    3    3    0    0  0.11218673136E+02 -0.67235685918E+01 -0.11067995237E+02  0.17133753824E+02  0.00000000000E+00 0. -1.
</event>
<event>
 7    1  0.2976321E-013  0.7246168E+02  0.7816164E-02  0.1226708E+00
        -11   -1    0    0    0    0  0.00000000000E+00  0.00000000000E+00  0.45593999997E+02  0.45594000000E+02  0.51100000000E-03 0.  1.
         11   -1    0    0    0    0 -0.00000000000E+00 -0.00000000000E+00 -0.45593999997E+02  0.45594000000E+02  0.51100000000E-03 0. -1.
    9900012    2    1    2    0    0  0.90711509269E+01  0.26479330538E+01  0.16167182011E+02  0.72461678878E+02  0.70000141450E+02 0.  0.
         12    1    1    2    0    0 -0.90711509269E+01 -0.26479330538E+01 -0.16167182011E+02  0.18726321122E+02  0.00000000000E+00 0. -1.
         11    1    3    3    0    0 -0.39602222769E+01  0.32485694462E+01 -0.58273794451E+01  0.77585382249E+01  0.51100000000E-03 0. -1.
        -11    1    3    3    0    0  0.31291571690E+01 -0.23462716440E+02  0.30291952718E+02  0.38443375074E+02  0.51100000000E-03 0.  1.
         12    1    3    3    0    0  0.99022160348E+01  0.22862080048E+02 -0.82973912620E+01  0.26259765579E+02  0.00000000000E+00 0. -1.
</event>
<event>
 7    1  0.2976321E-013  0.7246156E+02  0.7816164E-02  0.1226708E+00
        -11   -1    0    0    0    0  0.00000000000E+00  0.00000000000E+00  0.45593999997E+02  0.45594000000E+02  0.51100000000E-03 0.  1.
         11   -1    0    0    0    0 -0.00000000000E+00 -0.00000000000E+00 -0.45593999997E+02  0.45594000000E+02  0.51100000000E-03 0. -1.
    9900012    2    1    2    0    0 -0.18250292335E+02  0.23792382075E+01 -0.34562164969E+01  0.72461564748E+02  0.69999992775E+02 0.  0.
         12    1    1    2    0    0  0.18250292335E+02 -0.23792382075E+01  0.34562164969E+01  0.18726435252E+02  0.00000000000E+00 0. -1.
         11    1    3    3    0    0 -0.38409027897E+02  0.95239572548E+01 -0.11681410125E+02  0.41260326327E+02  0.51100000000E-03 0. -1.
        -11    1    3    3    0    0  0.53220633808E+01 -0.65891833708E+01 -0.62028940461E+01  0.10498456598E+02  0.51100000000E-03 0.  1.
        -12    1    3    3    0    0  0.14836672182E+02 -0.55553567645E+00  0.14428087674E+02  0.20702781824E+02  0.00000000000E+00 0.  1.
</event>
<event>
 7    1  0.2976321E-013  0.7246158E+02  0.7816164E-02  0.1226708E+00
        -11   -1    0    0    0    0  0.00000000000E+00  0.00000000000E+00  0.45593999997E+02  0.45594000000E+02  0.51100000000E-03 0. -1.
         11   -1    0    0    0    0 -0.00000000000E+00 -0.00000000000E+00 -0.45593999997E+02  0.45594000000E+02  0.51100000000E-03 0.  1.
    9900012    2    1    2    0    0 -0.18133510251E+02  0.46306291497E+01  0.64172684310E+00  0.72461581931E+02  0.70000015159E+02 0.  0.
         12    1    1    2    0    0  0.18133510251E+02 -0.46306291497E+01 -0.64172684310E+00  0.18726418069E+02  0.00000000000E+00 0. -1.
         11    1    3    3    0    0 -0.15775028780E+02  0.73109549409E+01  0.23450436236E+02  0.29192885350E+02  0.51100000000E-03 0. -1.
        -11    1    3    3    0    0 -0.18269006516E+02 -0.60263956371E+01 -0.17920912366E+02  0.26291313085E+02  0.51100000000E-03 0.  1.
        -12    1    3    3    0    0  0.15910525044E+02  0.33460698460E+01 -0.48877970260E+01  0.16977383496E+02  0.00000000000E+00 0.  1.
</event>
<event>
 7    1  0.2976321E-013  0.7246154E+02  0.7816164E-02  0.1226708E+00
        -11   -1    0    0    0    0  0.00000000000E+00  0.00000000000E+00  0.45593999997E+02  0.45594000000E+02  0.51100000000E-03 0.  1.
         11   -1    0    0    0    0 -0.00000000000E+00 -0.00000000000E+00 -0.45593999997E+02  0.45594000000E+02  0.51100000000E-03 0. -1.
    9900012    2    1    2    0    0  0.16007876068E+02  0.25521399563E+01  0.93762840430E+01  0.72461542326E+02  0.69999963566E+02 0.  0.
         12    1    1    2    0    0 -0.16007876068E+02 -0.25521399563E+01 -0.93762840430E+01  0.18726457674E+02  0.00000000000E+00 0. -1.
         11    1    3    3    0    0  0.90036189905E+01  0.14950725669E+02 -0.23766719967E+02  0.29486375349E+02  0.51100000000E-03 0.  1.
        -11    1    3    3    0    0  0.42187472895E+01 -0.14198742402E+02  0.65835159024E+01  0.16209404567E+02  0.51100000000E-03 0. -1.
        -12    1    3    3    0    0  0.27855097880E+01  0.18001566895E+01  0.26559488108E+02  0.26765762411E+02  0.00000000000E+00 0.  1.
</event>
<event>
 7    1  0.2976321E-013  0.7246161E+02  0.7816164E-02  0.1226708E+00
        -11   -1    0    0    0    0  0.00000000000E+00  0.00000000000E+00  0.45593999997E+02  0.45594000000E+02  0.51100000000E-03 0. -1.
         11   -1    0    0    0    0 -0.00000000000E+00 -0.00000000000E+00 -0.45593999997E+02  0.45594000000E+02  0.51100000000E-03 0.  1.
    9900012    2    1    2    0    0  0.87423771530E+01  0.38556037079E+01 -0.16105367668E+02  0.72461609372E+02  0.70000050906E+02 0.  0.
         12    1    1    2    0    0 -0.87423771530E+01 -0.38556037079E+01  0.16105367668E+02  0.18726390628E+02  0.00000000000E+00 0. -1.
         11    1    3    3    0    0  0.11771348738E+02 -0.26347410582E+02  0.95913227492E+01  0.30409606506E+02  0.51100000000E-03 0. -1.
        -11    1    3    3    0    0  0.14274912330E+01  0.43119992553E+01  0.94088205289E+00  0.46385696175E+01  0.51100000000E-03 0.  1.
        -12    1    3    3    0    0 -0.44564628182E+01  0.25891015035E+02 -0.26637572470E+02  0.37413433249E+02  0.00000000000E+00 0.  1.
</event>
<event>
 7    1  0.2976321E-013  0.7246161E+02  0.7816164E-02  0.1226708E+00
        -11   -1    0    0    0    0  0.00000000000E+00  0.00000000000E+00  0.45593999997E+02  0.45594000000E+02  0.51100000000E-03 0.  1.
         11   -1    0    0    0    0 -0.00000000000E+00 -0.00000000000E+00 -0.45593999997E+02  0.45594000000E+02  0.51100000000E-03 0. -1.
    9900012    2    1    2    0    0 -0.13759753194E+02  0.11534745205E+02  0.53194548035E+01  0.72461608081E+02  0.70000049224E+02 0.  0.
         12    1    1    2    0    0  0.13759753194E+02 -0.11534745205E+02 -0.53194548035E+01  0.18726391919E+02  0.00000000000E+00 0. -1.
         11    1    3    3    0    0 -0.15276035726E+02 -0.87055855725E+00 -0.17982622300E+01  0.15406131474E+02  0.51100000000E-03 0. -1.
        -11    1    3    3    0    0 -0.15608848625E+02 -0.14441954605E+02  0.12637025433E+02  0.24736625078E+02  0.51100000000E-03 0.  1.
         12    1    3    3    0    0  0.17125131157E+02  0.26847258367E+02 -0.55193083991E+01  0.32318851529E+02  0.00000000000E+00 0. -1.
</event>
<event>
 7    1  0.2976321E-013  0.7246160E+02  0.7816164E-02  0.1226708E+00
        -11   -1    0    0    0    0  0.00000000000E+00  0.00000000000E+00  0.45593999997E+02  0.45594000000E+02  0.51100000000E-03 0.  1.
         11   -1    0    0    0    0 -0.00000000000E+00 -0.00000000000E+00 -0.45593999997E+02  0.45594000000E+02  0.51100000000E-03 0. -1.
    9900012    2    1    2    0    0 -0.47813823517E+01 -0.13494203259E+02  0.12071578436E+02  0.72461597657E+02  0.70000035645E+02 0.  0.
         12    1    1    2    0    0  0.47813823517E+01  0.13494203259E+02 -0.12071578436E+02  0.18726402343E+02  0.00000000000E+00 0. -1.
         11    1    3    3    0    0 -0.12842121390E+02 -0.62476094265E+01 -0.15737975003E+02  0.21251742583E+02  0.51100000000E-03 0. -1.
        -11    1    3    3    0    0 -0.11184688538E+01 -0.97895951943E+01 -0.89042874861E+01  0.13280567855E+02  0.51100000000E-03 0.  1.
        -12    1    3    3    0    0  0.91792078925E+01  0.25430013624E+01  0.36713840925E+02  0.37929287219E+02  0.00000000000E+00 0.  1.
</event>
<event>
 7    1  0.2976321E-013  0.7246159E+02  0.7816164E-02  0.1226708E+00
        -11   -1    0    0    0    0  0.00000000000E+00  0.00000000000E+00  0.45593999997E+02  0.45594000000E+02  0.51100000000E-03 0.  1.
         11   -1    0    0    0    0 -0.00000000000E+00 -0.00000000000E+00 -0.45593999997E+02  0.45594000000E+02  0.51100000000E-03 0. -1.
    9900012    2    1    2    0    0  0.12329245503E+02  0.91091347683E+01  0.10756010559E+02  0.72461591000E+02  0.70000026973E+02 0.  0.
         12    1    1    2    0    0 -0.12329245503E+02 -0.91091347683E+01 -0.10756010559E+02  0.18726409000E+02  0.00000000000E+00 0. -1.
         11    1    3    3    0    0  0.24344817105E+02  0.11396256500E+02  0.70880445930E+01  0.27799013624E+02  0.51100000000E-03 0. -1.
        -11    1    3    3    0    0 -0.16027327679E+01  0.19849644623E+02 -0.74940760474E-01  0.19914385765E+02  0.51100000000E-03 0.  1.
         12    1    3    3    0    0 -0.10412838834E+02 -0.22136766355E+02  0.37429067264E+01  0.24748191611E+02  0.00000000000E+00 0. -1.
</event>
<event>
 7    1  0.2976321E-013  0.7246158E+02  0.7816164E-02  0.1226708E+00
        -11   -1    0    0    0    0  0.00000000000E+00  0.00000000000E+00  0.45593999997E+02  0.45594000000E+02  0.51100000000E-03 0. -1.
         11   -1    0    0    0    0 -0.00000000000E+00 -0.00000000000E+00 -0.45593999997E+02  0.45594000000E+02  0.51100000000E-03 0.  1.
    9900012    2    1    2    0    0 -0.11333108789E+01  0.45157310245E+01 -0.18138426323E+02  0.72461582038E+02  0.70000015298E+02 0.  0.
         12    1    1    2    0    0  0.11333108789E+01 -0.45157310245E+01  0.18138426323E+02  0.18726417962E+02  0.00000000000E+00 0. -1.
         11    1    3    3    0    0  0.51890693147E+01 -0.10158252219E+01  0.17134351183E+02  0.17931657257E+02  0.51100000000E-03 0. -1.
        -11    1    3    3    0    0  0.10908892974E+02  0.14885828064E+02 -0.62100271833E+01  0.19471935213E+02  0.51100000000E-03 0.  1.
         12    1    3    3    0    0 -0.17231273168E+02 -0.93542718172E+01 -0.29062750323E+02  0.35057989568E+02  0.00000000000E+00 0. -1.
</event>
<event>
 7    1  0.2976321E-013  0.7246155E+02  0.7816164E-02  0.1226708E+00
        -11   -1    0    0    0    0  0.00000000000E+00  0.00000000000E+00  0.45593999997E+02  0.45594000000E+02  0.51100000000E-03 0.  1.
         11   -1    0    0    0    0 -0.00000000000E+00 -0.00000000000E+00 -0.45593999997E+02  0.45594000000E+02  0.51100000000E-03 0. -1.
    9900012    2    1    2    0    0  0.15150214174E+02  0.85981863402E+01 -0.68718297961E+01  0.72461552323E+02  0.69999976589E+02 0.  0.
         12    1    1    2    0    0 -0.15150214174E+02 -0.85981863402E+01  0.68718297961E+01  0.18726447677E+02  0.00000000000E+00 0. -1.
         11    1    3    3    0    0  0.26039191099E+02  0.32344000704E+02 -0.70161863008E+01  0.42111764688E+02  0.51100000000E-03 0. -1.
        -11    1    3    3    0    0 -0.29581693049E+01  0.18286231941E+01 -0.75512530938E+00  0.35587698600E+01  0.51100000000E-03 0.  1.
        -12    1    3    3    0    0 -0.79308076206E+01 -0.25574437558E+02  0.89948181404E+00  0.26791017776E+02  0.00000000000E+00 0.  1.
</event>
<event>
 7    1  0.2976321E-013  0.7246156E+02  0.7816164E-02  0.1226708E+00
        -11   -1    0    0    0    0  0.00000000000E+00  0.00000000000E+00  0.45593999997E+02  0.45594000000E+02  0.51100000000E-03 0.  1.
         11   -1    0    0    0    0 -0.00000000000E+00 -0.00000000000E+00 -0.45593999997E+02  0.45594000000E+02  0.51100000000E-03 0. -1.
    9900012    2    1    2    0    0  0.85853141571E+01 -0.42578610109E+01  0.16088588322E+02  0.72461556831E+02  0.69999982461E+02 0.  0.
         12    1    1    2    0    0 -0.85853141571E+01  0.42578610109E+01 -0.16088588322E+02  0.18726443169E+02  0.00000000000E+00 0. -1.
         11    1    3    3    0    0 -0.15679048916E+02 -0.52018423106E+01  0.86622223764E+01  0.18652770172E+02  0.51100000000E-03 0. -1.
        -11    1    3    3    0    0  0.12300352012E+01 -0.19651043482E+02  0.11245917971E+02  0.22674813512E+02  0.51100000000E-03 0.  1.
         12    1    3    3    0    0  0.23034327872E+02  0.20595024781E+02 -0.38195520253E+01  0.31133973147E+02  0.00000000000E+00 0. -1.
</event>
<event>
 7    1  0.2976321E-013  0.7246158E+02  0.7816164E-02  0.1226708E+00
        -11   -1    0    0    0    0  0.00000000000E+00  0.00000000000E+00  0.45593999997E+02  0.45594000000E+02  0.51100000000E-03 0.  1.
         11   -1    0    0    0    0 -0.00000000000E+00 -0.00000000000E+00 -0.45593999997E+02  0.45594000000E+02  0.51100000000E-03 0. -1.
    9900012    2    1    2    0    0 -0.17784437134E+02  0.50128969906E+01  0.30436207088E+01  0.72461575690E+02  0.70000007029E+02 0.  0.
         12    1    1    2    0    0  0.17784437134E+02 -0.50128969906E+01 -0.30436207088E+01  0.18726424310E+02  0.00000000000E+00 0. -1.
         11    1    3    3    0    0  0.11752754093E+02 -0.58861663111E+00  0.22075308884E+01  0.11972756207E+02  0.51100000000E-03 0. -1.
        -11    1    3    3    0    0 -0.32781847251E+00  0.10659057745E+02  0.21740689628E+02  0.24215296048E+02  0.51100000000E-03 0.  1.
         12    1    3    3    0    0 -0.29209372755E+02 -0.50575441230E+01 -0.20904599807E+02  0.36273523435E+02  0.00000000000E+00 0. -1.
</event>
<event>
 7    1  0.2976321E-013  0.7246156E+02  0.7816164E-02  0.1226708E+00
        -11   -1    0    0    0    0  0.00000000000E+00  0.00000000000E+00  0.45593999997E+02  0.45594000000E+02  0.51100000000E-03 0.  1.
         11   -1    0    0    0    0 -0.00000000000E+00 -0.00000000000E+00 -0.45593999997E+02  0.45594000000E+02  0.51100000000E-03 0. -1.
    9900012    2    1    2    0    0  0.86657936716E+01 -0.84473347906E+01  0.14290773278E+02  0.72461557575E+02  0.69999983430E+02 0.  0.
         12    1    1    2    0    0 -0.86657936716E+01  0.84473347906E+01 -0.14290773278E+02  0.18726442425E+02  0.00000000000E+00 0. -1.
         11    1    3    3    0    0  0.64686969951E+01 -0.44437677456E+01  0.21581084847E+02  0.22963761365E+02  0.51100000000E-03 0. -1.
        -11    1    3    3    0    0  0.81196686849E+01  0.13110413369E+02  0.14497867365E+02  0.21166013244E+02  0.51100000000E-03 0.  1.
         12    1    3    3    0    0 -0.59225720084E+01 -0.17113980414E+02 -0.21788178934E+02  0.28331782966E+02  0.00000000000E+00 0. -1.
</event>
<event>
 7    1  0.2976321E-013  0.7246166E+02  0.7816164E-02  0.1226708E+00
        -11   -1    0    0    0    0  0.00000000000E+00  0.00000000000E+00  0.45593999997E+02  0.45594000000E+02  0.51100000000E-03 0.  1.
         11   -1    0    0    0    0 -0.00000000000E+00 -0.00000000000E+00 -0.45593999997E+02  0.45594000000E+02  0.51100000000E-03 0. -1.
    9900012    2    1    2    0    0 -0.65643960554E+01 -0.16813581894E+02  0.49887689931E+01  0.72461664327E+02  0.70000122494E+02 0.  0.
         12    1    1    2    0    0  0.65643960554E+01  0.16813581894E+02 -0.49887689931E+01  0.18726335673E+02  0.00000000000E+00 0. -1.
         11    1    3    3    0    0 -0.41591983404E+01 -0.15720625290E+02 -0.55322274950E+01  0.17176802138E+02  0.51100000000E-03 0. -1.
        -11    1    3    3    0    0  0.15443736204E+02 -0.21396694382E+02  0.31853280091E+00  0.26389940921E+02  0.51100000000E-03 0.  1.
        -12    1    3    3    0    0 -0.17848933919E+02  0.20303737778E+02  0.10202463687E+02  0.28894921268E+02  0.00000000000E+00 0.  1.
</event>
<event>
 7    1  0.2976321E-013  0.7246163E+02  0.7816164E-02  0.1226708E+00
        -11   -1    0    0    0    0  0.00000000000E+00  0.00000000000E+00  0.45593999997E+02  0.45594000000E+02  0.51100000000E-03 0.  1.
         11   -1    0    0    0    0 -0.00000000000E+00 -0.00000000000E+00 -0.45593999997E+02  0.45594000000E+02  0.51100000000E-03 0. -1.
    9900012    2    1    2    0    0 -0.77467073561E+01 -0.13656225804E+02  0.10206515194E+02  0.72461630077E+02  0.70000077879E+02 0.  0.
         12    1    1    2    0    0  0.77467073561E+01  0.13656225804E+02 -0.10206515194E+02  0.18726369923E+02  0.00000000000E+00 0. -1.
         11    1    3    3    0    0 -0.18547704344E+02 -0.27764266314E+01  0.29566657625E+01  0.18985988359E+02  0.51100000000E-03 0. -1.
        -11    1    3    3    0    0 -0.16611094939E+02 -0.16033162079E+02  0.10560989764E+02  0.25387502169E+02  0.51100000000E-03 0.  1.
         12    1    3    3    0    0  0.27412091927E+02  0.51533629058E+01 -0.33111403326E+01  0.28088139550E+02  0.00000000000E+00 0. -1.
</event>
<event>
 7    1  0.2976321E-013  0.7246198E+02  0.7816164E-02  0.1226707E+00
        -11   -1    0    0    0    0  0.00000000000E+00  0.00000000000E+00  0.45593999997E+02  0.45594000000E+02  0.51100000000E-03 0.  1.
         11   -1    0    0    0    0 -0.00000000000E+00 -0.00000000000E+00 -0.45593999997E+02  0.45594000000E+02  0.51100000000E-03 0. -1.
    9900012    2    1    2    0    0 -0.81301925154E+01 -0.33084014978E+01  0.16541409447E+02  0.72461981274E+02  0.70000535376E+02 0.  0.
         12    1    1    2    0    0  0.81301925154E+01  0.33084014978E+01 -0.16541409447E+02  0.18726018726E+02  0.00000000000E+00 0. -1.
         11    1    3    3    0    0  0.20121598781E+02 -0.22712382279E+02 -0.65167893017E+00  0.30350547475E+02  0.51100000000E-03 0. -1.
        -11    1    3    3    0    0 -0.89521259176E-01  0.50010263702E+01 -0.16810738603E+01  0.52767687457E+01  0.51100000000E-03 0.  1.
        -12    1    3    3    0    0 -0.28162270038E+02  0.14402954411E+02  0.18874162238E+02  0.36834665054E+02  0.00000000000E+00 0.  1.
</event>
<event>
 7    1  0.2976321E-013  0.7246159E+02  0.7816164E-02  0.1226708E+00
        -11   -1    0    0    0    0  0.00000000000E+00  0.00000000000E+00  0.45593999997E+02  0.45594000000E+02  0.51100000000E-03 0.  1.
         11   -1    0    0    0    0 -0.00000000000E+00 -0.00000000000E+00 -0.45593999997E+02  0.45594000000E+02  0.51100000000E-03 0. -1.
    9900012    2    1    2    0    0  0.55225756431E+00 -0.77214982455E+01  0.17051448719E+02  0.72461590120E+02  0.70000025826E+02 0.  0.
         12    1    1    2    0    0 -0.55225756431E+00  0.77214982455E+01 -0.17051448719E+02  0.18726409880E+02  0.00000000000E+00 0. -1.
         11    1    3    3    0    0  0.98112210915E+01  0.20344643044E+02  0.51300526227E+01  0.23162081082E+02  0.51100000000E-03 0. -1.
        -11    1    3    3    0    0 -0.79944243026E+01  0.31369186393E+01 -0.84225991522E+01  0.12028767818E+02  0.51100000000E-03 0.  1.
        -12    1    3    3    0    0 -0.12645392246E+01 -0.31203059929E+02  0.20343995249E+02  0.37270741220E+02  0.00000000000E+00 0.  1.
</event>
<event>
 7    1  0.2976321E-013  0.7246128E+02  0.7816164E-02  0.1226709E+00
        -11   -1    0    0    0    0  0.00000000000E+00  0.00000000000E+00  0.45593999997E+02  0.45594000000E+02  0.51100000000E-03 0. -1.
         11   -1    0    0    0    0 -0.00000000000E+00 -0.00000000000E+00 -0.45593999997E+02  0.45594000000E+02  0.51100000000E-03 0.  1.
    9900012    2    1    2    0    0 -0.85000417644E+01  0.15450377699E+02 -0.63027973938E+01  0.72461277489E+02  0.69999618565E+02 0.  0.
         12    1    1    2    0    0  0.85000417644E+01 -0.15450377699E+02  0.63027973938E+01  0.18726722511E+02  0.00000000000E+00 0. -1.
         11    1    3    3    0    0 -0.37485248036E+01 -0.43081693180E+01  0.45234045570E+01  0.72851184015E+01  0.51100000000E-03 0. -1.
        -11    1    3    3    0    0 -0.18141542764E+02 -0.15658632224E+01 -0.28916165999E+02  0.34171803549E+02  0.51100000000E-03 0.  1.
         12    1    3    3    0    0  0.13390025803E+02  0.21324410239E+02  0.18089964048E+02  0.31004355538E+02  0.00000000000E+00 0. -1.
</event>
<event>
 7    1  0.2976321E-013  0.7246162E+02  0.7816164E-02  0.1226708E+00
        -11   -1    0    0    0    0  0.00000000000E+00  0.00000000000E+00  0.45593999997E+02  0.45594000000E+02  0.51100000000E-03 0.  1.
         11   -1    0    0    0    0 -0.00000000000E+00 -0.00000000000E+00 -0.45593999997E+02  0.45594000000E+02  0.51100000000E-03 0. -1.
    9900012    2    1    2    0    0 -0.53320011098E+01  0.29287666226E+01  0.17710712000E+02  0.72461622099E+02  0.70000067485E+02 0.  0.
         12    1    1    2    0    0  0.53320011098E+01 -0.29287666226E+01 -0.17710712000E+02  0.18726377901E+02  0.00000000000E+00 0. -1.
         11    1    3    3    0    0  0.67174918018E+01  0.27926615191E+02  0.17184726553E+01  0.28774531806E+02  0.51100000000E-03 0. -1.
        -11    1    3    3    0    0 -0.83138618100E+01  0.54491056820E+01  0.47449119492E+01  0.11014864529E+02  0.51100000000E-03 0.  1.
        -12    1    3    3    0    0 -0.37356311015E+01 -0.30446954250E+02  0.11247327395E+02  0.32672225764E+02  0.00000000000E+00 0.  1.
</event>
<event>
 7    1  0.2976321E-013  0.7246159E+02  0.7816164E-02  0.1226708E+00
        -11   -1    0    0    0    0  0.00000000000E+00  0.00000000000E+00  0.45593999997E+02  0.45594000000E+02  0.51100000000E-03 0.  1.
         11   -1    0    0    0    0 -0.00000000000E+00 -0.00000000000E+00 -0.45593999997E+02  0.45594000000E+02  0.51100000000E-03 0. -1.
    9900012    2    1    2    0    0 -0.36178572041E+01 -0.14514555449E+02  0.11265747753E+02  0.72461593963E+02  0.70000030833E+02 0.  0.
         12    1    1    2    0    0  0.36178572041E+01  0.14514555449E+02 -0.11265747753E+02  0.18726406037E+02  0.00000000000E+00 0. -1.
         11    1    3    3    0    0 -0.43961840053E+01 -0.21161456041E+01 -0.78074500655E+01  0.92065619431E+01  0.51100000000E-03 0. -1.
        -11    1    3    3    0    0  0.14144319960E+02 -0.26214582681E+02  0.29041045000E+02  0.41601062814E+02  0.51100000000E-03 0.  1.
         12    1    3    3    0    0 -0.13365993158E+02  0.13816172836E+02 -0.99678471821E+01  0.21653969207E+02  0.00000000000E+00 0. -1.
</event>
<event>
 7    1  0.2976321E-013  0.7246154E+02  0.7816164E-02  0.1226708E+00
        -11   -1    0    0    0    0  0.00000000000E+00  0.00000000000E+00  0.45593999997E+02  0.45594000000E+02  0.51100000000E-03 0. -1.
         11   -1    0    0    0    0 -0.00000000000E+00 -0.00000000000E+00 -0.45593999997E+02  0.45594000000E+02  0.51100000000E-03 0.  1.
    9900012    2    1    2    0    0 -0.80234565222E+01 -0.15596823896E+02 -0.65607635721E+01  0.72461537738E+02  0.69999957589E+02 0.  0.
         12    1    1    2    0    0  0.80234565222E+01  0.15596823896E+02  0.65607635721E+01  0.18726462262E+02  0.00000000000E+00 0. -1.
         11    1    3    3    0    0  0.12016009037E+01  0.81228105342E+00  0.20209346141E+02  0.20261325646E+02  0.51100000000E-03 0. -1.
        -11    1    3    3    0    0  0.15285105775E+02 -0.22421727400E+00 -0.11249764815E+02  0.18980040584E+02  0.51100000000E-03 0.  1.
         12    1    3    3    0    0 -0.24510163201E+02 -0.16184887676E+02 -0.15520344898E+02  0.33220171507E+02  0.00000000000E+00 0. -1.
</event>
<event>
 7    1  0.2976321E-013  0.7246158E+02  0.7816164E-02  0.1226708E+00
        -11   -1    0    0    0    0  0.00000000000E+00  0.00000000000E+00  0.45593999997E+02  0.45594000000E+02  0.51100000000E-03 0.  1.
         11   -1    0    0    0    0 -0.00000000000E+00 -0.00000000000E+00 -0.45593999997E+02  0.45594000000E+02  0.51100000000E-03 0. -1.
    9900012    2    1    2    0    0  0.25574747201E+01 -0.18503178450E+02  0.13305507948E+01  0.72461584029E+02  0.70000017892E+02 0.  0.
         12    1    1    2    0    0 -0.25574747201E+01  0.18503178450E+02 -0.13305507948E+01  0.18726415971E+02  0.00000000000E+00 0. -1.
         11    1    3    3    0    0 -0.15403662174E+02 -0.90263358847E+01 -0.20472251778E+02  0.27163590355E+02  0.51100000000E-03 0. -1.
        -11    1    3    3    0    0  0.11007635275E+02 -0.20984109707E+02  0.57974734612E+01  0.24394909169E+02  0.51100000000E-03 0.  1.
        -12    1    3    3    0    0  0.69535016198E+01  0.11507267142E+02  0.16005329111E+02  0.20903084505E+02  0.00000000000E+00 0.  1.
</event>
<event>
 7    1  0.2976321E-013  0.7246151E+02  0.7816164E-02  0.1226708E+00
        -11   -1    0    0    0    0  0.00000000000E+00  0.00000000000E+00  0.45593999997E+02  0.45594000000E+02  0.51100000000E-03 0. -1.
         11   -1    0    0    0    0 -0.00000000000E+00 -0.00000000000E+00 -0.45593999997E+02  0.45594000000E+02  0.51100000000E-03 0.  1.
    9900012    2    1    2    0    0  0.81312140947E+01  0.16985558773E+01 -0.16783315059E+02  0.72461510765E+02  0.69999922452E+02 0.  0.
         12    1    1    2    0    0 -0.81312140947E+01 -0.16985558773E+01  0.16783315059E+02  0.18726489235E+02  0.00000000000E+00 0. -1.
         11    1    3    3    0    0 -0.16570865850E+02  0.74060548303E+01 -0.74872470788E+01  0.19634207706E+02  0.51100000000E-03 0. -1.
        -11    1    3    3    0    0 -0.80659891453E+01 -0.11515913122E+01  0.11244460906E+02  0.13886116979E+02  0.51100000000E-03 0.  1.
        -12    1    3    3    0    0  0.32768069090E+02 -0.45559076407E+01 -0.20540528885E+02  0.38941186079E+02  0.00000000000E+00 0.  1.
</event>
<event>
 7    1  0.2976321E-013  0.7246161E+02  0.7816164E-02  0.1226708E+00
        -11   -1    0    0    0    0  0.00000000000E+00  0.00000000000E+00  0.45593999997E+02  0.45594000000E+02  0.51100000000E-03 0.  1.
         11   -1    0    0    0    0 -0.00000000000E+00 -0.00000000000E+00 -0.45593999997E+02  0.45594000000E+02  0.51100000000E-03 0. -1.
    9900012    2    1    2    0    0  0.51415783228E+00 -0.16935277580E+02  0.79755664687E+01  0.72461610987E+02  0.70000053009E+02 0.  0.
         12    1    1    2    0    0 -0.51415783228E+00  0.16935277580E+02 -0.79755664687E+01  0.18726389013E+02  0.00000000000E+00 0. -1.
         11    1    3    3    0    0  0.25805382183E+01 -0.94791100952E-01 -0.18818421411E+02  0.18994766319E+02  0.51100000000E-03 0. -1.
        -11    1    3    3    0    0  0.15401453123E+02 -0.22685894706E+02  0.12417306176E+02  0.30100565939E+02  0.51100000000E-03 0.  1.
         12    1    3    3    0    0 -0.17467833509E+02  0.58454082275E+01  0.14376681704E+02  0.23366278729E+02  0.00000000000E+00 0. -1.
</event>
<event>
 7    1  0.2976321E-013  0.7246157E+02  0.7816164E-02  0.1226708E+00
        -11   -1    0    0    0    0  0.00000000000E+00  0.00000000000E+00  0.45593999997E+02  0.45594000000E+02  0.51100000000E-03 0. -1.
         11   -1    0    0    0    0 -0.00000000000E+00 -0.00000000000E+00 -0.45593999997E+02  0.45594000000E+02  0.51100000000E-03 0.  1.
    9900012    2    1    2    0    0 -0.13884817405E+02 -0.11889760041E+02 -0.40650646686E+01  0.72461566838E+02  0.69999995497E+02 0.  0.
         12    1    1    2    0    0  0.13884817405E+02  0.11889760041E+02  0.40650646686E+01  0.18726433162E+02  0.00000000000E+00 0. -1.
         11    1    3    3    0    0 -0.21607079456E+02 -0.17735174058E+02  0.20438538609E+02  0.34628545193E+02  0.51100000000E-03 0. -1.
        -11    1    3    3    0    0  0.57962181846E+01 -0.34646125313E+01  0.39568396103E+01  0.78266381798E+01  0.51100000000E-03 0.  1.
         12    1    3    3    0    0  0.19260438657E+01  0.93100265474E+01 -0.28460442888E+02  0.30006383465E+02  0.00000000000E+00 0. -1.
</event>
<event>
 7    1  0.2976321E-013  0.7246163E+02  0.7816164E-02  0.1226708E+00
        -11   -1    0    0    0    0  0.00000000000E+00  0.00000000000E+00  0.45593999997E+02  0.45594000000E+02  0.51100000000E-03 0. -1.
         11   -1    0    0    0    0 -0.00000000000E+00 -0.00000000000E+00 -0.45593999997E+02  0.45594000000E+02  0.51100000000E-03 0.  1.
    9900012    2    1    2    0    0  0.13182118129E+02  0.11842523659E+02 -0.60550239785E+01  0.72461630347E+02  0.70000078230E+02 0.  0.
         12    1    1    2    0    0 -0.13182118129E+02 -0.11842523659E+02  0.60550239785E+01  0.18726369653E+02  0.00000000000E+00 0. -1.
         11    1    3    3    0    0  0.33274891552E+02  0.10639978935E+02 -0.16128962742E+02  0.38478188612E+02  0.51100000000E-03 0. -1.
        -11    1    3    3    0    0 -0.19305027924E+01 -0.65342126326E+01 -0.55656530017E+01  0.87976854545E+01  0.51100000000E-03 0.  1.
        -12    1    3    3    0    0 -0.18162270630E+02  0.77367573571E+01  0.15639591765E+02  0.25185756280E+02  0.00000000000E+00 0.  1.
</event>
<event>
 7    1  0.2976321E-013  0.7246152E+02  0.7816164E-02  0.1226708E+00
        -11   -1    0    0    0    0  0.00000000000E+00  0.00000000000E+00  0.45593999997E+02  0.45594000000E+02  0.51100000000E-03 0. -1.
         11   -1    0    0    0    0 -0.00000000000E+00 -0.00000000000E+00 -0.45593999997E+02  0.45594000000E+02  0.51100000000E-03 0.  1.
    9900012    2    1    2    0    0 -0.43683185237E+01  0.16989172372E+02 -0.65549088362E+01  0.72461521034E+02  0.69999935829E+02 0.  0.
         12    1    1    2    0    0  0.43683185237E+01 -0.16989172372E+02  0.65549088362E+01  0.18726478966E+02  0.00000000000E+00 0. -1.
         11    1    3    3    0    0  0.10583345491E+02 -0.10342368014E+02  0.58350781789E+01  0.15906599747E+02  0.51100000000E-03 0. -1.
        -11    1    3    3    0    0  0.12734450068E+02  0.24160676451E+02 -0.64117193162E+01  0.28053781384E+02  0.51100000000E-03 0.  1.
        -12    1    3    3    0    0 -0.27686114082E+02  0.31708639352E+01 -0.59782676989E+01  0.28501139903E+02  0.00000000000E+00 0.  1.
</event>
<event>
 7    1  0.2976321E-013  0.7246156E+02  0.7816164E-02  0.1226708E+00
        -11   -1    0    0    0    0  0.00000000000E+00  0.00000000000E+00  0.45593999997E+02  0.45594000000E+02  0.51100000000E-03 0.  1.
         11   -1    0    0    0    0 -0.00000000000E+00 -0.00000000000E+00 -0.45593999997E+02  0.45594000000E+02  0.51100000000E-03 0. -1.
    9900012    2    1    2    0    0 -0.97567419106E+01 -0.43304986455E+01  0.15386106711E+02  0.72461561178E+02  0.69999988124E+02 0.  0.
         12    1    1    2    0    0  0.97567419106E+01  0.43304986455E+01 -0.15386106711E+02  0.18726438822E+02  0.00000000000E+00 0. -1.
         11    1    3    3    0    0  0.16953202720E+02 -0.13119034988E+02 -0.65820064308E+00  0.21446523957E+02  0.51100000000E-03 0. -1.
        -11    1    3    3    0    0  0.23563372165E+01 -0.10471563290E+02  0.11699332175E+02  0.15877038024E+02  0.51100000000E-03 0.  1.
        -12    1    3    3    0    0 -0.29066281847E+02  0.19260099633E+02  0.43449751797E+01  0.35137999197E+02  0.00000000000E+00 0.  1.
</event>
<event>
 7    1  0.2976321E-013  0.7246160E+02  0.7816164E-02  0.1226708E+00
        -11   -1    0    0    0    0  0.00000000000E+00  0.00000000000E+00  0.45593999997E+02  0.45594000000E+02  0.51100000000E-03 0. -1.
         11   -1    0    0    0    0 -0.00000000000E+00 -0.00000000000E+00 -0.45593999997E+02  0.45594000000E+02  0.51100000000E-03 0.  1.
    9900012    2    1    2    0    0  0.57780451083E+01 -0.11995810959E+02 -0.13167864776E+02  0.72461602894E+02  0.70000042467E+02 0.  0.
         12    1    1    2    0    0 -0.57780451083E+01  0.11995810959E+02  0.13167864776E+02  0.18726397106E+02  0.00000000000E+00 0. -1.
         11    1    3    3    0    0  0.12481562026E+01  0.51525384887E+00 -0.44071947017E+01  0.46094192514E+01  0.51100000000E-03 0. -1.
        -11    1    3    3    0    0  0.64609127818E+01 -0.37064313802E+02  0.74677984561E+01  0.38357199658E+02  0.51100000000E-03 0.  1.
         12    1    3    3    0    0 -0.19310238760E+01  0.24553248994E+02 -0.16228468530E+02  0.29494983984E+02  0.00000000000E+00 0. -1.
</event>
<event>
 7    1  0.2976321E-013  0.7246148E+02  0.7816164E-02  0.1226708E+00
        -11   -1    0    0    0    0  0.00000000000E+00  0.00000000000E+00  0.45593999997E+02  0.45594000000E+02  0.51100000000E-03 0.  1.
         11   -1    0    0    0    0 -0.00000000000E+00 -0.00000000000E+00 -0.45593999997E+02  0.45594000000E+02  0.51100000000E-03 0. -1.
    9900012    2    1    2    0    0  0.46983460139E+01  0.88333055756E+00  0.18106018605E+02  0.72461477689E+02  0.69999879364E+02 0.  0.
         12    1    1    2    0    0 -0.46983460139E+01 -0.88333055756E+00 -0.18106018605E+02  0.18726522311E+02  0.00000000000E+00 0. -1.
         11    1    3    3    0    0  0.62729452193E+01  0.24044146996E+02  0.59439675042E+01  0.25549982318E+02  0.51100000000E-03 0. -1.
        -11    1    3    3    0    0 -0.78481465722E+01  0.75959473331E+01 -0.39668890088E+01  0.11620156160E+02  0.51100000000E-03 0.  1.
        -12    1    3    3    0    0  0.62735473668E+01 -0.30756763771E+02  0.16128940110E+02  0.35291339211E+02  0.00000000000E+00 0.  1.
</event>
<event>
 7    1  0.2976321E-013  0.7246156E+02  0.7816164E-02  0.1226708E+00
        -11   -1    0    0    0    0  0.00000000000E+00  0.00000000000E+00  0.45593999997E+02  0.45594000000E+02  0.51100000000E-03 0.  1.
         11   -1    0    0    0    0 -0.00000000000E+00 -0.00000000000E+00 -0.45593999997E+02  0.45594000000E+02  0.51100000000E-03 0. -1.
    9900012    2    1    2    0    0 -0.35468364722E+01 -0.15625318993E+02  0.96927294674E+01  0.72461557543E+02  0.69999983389E+02 0.  0.
         12    1    1    2    0    0  0.35468364722E+01  0.15625318993E+02 -0.96927294674E+01  0.18726442457E+02  0.00000000000E+00 0. -1.
         11    1    3    3    0    0 -0.30118999361E+02 -0.16558643248E+02  0.68238686847E+01  0.35041517844E+02  0.51100000000E-03 0. -1.
        -11    1    3    3    0    0  0.26304093096E+00  0.51198968741E+01 -0.72870028977E+01  0.89097107711E+01  0.51100000000E-03 0.  1.
        -12    1    3    3    0    0  0.26309121958E+02 -0.41865726188E+01  0.10155863680E+02  0.28510328928E+02  0.00000000000E+00 0.  1.
</event>
<event>
 7    1  0.2976321E-013  0.7246158E+02  0.7816164E-02  0.1226708E+00
        -11   -1    0    0    0    0  0.00000000000E+00  0.00000000000E+00  0.45593999997E+02  0.45594000000E+02  0.51100000000E-03 0.  1.
         11   -1    0    0    0    0 -0.00000000000E+00 -0.00000000000E+00 -0.45593999997E+02  0.45594000000E+02  0.51100000000E-03 0. -1.
    9900012    2    1    2    0    0  0.11154191706E+02 -0.21403274028E+01  0.14888984039E+02  0.72461579100E+02  0.70000011471E+02 0.  0.
         12    1    1    2    0    0 -0.11154191706E+02  0.21403274028E+01 -0.14888984039E+02  0.18726420900E+02  0.00000000000E+00 0. -1.
         11    1    3    3    0    0 -0.10692043220E+02 -0.81355368838E+01  0.12993288560E+01  0.13497962970E+02  0.51100000000E-03 0. -1.
        -11    1    3    3    0    0  0.80004477714E+01 -0.91884607472E+01  0.30184633223E+02  0.32550684455E+02  0.51100000000E-03 0.  1.
        -12    1    3    3    0    0  0.13845787155E+02  0.15183670228E+02 -0.16594978040E+02  0.26412931675E+02  0.00000000000E+00 0.  1.
</event>
<event>
 7    1  0.2976321E-013  0.7246158E+02  0.7816164E-02  0.1226708E+00
        -11   -1    0    0    0    0  0.00000000000E+00  0.00000000000E+00  0.45593999997E+02  0.45594000000E+02  0.51100000000E-03 0.  1.
         11   -1    0    0    0    0 -0.00000000000E+00 -0.00000000000E+00 -0.45593999997E+02  0.45594000000E+02  0.51100000000E-03 0. -1.
    9900012    2    1    2    0    0 -0.50131535207E+01 -0.15829734332E+02  0.86583228437E+01  0.72461581450E+02  0.70000014532E+02 0.  0.
         12    1    1    2    0    0  0.50131535207E+01  0.15829734332E+02 -0.86583228437E+01  0.18726418550E+02  0.00000000000E+00 0. -1.
         11    1    3    3    0    0 -0.95330639973E+01  0.18355582669E+01 -0.19784154758E+01  0.99077096942E+01  0.51100000000E-03 0. -1.
        -11    1    3    3    0    0 -0.15959795576E+02 -0.32335183734E+02  0.97155202258E+01  0.37345287728E+02  0.51100000000E-03 0.  1.
         12    1    3    3    0    0  0.20479706053E+02  0.14669891135E+02  0.92121809366E+00  0.25208584028E+02  0.00000000000E+00 0. -1.
</event>
<event>
 7    1  0.2976321E-013  0.7246166E+02  0.7816164E-02  0.1226708E+00
        -11   -1    0    0    0    0  0.00000000000E+00  0.00000000000E+00  0.45593999997E+02  0.45594000000E+02  0.51100000000E-03 0.  1.
         11   -1    0    0    0    0 -0.00000000000E+00 -0.00000000000E+00 -0.45593999997E+02  0.45594000000E+02  0.51100000000E-03 0. -1.
    9900012    2    1    2    0    0 -0.15586100984E+02 -0.10360501356E+02 -0.63981303523E+00  0.72461657780E+02  0.70000113966E+02 0.  0.
         12    1    1    2    0    0  0.15586100984E+02  0.10360501356E+02  0.63981303523E+00  0.18726342220E+02  0.00000000000E+00 0. -1.
         11    1    3    3    0    0 -0.40143679241E+01 -0.10679347922E+02 -0.23994590118E+02  0.26568853514E+02  0.51100000000E-03 0. -1.
        -11    1    3    3    0    0 -0.71272845171E+01 -0.19676381692E+00 -0.99765687192E+01  0.12262496657E+02  0.51100000000E-03 0.  1.
        -12    1    3    3    0    0 -0.44444485431E+01  0.51561038302E+00  0.33331345802E+02  0.33630307609E+02  0.00000000000E+00 0.  1.
</event>
<event>
 7    1  0.2976321E-013  0.7246156E+02  0.7816164E-02  0.1226708E+00
        -11   -1    0    0    0    0  0.00000000000E+00  0.00000000000E+00  0.45593999997E+02  0.45594000000E+02  0.51100000000E-03 0. -1.
         11   -1    0    0    0    0 -0.00000000000E+00 -0.00000000000E+00 -0.45593999997E+02  0.45594000000E+02  0.51100000000E-03 0.  1.
    9900012    2    1    2    0    0  0.34827955277E+00 -0.14129912533E+02  0.12284297707E+02  0.72461556211E+02  0.69999981653E+02 0.  0.
         12    1    1    2    0    0 -0.34827955277E+00  0.14129912533E+02 -0.12284297707E+02  0.18726443789E+02  0.00000000000E+00 0. -1.
         11    1    3    3    0    0  0.11359245843E+02 -0.26647308437E+02  0.20441831912E+02  0.35453913821E+02  0.51100000000E-03 0. -1.
        -11    1    3    3    0    0  0.28927683301E+01 -0.95667755163E+01 -0.25706043216E+01  0.10319850252E+02  0.51100000000E-03 0.  1.
        -12    1    3    3    0    0 -0.13903734620E+02  0.22084171419E+02 -0.55869298837E+01  0.26687792138E+02  0.00000000000E+00 0.  1.
</event>
<event>
 7    1  0.2976321E-013  0.7246158E+02  0.7816164E-02  0.1226708E+00
        -11   -1    0    0    0    0  0.00000000000E+00  0.00000000000E+00  0.45593999997E+02  0.45594000000E+02  0.51100000000E-03 0.  1.
         11   -1    0    0    0    0 -0.00000000000E+00 -0.00000000000E+00 -0.45593999997E+02  0.45594000000E+02  0.51100000000E-03 0. -1.
    9900012    2    1    2    0    0 -0.60484432523E+00  0.64735536365E+01  0.17561490807E+02  0.72461583026E+02  0.70000016585E+02 0.  0.
         12    1    1    2    0    0  0.60484432523E+00 -0.64735536365E+01 -0.17561490807E+02  0.18726416974E+02  0.00000000000E+00 0. -1.
         11    1    3    3    0    0  0.53617709748E+01 -0.37081564886E+01  0.10599450735E+02  0.12443768266E+02  0.51100000000E-03 0. -1.
        -11    1    3    3    0    0  0.15801448128E+02  0.20702329010E+02  0.19732889398E+02  0.32675053384E+02  0.51100000000E-03 0.  1.
         12    1    3    3    0    0 -0.21768063428E+02 -0.10520618885E+02 -0.12770849326E+02  0.27342761375E+02  0.00000000000E+00 0. -1.
</event>
<event>
 7    1  0.2976321E-013  0.7246159E+02  0.7816164E-02  0.1226708E+00
        -11   -1    0    0    0    0  0.00000000000E+00  0.00000000000E+00  0.45593999997E+02  0.45594000000E+02  0.51100000000E-03 0.  1.
         11   -1    0    0    0    0 -0.00000000000E+00 -0.00000000000E+00 -0.45593999997E+02  0.45594000000E+02  0.51100000000E-03 0. -1.
    9900012    2    1    2    0    0 -0.10445956376E+02  0.86587390648E+01  0.12906839018E+02  0.72461594572E+02  0.70000031626E+02 0.  0.
         12    1    1    2    0    0  0.10445956376E+02 -0.86587390648E+01 -0.12906839018E+02  0.18726405428E+02  0.00000000000E+00 0. -1.
         11    1    3    3    0    0 -0.34896354722E+01  0.28034144640E+02  0.28719106797E+01  0.28396103477E+02  0.51100000000E-03 0. -1.
        -11    1    3    3    0    0 -0.98990644912E+01  0.94406384635E+01  0.55153137587E+01  0.14749095515E+02  0.51100000000E-03 0.  1.
        -12    1    3    3    0    0  0.29427435873E+01 -0.28816044039E+02  0.45196145799E+01  0.29316395580E+02  0.00000000000E+00 0.  1.
</event>
<event>
 7    1  0.2976321E-013  0.7246157E+02  0.7816164E-02  0.1226708E+00
        -11   -1    0    0    0    0  0.00000000000E+00  0.00000000000E+00  0.45593999997E+02  0.45594000000E+02  0.51100000000E-03 0. -1.
         11   -1    0    0    0    0 -0.00000000000E+00 -0.00000000000E+00 -0.45593999997E+02  0.45594000000E+02  0.51100000000E-03 0.  1.
    9900012    2    1    2    0    0  0.13664812414E+02 -0.12435597948E+02  0.30508753703E+01  0.72461573882E+02  0.70000004673E+02 0.  0.
         12    1    1    2    0    0 -0.13664812414E+02  0.12435597948E+02 -0.30508753703E+01  0.18726426118E+02  0.00000000000E+00 0. -1.
         11    1    3    3    0    0  0.42656149619E+01 -0.29836106836E+01 -0.69576281776E+00  0.52518082481E+01  0.51100000000E-03 0. -1.
        -11    1    3    3    0    0  0.65410489329E+01 -0.23540473342E+02 -0.25070070241E+02  0.35006394108E+02  0.51100000000E-03 0.  1.
         12    1    3    3    0    0  0.28581485196E+01  0.14088486078E+02  0.28816708429E+02  0.32203371525E+02  0.00000000000E+00 0. -1.
</event>
<event>
 7    1  0.2976321E-013  0.7246154E+02  0.7816164E-02  0.1226708E+00
        -11   -1    0    0    0    0  0.00000000000E+00  0.00000000000E+00  0.45593999997E+02  0.45594000000E+02  0.51100000000E-03 0.  1.
         11   -1    0    0    0    0 -0.00000000000E+00 -0.00000000000E+00 -0.45593999997E+02  0.45594000000E+02  0.51100000000E-03 0. -1.
    9900012    2    1    2    0    0 -0.16884716840E+01  0.10646060875E+02  0.15313085841E+02  0.72461544202E+02  0.69999966010E+02 0.  0.
         12    1    1    2    0    0  0.16884716840E+01 -0.10646060875E+02 -0.15313085841E+02  0.18726455798E+02  0.00000000000E+00 0. -1.
         11    1    3    3    0    0 -0.21858652792E+01  0.38106199506E+02  0.14173254762E+02  0.40715373001E+02  0.51100000000E-03 0. -1.
        -11    1    3    3    0    0  0.17692801803E+01  0.12868171909E+01 -0.17840047701E+01  0.28229282881E+01  0.51100000000E-03 0.  1.
        -12    1    3    3    0    0 -0.12718865851E+01 -0.28746955822E+02  0.29238358484E+01  0.28923242912E+02  0.00000000000E+00 0.  1.
</event>
<event>
 7    1  0.2976321E-013  0.7246158E+02  0.7816164E-02  0.1226708E+00
        -11   -1    0    0    0    0  0.00000000000E+00  0.00000000000E+00  0.45593999997E+02  0.45594000000E+02  0.51100000000E-03 0.  1.
         11   -1    0    0    0    0 -0.00000000000E+00 -0.00000000000E+00 -0.45593999997E+02  0.45594000000E+02  0.51100000000E-03 0. -1.
    9900012    2    1    2    0    0  0.18141997229E+00  0.84493646795E+01  0.16710893268E+02  0.72461584687E+02  0.70000018749E+02 0.  0.
         12    1    1    2    0    0 -0.18141997229E+00 -0.84493646795E+01 -0.16710893268E+02  0.18726415313E+02  0.00000000000E+00 0. -1.
         11    1    3    3    0    0  0.20613568629E+02 -0.20321859461E+02  0.48745059393E+00  0.28950557714E+02  0.51100000000E-03 0. -1.
        -11    1    3    3    0    0 -0.17191853447E+01 -0.30030168329E+01  0.19334119705E+01  0.39638100935E+01  0.51100000000E-03 0.  1.
        -12    1    3    3    0    0 -0.18712963312E+02  0.31774240974E+02  0.14290030703E+02  0.39547216879E+02  0.00000000000E+00 0.  1.
</event>
<event>
 7    1  0.3105922E-013  0.7246156E+02  0.7816164E-02  0.1226708E+00
        -11   -1    0    0    0    0  0.00000000000E+00  0.00000000000E+00  0.45593999997E+02  0.45594000000E+02  0.51100000000E-03 0. -1.
         11   -1    0    0    0    0 -0.00000000000E+00 -0.00000000000E+00 -0.45593999997E+02  0.45594000000E+02  0.51100000000E-03 0.  1.
    9900012    2    1    2    0    0  0.78606275536E+01  0.87447496795E+00 -0.16974260882E+02  0.72461556010E+02  0.69999981392E+02 0.  0.
         12    1    1    2    0    0 -0.78606275536E+01 -0.87447496795E+00  0.16974260882E+02  0.18726443990E+02  0.00000000000E+00 0. -1.
         11    1    3    3    0    0  0.27569724729E+02 -0.62919737543E+01 -0.45359120721E+01  0.28640062045E+02  0.51100000000E-03 0. -1.
        -11    1    3    3    0    0 -0.51836297862E+01 -0.67597926425E+01  0.10360156477E+02  0.13412593217E+02  0.51100000000E-03 0.  1.
        -12    1    3    3    0    0 -0.14525467389E+02  0.13926241365E+02 -0.22798505287E+02  0.30408900748E+02  0.00000000000E+00 0.  1.
</event>
<event>
 7    1  0.2976321E-013  0.7246167E+02  0.7816164E-02  0.1226708E+00
        -11   -1    0    0    0    0  0.00000000000E+00  0.00000000000E+00  0.45593999997E+02  0.45594000000E+02  0.51100000000E-03 0.  1.
         11   -1    0    0    0    0 -0.00000000000E+00 -0.00000000000E+00 -0.45593999997E+02  0.45594000000E+02  0.51100000000E-03 0. -1.
    9900012    2    1    2    0    0 -0.10419920548E+02  0.93492784657E+01  0.12437512848E+02  0.72461668861E+02  0.70000128402E+02 0.  0.
         12    1    1    2    0    0  0.10419920548E+02 -0.93492784657E+01 -0.12437512848E+02  0.18726331139E+02  0.00000000000E+00 0. -1.
         11    1    3    3    0    0  0.20334656553E+02  0.12743473302E+02  0.42814255644E+01  0.24376730176E+02  0.51100000000E-03 0. -1.
        -11    1    3    3    0    0 -0.76712782302E+01  0.10973572791E+02 -0.88179998030E+01  0.16031997077E+02  0.51100000000E-03 0.  1.
        -12    1    3    3    0    0 -0.23083298871E+02 -0.14367767627E+02  0.16974087087E+02  0.32052941609E+02  0.00000000000E+00 0.  1.
</event>
<event>
 7    1  0.2976321E-013  0.7246151E+02  0.7816164E-02  0.1226708E+00
        -11   -1    0    0    0    0  0.00000000000E+00  0.00000000000E+00  0.45593999997E+02  0.45594000000E+02  0.51100000000E-03 0. -1.
         11   -1    0    0    0    0 -0.00000000000E+00 -0.00000000000E+00 -0.45593999997E+02  0.45594000000E+02  0.51100000000E-03 0.  1.
    9900012    2    1    2    0    0  0.14060186043E+02 -0.73559252335E+01 -0.99439964826E+01  0.72461507172E+02  0.69999917771E+02 0.  0.
         12    1    1    2    0    0 -0.14060186043E+02  0.73559252335E+01  0.99439964826E+01  0.18726492828E+02  0.00000000000E+00 0. -1.
         11    1    3    3    0    0  0.16330338095E+02  0.62518713900E+01  0.15301482035E+02  0.23235773947E+02  0.51100000000E-03 0. -1.
        -11    1    3    3    0    0  0.12520997009E+02  0.84074635069E+01 -0.51036568009E+01  0.15921938378E+02  0.51100000000E-03 0.  1.
        -12    1    3    3    0    0 -0.14791149061E+02 -0.22015260130E+02 -0.20141821717E+02  0.33303794847E+02  0.00000000000E+00 0.  1.
</event>
<event>
 7    1  0.2976321E-013  0.7246149E+02  0.7816164E-02  0.1226708E+00
        -11   -1    0    0    0    0  0.00000000000E+00  0.00000000000E+00  0.45593999997E+02  0.45594000000E+02  0.51100000000E-03 0. -1.
         11   -1    0    0    0    0 -0.00000000000E+00 -0.00000000000E+00 -0.45593999997E+02  0.45594000000E+02  0.51100000000E-03 0.  1.
    9900012    2    1    2    0    0  0.18113738884E+02  0.47093092602E+01  0.63013719481E+00  0.72461489301E+02  0.69999894491E+02 0.  0.
         12    1    1    2    0    0 -0.18113738884E+02 -0.47093092602E+01 -0.63013719481E+00  0.18726510699E+02  0.00000000000E+00 0. -1.
         11    1    3    3    0    0 -0.14887322721E+02 -0.55816397358E+01  0.27503099691E+01  0.16135404709E+02  0.51100000000E-03 0. -1.
        -11    1    3    3    0    0 -0.34649582125E+01  0.15772312999E+02  0.80920178062E+01  0.18062462323E+02  0.51100000000E-03 0.  1.
        -12    1    3    3    0    0  0.36466019818E+02 -0.54813640026E+01 -0.10212190580E+02  0.38263622269E+02  0.00000000000E+00 0.  1.
</event>
<event>
 7    1  0.2976321E-013  0.7246161E+02  0.7816164E-02  0.1226708E+00
        -11   -1    0    0    0    0  0.00000000000E+00  0.00000000000E+00  0.45593999997E+02  0.45594000000E+02  0.51100000000E-03 0.  1.
         11   -1    0    0    0    0 -0.00000000000E+00 -0.00000000000E+00 -0.45593999997E+02  0.45594000000E+02  0.51100000000E-03 0. -1.
    9900012    2    1    2    0    0  0.75484212760E+01  0.94363921558E+01  0.14305714970E+02  0.72461611094E+02  0.70000053149E+02 0.  0.
         12    1    1    2    0    0 -0.75484212760E+01 -0.94363921558E+01 -0.14305714970E+02  0.18726388906E+02  0.00000000000E+00 0. -1.
         11    1    3    3    0    0  0.79928340213E+00 -0.17554675396E+02  0.17035041095E+02  0.24474437840E+02  0.51100000000E-03 0. -1.
        -11    1    3    3    0    0 -0.14997060073E+02  0.73542574932E+01 -0.74848833471E+01  0.18303562306E+02  0.51100000000E-03 0.  1.
        -12    1    3    3    0    0  0.21746197947E+02  0.19636810059E+02  0.47555572219E+01  0.29683610948E+02  0.00000000000E+00 0.  1.
</event>
<event>
 7    1  0.2976321E-013  0.7246174E+02  0.7816164E-02  0.1226708E+00
        -11   -1    0    0    0    0  0.00000000000E+00  0.00000000000E+00  0.45593999997E+02  0.45594000000E+02  0.51100000000E-03 0.  1.
         11   -1    0    0    0    0 -0.00000000000E+00 -0.00000000000E+00 -0.45593999997E+02  0.45594000000E+02  0.51100000000E-03 0. -1.
    9900012    2    1    2    0    0 -0.41861741829E+01  0.18062125519E+02  0.26283632405E+01  0.72461742342E+02  0.70000224124E+02 0.  0.
         12    1    1    2    0    0  0.41861741829E+01 -0.18062125519E+02 -0.26283632405E+01  0.18726257658E+02  0.00000000000E+00 0. -1.
         11    1    3    3    0    0  0.28411306534E+01  0.27119283193E+02 -0.19722846933E+02  0.33652908279E+02  0.51100000000E-03 0. -1.
        -11    1    3    3    0    0  0.28334551857E+01  0.83575304682E+01  0.15163676152E+02  0.17544624775E+02  0.51100000000E-03 0.  1.
        -12    1    3    3    0    0 -0.98607600220E+01 -0.17414688142E+02  0.71875340214E+01  0.21264209287E+02  0.00000000000E+00 0.  1.
</event>
<event>
 7    1  0.2976321E-013  0.7246156E+02  0.7816164E-02  0.1226708E+00
        -11   -1    0    0    0    0  0.00000000000E+00  0.00000000000E+00  0.45593999997E+02  0.45594000000E+02  0.51100000000E-03 0.  1.
         11   -1    0    0    0    0 -0.00000000000E+00 -0.00000000000E+00 -0.45593999997E+02  0.45594000000E+02  0.51100000000E-03 0. -1.
    9900012    2    1    2    0    0  0.84625862484E+01  0.12744640580E+02  0.10799927539E+02  0.72461557082E+02  0.69999982788E+02 0.  0.
         12    1    1    2    0    0 -0.84625862484E+01 -0.12744640580E+02 -0.10799927539E+02  0.18726442918E+02  0.00000000000E+00 0. -1.
         11    1    3    3    0    0  0.42637092783E+01  0.16585456849E+02  0.28421675384E+01  0.17358989379E+02  0.51100000000E-03 0. -1.
        -11    1    3    3    0    0 -0.12289921829E+02  0.20366916286E+02  0.98618213824E+01  0.25750902485E+02  0.51100000000E-03 0.  1.
         12    1    3    3    0    0  0.16488798799E+02 -0.24207732554E+02 -0.19040613821E+01  0.29351665217E+02  0.00000000000E+00 0. -1.
</event>
<event>
 7    1  0.2976321E-013  0.7246151E+02  0.7816164E-02  0.1226708E+00
        -11   -1    0    0    0    0  0.00000000000E+00  0.00000000000E+00  0.45593999997E+02  0.45594000000E+02  0.51100000000E-03 0. -1.
         11   -1    0    0    0    0 -0.00000000000E+00 -0.00000000000E+00 -0.45593999997E+02  0.45594000000E+02  0.51100000000E-03 0.  1.
    9900012    2    1    2    0    0  0.11063825218E+02  0.15036465875E+02 -0.14757930642E+01  0.72461508080E+02  0.69999918954E+02 0.  0.
         12    1    1    2    0    0 -0.11063825218E+02 -0.15036465875E+02  0.14757930642E+01  0.18726491920E+02  0.00000000000E+00 0. -1.
         11    1    3    3    0    0 -0.63272210771E+01  0.17786658799E+02 -0.15475633336E+02  0.24410943964E+02  0.51100000000E-03 0.  1.
        -11    1    3    3    0    0 -0.66518741234E+01  0.95452367546E+01 -0.72320485566E+01  0.13698959838E+02  0.51100000000E-03 0. -1.
         12    1    3    3    0    0  0.24042920419E+02 -0.12295429678E+02  0.21231888829E+02  0.34351604278E+02  0.00000000000E+00 0. -1.
</event>
<event>
 7    1  0.2976321E-013  0.7246159E+02  0.7816164E-02  0.1226708E+00
        -11   -1    0    0    0    0  0.00000000000E+00  0.00000000000E+00  0.45593999997E+02  0.45594000000E+02  0.51100000000E-03 0.  1.
         11   -1    0    0    0    0 -0.00000000000E+00 -0.00000000000E+00 -0.45593999997E+02  0.45594000000E+02  0.51100000000E-03 0. -1.
    9900012    2    1    2    0    0 -0.16973507274E+02  0.15454177738E+01  0.77582332292E+01  0.72461589556E+02  0.70000025092E+02 0.  0.
         12    1    1    2    0    0  0.16973507274E+02 -0.15454177738E+01 -0.77582332292E+01  0.18726410444E+02  0.00000000000E+00 0. -1.
         11    1    3    3    0    0 -0.13643776057E+01 -0.17794165820E+02  0.10934138678E+02  0.20929626188E+02  0.51100000000E-03 0. -1.
        -11    1    3    3    0    0 -0.36790592474E+01  0.16453168308E+02  0.19481316956E+02  0.25763616496E+02  0.51100000000E-03 0.  1.
         12    1    3    3    0    0 -0.11930070421E+02  0.28864152849E+01 -0.22657222405E+02  0.25768346873E+02  0.00000000000E+00 0. -1.
</event>
<event>
 7    1  0.2976321E-013  0.7246155E+02  0.7816164E-02  0.1226708E+00
        -11   -1    0    0    0    0  0.00000000000E+00  0.00000000000E+00  0.45593999997E+02  0.45594000000E+02  0.51100000000E-03 0.  1.
         11   -1    0    0    0    0 -0.00000000000E+00 -0.00000000000E+00 -0.45593999997E+02  0.45594000000E+02  0.51100000000E-03 0. -1.
    9900012    2    1    2    0    0  0.17383722227E+02 -0.63769025439E+01 -0.27966418456E+01  0.72461551053E+02  0.69999974935E+02 0.  0.
         12    1    1    2    0    0 -0.17383722227E+02  0.63769025439E+01  0.27966418456E+01  0.18726448947E+02  0.00000000000E+00 0. -1.
         11    1    3    3    0    0  0.68276749944E+01  0.94695157401E+01 -0.13114409947E+02  0.17557808027E+02  0.51100000000E-03 0. -1.
        -11    1    3    3    0    0  0.25454921936E+02 -0.53703784950E+01 -0.97691397020E+01  0.27789028531E+02  0.51100000000E-03 0.  1.
         12    1    3    3    0    0 -0.14898874703E+02 -0.10476039789E+02  0.20086907804E+02  0.27114714496E+02  0.00000000000E+00 0. -1.
</event>
<event>
 7    1  0.2976321E-013  0.7246158E+02  0.7816164E-02  0.1226708E+00
        -11   -1    0    0    0    0  0.00000000000E+00  0.00000000000E+00  0.45593999997E+02  0.45594000000E+02  0.51100000000E-03 0.  1.
         11   -1    0    0    0    0 -0.00000000000E+00 -0.00000000000E+00 -0.45593999997E+02  0.45594000000E+02  0.51100000000E-03 0. -1.
    9900012    2    1    2    0    0  0.67572466106E+01  0.10074791246E+02  0.14265933454E+02  0.72461583960E+02  0.70000017802E+02 0.  0.
         12    1    1    2    0    0 -0.67572466106E+01 -0.10074791246E+02 -0.14265933454E+02  0.18726416040E+02  0.00000000000E+00 0. -1.
         11    1    3    3    0    0 -0.33149481561E+01  0.49234973152E+01 -0.12764276965E+02  0.14076806235E+02  0.51100000000E-03 0. -1.
        -11    1    3    3    0    0 -0.16525551681E+02 -0.10816418978E+02  0.51154993396E+01  0.20402380048E+02  0.51100000000E-03 0.  1.
        -12    1    3    3    0    0  0.26597746448E+02  0.15967712909E+02  0.21914711079E+02  0.37982397677E+02  0.00000000000E+00 0.  1.
</event>
<event>
 7    1  0.2976321E-013  0.7246152E+02  0.7816164E-02  0.1226708E+00
        -11   -1    0    0    0    0  0.00000000000E+00  0.00000000000E+00  0.45593999997E+02  0.45594000000E+02  0.51100000000E-03 0. -1.
         11   -1    0    0    0    0 -0.00000000000E+00 -0.00000000000E+00 -0.45593999997E+02  0.45594000000E+02  0.51100000000E-03 0.  1.
    9900012    2    1    2    0    0 -0.22212995635E+01 -0.68349856272E+01 -0.17292482069E+02  0.72461517779E+02  0.69999931589E+02 0.  0.
         12    1    1    2    0    0  0.22212995635E+01  0.68349856272E+01  0.17292482069E+02  0.18726482221E+02  0.00000000000E+00 0. -1.
         11    1    3    3    0    0 -0.22781029859E+02  0.67159658212E+01  0.94001953496E+01  0.25542967549E+02  0.51100000000E-03 0. -1.
        -11    1    3    3    0    0  0.19496888306E+01 -0.32041994273E+01  0.64875308800E+01  0.74937465720E+01  0.51100000000E-03 0.  1.
        -12    1    3    3    0    0  0.18610041465E+02 -0.10346752021E+02 -0.33180208299E+02  0.39424803658E+02  0.00000000000E+00 0.  1.
</event>
<event>
 7    1  0.2976321E-013  0.7246158E+02  0.7816164E-02  0.1226708E+00
        -11   -1    0    0    0    0  0.00000000000E+00  0.00000000000E+00  0.45593999997E+02  0.45594000000E+02  0.51100000000E-03 0.  1.
         11   -1    0    0    0    0 -0.00000000000E+00 -0.00000000000E+00 -0.45593999997E+02  0.45594000000E+02  0.51100000000E-03 0. -1.
    9900012    2    1    2    0    0 -0.73902884086E+00 -0.17234204002E+01  0.18632297071E+02  0.72461579209E+02  0.70000011613E+02 0.  0.
         12    1    1    2    0    0  0.73902884086E+00  0.17234204002E+01 -0.18632297071E+02  0.18726420791E+02  0.00000000000E+00 0. -1.
         11    1    3    3    0    0  0.16073173229E+02  0.11262148069E+02  0.99443009746E+01  0.22001636279E+02  0.51100000000E-03 0. -1.
        -11    1    3    3    0    0 -0.23075828577E+02  0.49309377687E+01 -0.82738665596E+01  0.25005297037E+02  0.51100000000E-03 0.  1.
         12    1    3    3    0    0  0.62636265066E+01 -0.17916506238E+02  0.16961862656E+02  0.25454645894E+02  0.00000000000E+00 0. -1.
</event>
<event>
 7    1  0.3364963E-013  0.7246144E+02  0.7816164E-02  0.1226708E+00
        -11   -1    0    0    0    0  0.00000000000E+00  0.00000000000E+00  0.45593999997E+02  0.45594000000E+02  0.51100000000E-03 0.  1.
         11   -1    0    0    0    0 -0.00000000000E+00 -0.00000000000E+00 -0.45593999997E+02  0.45594000000E+02  0.51100000000E-03 0. -1.
    9900012    2    1    2    0    0  0.18276435675E+02 -0.32703889436E+01  0.24414502109E+01  0.72461435340E+02  0.69999824197E+02 0.  0.
         12    1    1    2    0    0 -0.18276435675E+02  0.32703889436E+01 -0.24414502109E+01  0.18726564660E+02  0.00000000000E+00 0. -1.
         11    1    3    3    0    0  0.21148110420E+02  0.15127532800E+02 -0.19073948182E+02  0.32247485522E+02  0.51100000000E-03 0. -1.
        -11    1    3    3    0    0 -0.13574275210E+01  0.30546069009E+01 -0.50367162513E+01  0.60449767287E+01  0.51100000000E-03 0.  1.
        -12    1    3    3    0    0 -0.15142472241E+01 -0.21452528645E+02  0.26552114645E+02  0.34168973090E+02  0.00000000000E+00 0.  1.
</event>
<event>
 7    1  0.2976321E-013  0.7246158E+02  0.7816164E-02  0.1226708E+00
        -11   -1    0    0    0    0  0.00000000000E+00  0.00000000000E+00  0.45593999997E+02  0.45594000000E+02  0.51100000000E-03 0. -1.
         11   -1    0    0    0    0 -0.00000000000E+00 -0.00000000000E+00 -0.45593999997E+02  0.45594000000E+02  0.51100000000E-03 0.  1.
    9900012    2    1    2    0    0  0.15169494369E+02 -0.10598807085E+02 -0.28688776534E+01  0.72461582029E+02  0.70000015286E+02 0.  0.
         12    1    1    2    0    0 -0.15169494369E+02  0.10598807085E+02  0.28688776534E+01  0.18726417971E+02  0.00000000000E+00 0. -1.
         11    1    3    3    0    0  0.96193728578E+00  0.12031634611E+02  0.21972210368E+02  0.25069175963E+02  0.51100000000E-03 0. -1.
        -11    1    3    3    0    0 -0.58112885508E+01 -0.64250290717E+00  0.30749746892E+01  0.66060089470E+01  0.51100000000E-03 0.  1.
        -12    1    3    3    0    0  0.20018845634E+02 -0.21987938788E+02 -0.27916062710E+02  0.40786397119E+02  0.00000000000E+00 0.  1.
</event>
<event>
 7    1  0.2976321E-013  0.7246165E+02  0.7816164E-02  0.1226708E+00
        -11   -1    0    0    0    0  0.00000000000E+00  0.00000000000E+00  0.45593999997E+02  0.45594000000E+02  0.51100000000E-03 0. -1.
         11   -1    0    0    0    0 -0.00000000000E+00 -0.00000000000E+00 -0.45593999997E+02  0.45594000000E+02  0.51100000000E-03 0.  1.
    9900012    2    1    2    0    0 -0.13294891573E+02  0.33045691984E+01 -0.12767222687E+02  0.72461647054E+02  0.70000099994E+02 0.  0.
         12    1    1    2    0    0  0.13294891573E+02 -0.33045691984E+01  0.12767222687E+02  0.18726352946E+02  0.00000000000E+00 0. -1.
         11    1    3    3    0    0 -0.39391982679E+01  0.56808310285E+01 -0.86777004963E+01  0.11094665850E+02  0.51100000000E-03 0. -1.
        -11    1    3    3    0    0 -0.28883727702E+02  0.17157453358E+02 -0.15824132922E+01  0.33632602691E+02  0.51100000000E-03 0.  1.
         12    1    3    3    0    0  0.19528034397E+02 -0.19533715188E+02 -0.25071088981E+01  0.27734378513E+02  0.00000000000E+00 0. -1.
</event>
<event>
 7    1  0.2976321E-013  0.7246160E+02  0.7816164E-02  0.1226708E+00
        -11   -1    0    0    0    0  0.00000000000E+00  0.00000000000E+00  0.45593999997E+02  0.45594000000E+02  0.51100000000E-03 0. -1.
         11   -1    0    0    0    0 -0.00000000000E+00 -0.00000000000E+00 -0.45593999997E+02  0.45594000000E+02  0.51100000000E-03 0.  1.
    9900012    2    1    2    0    0  0.15831998632E+02 -0.62454898760E+01 -0.78115150610E+01  0.72461599063E+02  0.70000037477E+02 0.  0.
         12    1    1    2    0    0 -0.15831998632E+02  0.62454898760E+01  0.78115150610E+01  0.18726400937E+02  0.00000000000E+00 0. -1.
         11    1    3    3    0    0 -0.13046276054E+02 -0.47796322483E+01  0.10276506036E+02  0.17281689150E+02  0.51100000000E-03 0. -1.
        -11    1    3    3    0    0  0.42137641123E+01 -0.14664317593E+02 -0.22166729563E+02  0.26910256749E+02  0.51100000000E-03 0.  1.
         12    1    3    3    0    0  0.24664510574E+02  0.13198459966E+02  0.40787084666E+01  0.28269653165E+02  0.00000000000E+00 0. -1.
</event>
<event>
 7    1  0.3037687E-013  0.7246157E+02  0.7816164E-02  0.1226708E+00
        -11   -1    0    0    0    0  0.00000000000E+00  0.00000000000E+00  0.45593999997E+02  0.45594000000E+02  0.51100000000E-03 0. -1.
         11   -1    0    0    0    0 -0.00000000000E+00 -0.00000000000E+00 -0.45593999997E+02  0.45594000000E+02  0.51100000000E-03 0.  1.
    9900012    2    1    2    0    0  0.36255766330E+01  0.33711127228E+01 -0.18060171526E+02  0.72461574755E+02  0.70000005811E+02 0.  0.
         12    1    1    2    0    0 -0.36255766330E+01 -0.33711127228E+01  0.18060171526E+02  0.18726425245E+02  0.00000000000E+00 0. -1.
         11    1    3    3    0    0  0.25439452921E+01  0.47818951710E+01  0.19945754077E+02  0.20668122436E+02  0.51100000000E-03 0. -1.
        -11    1    3    3    0    0 -0.90110158454E+01  0.47974629357E+01  0.17071911352E+01  0.10350292702E+02  0.51100000000E-03 0.  1.
        -12    1    3    3    0    0  0.10092647186E+02 -0.62082453839E+01 -0.39713116738E+02  0.41443159617E+02  0.00000000000E+00 0.  1.
</event>
<event>
 7    1  0.2976321E-013  0.7246157E+02  0.7816164E-02  0.1226708E+00
        -11   -1    0    0    0    0  0.00000000000E+00  0.00000000000E+00  0.45593999997E+02  0.45594000000E+02  0.51100000000E-03 0.  1.
         11   -1    0    0    0    0 -0.00000000000E+00 -0.00000000000E+00 -0.45593999997E+02  0.45594000000E+02  0.51100000000E-03 0. -1.
    9900012    2    1    2    0    0  0.12070970491E+02  0.10308007326E+02  0.99355757147E+01  0.72461574596E+02  0.70000005603E+02 0.  0.
         12    1    1    2    0    0 -0.12070970491E+02 -0.10308007326E+02 -0.99355757147E+01  0.18726425404E+02  0.00000000000E+00 0. -1.
         11    1    3    3    0    0  0.46213450651E+01 -0.16014068941E+01  0.45301095219E+01  0.66665753421E+01  0.51100000000E-03 0. -1.
        -11    1    3    3    0    0  0.23699319076E+02  0.31556212340E+02 -0.11078879102E+01  0.39480117500E+02  0.51100000000E-03 0.  1.
         12    1    3    3    0    0 -0.16249693650E+02 -0.19646798119E+02  0.65133541030E+01  0.26314881754E+02  0.00000000000E+00 0. -1.
</event>
<event>
 7    1  0.2976321E-013  0.7246156E+02  0.7816164E-02  0.1226708E+00
        -11   -1    0    0    0    0  0.00000000000E+00  0.00000000000E+00  0.45593999997E+02  0.45594000000E+02  0.51100000000E-03 0.  1.
         11   -1    0    0    0    0 -0.00000000000E+00 -0.00000000000E+00 -0.45593999997E+02  0.45594000000E+02  0.51100000000E-03 0. -1.
    9900012    2    1    2    0    0 -0.71121551396E+01 -0.13705513640E+02  0.10595084546E+02  0.72461556894E+02  0.69999982543E+02 0.  0.
         12    1    1    2    0    0  0.71121551396E+01  0.13705513640E+02 -0.10595084546E+02  0.18726443106E+02  0.00000000000E+00 0. -1.
         11    1    3    3    0    0 -0.13721801208E+02  0.15382511054E+01  0.63209003913E+01  0.15185777124E+02  0.51100000000E-03 0. -1.
        -11    1    3    3    0    0  0.16911784724E+02  0.12425840072E+02  0.15072567087E+02  0.25837806464E+02  0.51100000000E-03 0.  1.
         12    1    3    3    0    0 -0.10302138656E+02 -0.27669604817E+02 -0.10798382932E+02  0.31437973305E+02  0.00000000000E+00 0. -1.
</event>
<event>
 7    1  0.2976321E-013  0.7246155E+02  0.7816164E-02  0.1226708E+00
        -11   -1    0    0    0    0  0.00000000000E+00  0.00000000000E+00  0.45593999997E+02  0.45594000000E+02  0.51100000000E-03 0. -1.
         11   -1    0    0    0    0 -0.00000000000E+00 -0.00000000000E+00 -0.45593999997E+02  0.45594000000E+02  0.51100000000E-03 0.  1.
    9900012    2    1    2    0    0 -0.17654827021E+02 -0.57958766146E+01 -0.23227013560E+01  0.72461546933E+02  0.69999969567E+02 0.  0.
         12    1    1    2    0    0  0.17654827021E+02  0.57958766146E+01  0.23227013560E+01  0.18726453067E+02  0.00000000000E+00 0. -1.
         11    1    3    3    0    0  0.16643144115E+01 -0.10430867310E+01  0.26281783388E+01  0.32810507509E+01  0.51100000000E-03 0. -1.
        -11    1    3    3    0    0 -0.14603603666E+00 -0.32976969207E+02  0.56355634716E+01  0.33455364301E+02  0.51100000000E-03 0.  1.
         12    1    3    3    0    0 -0.19173105396E+02  0.28224179323E+02 -0.10586443166E+02  0.35725131881E+02  0.00000000000E+00 0. -1.
</event>
<event>
 7    1  0.2976321E-013  0.7246152E+02  0.7816164E-02  0.1226708E+00
        -11   -1    0    0    0    0  0.00000000000E+00  0.00000000000E+00  0.45593999997E+02  0.45594000000E+02  0.51100000000E-03 0. -1.
         11   -1    0    0    0    0 -0.00000000000E+00 -0.00000000000E+00 -0.45593999997E+02  0.45594000000E+02  0.51100000000E-03 0.  1.
    9900012    2    1    2    0    0 -0.63962929317E+01  0.15730394253E+02  0.78945050657E+01  0.72461519368E+02  0.69999933659E+02 0.  0.
         12    1    1    2    0    0  0.63962929317E+01 -0.15730394253E+02 -0.78945050657E+01  0.18726480632E+02  0.00000000000E+00 0. -1.
         11    1    3    3    0    0  0.70071283314E+01 -0.25456058918E+02  0.54674789864E+01  0.26963013738E+02  0.51100000000E-03 0. -1.
        -11    1    3    3    0    0  0.21343645121E+01  0.28469834545E+01  0.20944165496E+01  0.41288506397E+01  0.51100000000E-03 0.  1.
         12    1    3    3    0    0 -0.15537785775E+02  0.38339469717E+02  0.33260952963E+00  0.41369654991E+02  0.00000000000E+00 0. -1.
</event>
<event>
 7    1  0.3255190E-013  0.7246156E+02  0.7816164E-02  0.1226708E+00
        -11   -1    0    0    0    0  0.00000000000E+00  0.00000000000E+00  0.45593999997E+02  0.45594000000E+02  0.51100000000E-03 0.  1.
         11   -1    0    0    0    0 -0.00000000000E+00 -0.00000000000E+00 -0.45593999997E+02  0.45594000000E+02  0.51100000000E-03 0. -1.
    9900012    2    1    2    0    0  0.11270790140E+02 -0.11812672454E+02  0.91711388311E+01  0.72461555374E+02  0.69999980563E+02 0.  0.
         12    1    1    2    0    0 -0.11270790140E+02  0.11812672454E+02 -0.91711388311E+01  0.18726444626E+02  0.00000000000E+00 0. -1.
         11    1    3    3    0    0  0.80369209347E+01  0.60688630079E+01 -0.16899747627E+02  0.19672942495E+02  0.51100000000E-03 0. -1.
        -11    1    3    3    0    0 -0.65249084386E+01 -0.20173745044E+02 -0.35676374286E+01  0.21500754785E+02  0.51100000000E-03 0.  1.
        -12    1    3    3    0    0  0.97587776444E+01  0.22922095826E+01  0.29638523886E+02  0.31287858093E+02  0.00000000000E+00 0.  1.
</event>
<event>
 7    1  0.2976321E-013  0.7246156E+02  0.7816164E-02  0.1226708E+00
        -11   -1    0    0    0    0  0.00000000000E+00  0.00000000000E+00  0.45593999997E+02  0.45594000000E+02  0.51100000000E-03 0.  1.
         11   -1    0    0    0    0 -0.00000000000E+00 -0.00000000000E+00 -0.45593999997E+02  0.45594000000E+02  0.51100000000E-03 0. -1.
    9900012    2    1    2    0    0  0.16060580849E+01  0.12113359989E+01  0.18618076481E+02  0.72461560687E+02  0.69999987485E+02 0.  0.
         12    1    1    2    0    0 -0.16060580849E+01 -0.12113359989E+01 -0.18618076481E+02  0.18726439313E+02  0.00000000000E+00 0. -1.
         11    1    3    3    0    0  0.27354030188E+01  0.88710450627E+01  0.10909593070E+02  0.14324702140E+02  0.51100000000E-03 0. -1.
        -11    1    3    3    0    0  0.15697750923E+02  0.38805180097E+01  0.26076365091E+02  0.30683132511E+02  0.51100000000E-03 0.  1.
         12    1    3    3    0    0 -0.16827095857E+02 -0.11540227074E+02 -0.18367881680E+02  0.27453726037E+02  0.00000000000E+00 0. -1.
</event>
<event>
 7    1  0.2976321E-013  0.7246162E+02  0.7816164E-02  0.1226708E+00
        -11   -1    0    0    0    0  0.00000000000E+00  0.00000000000E+00  0.45593999997E+02  0.45594000000E+02  0.51100000000E-03 0.  1.
         11   -1    0    0    0    0 -0.00000000000E+00 -0.00000000000E+00 -0.45593999997E+02  0.45594000000E+02  0.51100000000E-03 0. -1.
    9900012    2    1    2    0    0 -0.11304102865E+01 -0.11343425645E+02  0.14856858663E+02  0.72461618019E+02  0.70000062170E+02 0.  0.
         12    1    1    2    0    0  0.11304102865E+01  0.11343425645E+02 -0.14856858663E+02  0.18726381981E+02  0.00000000000E+00 0. -1.
         11    1    3    3    0    0  0.47285266165E+01 -0.10553144125E+02  0.81869327581E+01  0.14168757290E+02  0.51100000000E-03 0. -1.
        -11    1    3    3    0    0  0.47318936589E+01 -0.21060714504E+02 -0.15395355639E+02  0.26513420913E+02  0.51100000000E-03 0.  1.
         12    1    3    3    0    0 -0.10590830562E+02  0.20270432984E+02  0.22065281544E+02  0.31779439815E+02  0.00000000000E+00 0. -1.
</event>
<event>
 7    1  0.2976321E-013  0.7246159E+02  0.7816164E-02  0.1226708E+00
        -11   -1    0    0    0    0  0.00000000000E+00  0.00000000000E+00  0.45593999997E+02  0.45594000000E+02  0.51100000000E-03 0.  1.
         11   -1    0    0    0    0 -0.00000000000E+00 -0.00000000000E+00 -0.45593999997E+02  0.45594000000E+02  0.51100000000E-03 0. -1.
    9900012    2    1    2    0    0  0.13351209010E+02 -0.91590275716E+01  0.94093447834E+01  0.72461592514E+02  0.70000028945E+02 0.  0.
         12    1    1    2    0    0 -0.13351209010E+02  0.91590275716E+01 -0.94093447834E+01  0.18726407486E+02  0.00000000000E+00 0. -1.
         11    1    3    3    0    0  0.13285976453E+02  0.24658513788E+02  0.22864765092E+01  0.28103157254E+02  0.51100000000E-03 0. -1.
        -11    1    3    3    0    0 -0.12315457005E+02 -0.93924404100E+01 -0.17171311971E+01  0.15583226813E+02  0.51100000000E-03 0.  1.
        -12    1    3    3    0    0  0.12380689563E+02 -0.24425100950E+02  0.88399994713E+01  0.28775208446E+02  0.00000000000E+00 0.  1.
</event>
<event>
 7    1  0.2976321E-013  0.7246151E+02  0.7816164E-02  0.1226708E+00
        -11   -1    0    0    0    0  0.00000000000E+00  0.00000000000E+00  0.45593999997E+02  0.45594000000E+02  0.51100000000E-03 0.  1.
         11   -1    0    0    0    0 -0.00000000000E+00 -0.00000000000E+00 -0.45593999997E+02  0.45594000000E+02  0.51100000000E-03 0. -1.
    9900012    2    1    2    0    0 -0.10248217014E+02 -0.14551577439E+02  0.58229653559E+01  0.72461513852E+02  0.69999926473E+02 0.  0.
         12    1    1    2    0    0  0.10248217014E+02  0.14551577439E+02 -0.58229653559E+01  0.18726486148E+02  0.00000000000E+00 0. -1.
         11    1    3    3    0    0  0.75698039707E-01  0.12751869784E+01 -0.98814473851E+00  0.16150115506E+01  0.51100000000E-03 0. -1.
        -11    1    3    3    0    0  0.12761818631E+02  0.22424156421E+02  0.36364574319E+01  0.26056297298E+02  0.51100000000E-03 0.  1.
         12    1    3    3    0    0 -0.23085733685E+02 -0.38250920838E+02  0.31746526625E+01  0.44790205003E+02  0.00000000000E+00 0. -1.
</event>
<event>
 7    1  0.2976321E-013  0.7246154E+02  0.7816164E-02  0.1226708E+00
        -11   -1    0    0    0    0  0.00000000000E+00  0.00000000000E+00  0.45593999997E+02  0.45594000000E+02  0.51100000000E-03 0. -1.
         11   -1    0    0    0    0 -0.00000000000E+00 -0.00000000000E+00 -0.45593999997E+02  0.45594000000E+02  0.51100000000E-03 0.  1.
    9900012    2    1    2    0    0 -0.26388836461E+00 -0.75488081588E+01 -0.17135524846E+02  0.72461538684E+02  0.69999958822E+02 0.  0.
         12    1    1    2    0    0  0.26388836461E+00  0.75488081588E+01  0.17135524846E+02  0.18726461316E+02  0.00000000000E+00 0. -1.
         11    1    3    3    0    0  0.53667488387E+01 -0.67144956199E+00  0.96596336644E+01  0.11070743444E+02  0.51100000000E-03 0. -1.
        -11    1    3    3    0    0 -0.11440830052E+02  0.22120005974E+02 -0.17327375542E+02  0.30338510181E+02  0.51100000000E-03 0.  1.
         12    1    3    3    0    0  0.58101928491E+01 -0.28997364571E+02 -0.94677829682E+01  0.31052285059E+02  0.00000000000E+00 0. -1.
</event>
<event>
 7    1  0.2976321E-013  0.7246157E+02  0.7816164E-02  0.1226708E+00
        -11   -1    0    0    0    0  0.00000000000E+00  0.00000000000E+00  0.45593999997E+02  0.45594000000E+02  0.51100000000E-03 0.  1.
         11   -1    0    0    0    0 -0.00000000000E+00 -0.00000000000E+00 -0.45593999997E+02  0.45594000000E+02  0.51100000000E-03 0. -1.
    9900012    2    1    2    0    0 -0.13981822925E+02  0.36139951858E+01  0.11921692089E+02  0.72461572798E+02  0.70000003261E+02 0.  0.
         12    1    1    2    0    0  0.13981822925E+02 -0.36139951858E+01 -0.11921692089E+02  0.18726427202E+02  0.00000000000E+00 0. -1.
         11    1    3    3    0    0 -0.12670426459E+02 -0.31865866361E+00 -0.17683541762E+02  0.21756582900E+02  0.51100000000E-03 0. -1.
        -11    1    3    3    0    0 -0.81142737158E+01  0.95293257271E+01 -0.61040899673E+01  0.13925135595E+02  0.51100000000E-03 0.  1.
        -12    1    3    3    0    0  0.68028772498E+01 -0.55966718777E+01  0.35709323818E+02  0.36779854303E+02  0.00000000000E+00 0.  1.
</event>
<event>
 7    1  0.2976321E-013  0.7246167E+02  0.7816164E-02  0.1226708E+00
        -11   -1    0    0    0    0  0.00000000000E+00  0.00000000000E+00  0.45593999997E+02  0.45594000000E+02  0.51100000000E-03 0. -1.
         11   -1    0    0    0    0 -0.00000000000E+00 -0.00000000000E+00 -0.45593999997E+02  0.45594000000E+02  0.51100000000E-03 0.  1.
    9900012    2    1    2    0    0  0.12350614643E+02 -0.12479950150E+02  0.65106490356E+01  0.72461671244E+02  0.70000131506E+02 0.  0.
         12    1    1    2    0    0 -0.12350614643E+02  0.12479950150E+02 -0.65106490356E+01  0.18726328756E+02  0.00000000000E+00 0. -1.
         11    1    3    3    0    0  0.27804785526E+01 -0.52528829834E+01 -0.61851123473E+01  0.85778467944E+01  0.51100000000E-03 0. -1.
        -11    1    3    3    0    0  0.66414304992E+01  0.54928688718E+01 -0.23699901453E+02  0.25218357137E+02  0.51100000000E-03 0.  1.
         12    1    3    3    0    0  0.29287055914E+01 -0.12719936038E+02  0.36395662836E+02  0.38665467313E+02  0.00000000000E+00 0. -1.
</event>
<event>
 7    1  0.2976321E-013  0.7246160E+02  0.7816164E-02  0.1226708E+00
        -11   -1    0    0    0    0  0.00000000000E+00  0.00000000000E+00  0.45593999997E+02  0.45594000000E+02  0.51100000000E-03 0.  1.
         11   -1    0    0    0    0 -0.00000000000E+00 -0.00000000000E+00 -0.45593999997E+02  0.45594000000E+02  0.51100000000E-03 0. -1.
    9900012    2    1    2    0    0 -0.90670208504E+00  0.63277037703E+01  0.17601597604E+02  0.72461596664E+02  0.70000034352E+02 0.  0.
         12    1    1    2    0    0  0.90670208504E+00 -0.63277037703E+01 -0.17601597604E+02  0.18726403336E+02  0.00000000000E+00 0. -1.
         11    1    3    3    0    0  0.16068668869E+02 -0.69070950087E+01  0.14240350871E+01  0.17548161068E+02  0.51100000000E-03 0. -1.
        -11    1    3    3    0    0 -0.16117527288E+02 -0.11174590715E+02  0.22336086502E+02  0.29724517221E+02  0.51100000000E-03 0.  1.
         12    1    3    3    0    0 -0.85784366629E+00  0.24409389494E+02 -0.61585239853E+01  0.25188918375E+02  0.00000000000E+00 0. -1.
</event>
<event>
 7    1  0.2976321E-013  0.7246157E+02  0.7816164E-02  0.1226708E+00
        -11   -1    0    0    0    0  0.00000000000E+00  0.00000000000E+00  0.45593999997E+02  0.45594000000E+02  0.51100000000E-03 0.  1.
         11   -1    0    0    0    0 -0.00000000000E+00 -0.00000000000E+00 -0.45593999997E+02  0.45594000000E+02  0.51100000000E-03 0. -1.
    9900012    2    1    2    0    0  0.18348917536E+01 -0.15575407758E+02 -0.10233240509E+02  0.72461565051E+02  0.69999993170E+02 0.  0.
         12    1    1    2    0    0 -0.18348917536E+01  0.15575407758E+02  0.10233240509E+02  0.18726434949E+02  0.00000000000E+00 0. -1.
         11    1    3    3    0    0  0.22142410344E+02 -0.12316704050E+02 -0.56952473885E+01  0.25969662639E+02  0.51100000000E-03 0. -1.
        -11    1    3    3    0    0 -0.11546292838E+01 -0.17144187084E+02  0.88304171731E+01  0.19319228433E+02  0.51100000000E-03 0.  1.
         12    1    3    3    0    0 -0.19152889307E+02  0.13885483375E+02 -0.13368410294E+02  0.27172673979E+02  0.00000000000E+00 0. -1.
</event>
<event>
 7    1  0.2976321E-013  0.7246156E+02  0.7816164E-02  0.1226708E+00
        -11   -1    0    0    0    0  0.00000000000E+00  0.00000000000E+00  0.45593999997E+02  0.45594000000E+02  0.51100000000E-03 0.  1.
         11   -1    0    0    0    0 -0.00000000000E+00 -0.00000000000E+00 -0.45593999997E+02  0.45594000000E+02  0.51100000000E-03 0. -1.
    9900012    2    1    2    0    0 -0.14529076233E+02 -0.32799555529E+01  0.11350216166E+02  0.72461559558E+02  0.69999986014E+02 0.  0.
         12    1    1    2    0    0  0.14529076233E+02  0.32799555529E+01 -0.11350216166E+02  0.18726440442E+02  0.00000000000E+00 0. -1.
         11    1    3    3    0    0  0.99776135165E+00 -0.12072556011E+02 -0.92661553409E-01  0.12114071272E+02  0.51100000000E-03 0. -1.
        -11    1    3    3    0    0  0.14222030151E+01  0.78781073877E+01  0.32402576634E+02  0.33376851412E+02  0.51100000000E-03 0.  1.
         12    1    3    3    0    0 -0.16949040600E+02  0.91449307071E+00 -0.20959698914E+02  0.26970636874E+02  0.00000000000E+00 0. -1.
</event>
<event>
 7    1  0.2976321E-013  0.7246162E+02  0.7816164E-02  0.1226708E+00
        -11   -1    0    0    0    0  0.00000000000E+00  0.00000000000E+00  0.45593999997E+02  0.45594000000E+02  0.51100000000E-03 0. -1.
         11   -1    0    0    0    0 -0.00000000000E+00 -0.00000000000E+00 -0.45593999997E+02  0.45594000000E+02  0.51100000000E-03 0.  1.
    9900012    2    1    2    0    0  0.48939953523E+01  0.14861771228E+02 -0.10288524948E+02  0.72461623411E+02  0.70000069195E+02 0.  0.
         12    1    1    2    0    0 -0.48939953523E+01 -0.14861771228E+02  0.10288524948E+02  0.18726376589E+02  0.00000000000E+00 0. -1.
         11    1    3    3    0    0  0.10721520767E+02  0.20460539628E+02  0.18433051910E+01  0.23172882077E+02  0.51100000000E-03 0. -1.
        -11    1    3    3    0    0  0.17501894388E+02  0.89973854812E+01 -0.88393966075E+01  0.21573228440E+02  0.51100000000E-03 0.  1.
         12    1    3    3    0    0 -0.23329419803E+02 -0.14596153882E+02 -0.32924335315E+01  0.27715512895E+02  0.00000000000E+00 0. -1.
</event>
<event>
 7    1  0.2976321E-013  0.7246156E+02  0.7816164E-02  0.1226708E+00
        -11   -1    0    0    0    0  0.00000000000E+00  0.00000000000E+00  0.45593999997E+02  0.45594000000E+02  0.51100000000E-03 0.  1.
         11   -1    0    0    0    0 -0.00000000000E+00 -0.00000000000E+00 -0.45593999997E+02  0.45594000000E+02  0.51100000000E-03 0. -1.
    9900012    2    1    2    0    0  0.28132488443E+01  0.76217536888E+01  0.16872286073E+02  0.72461560518E+02  0.69999987264E+02 0.  0.
         12    1    1    2    0    0 -0.28132488443E+01 -0.76217536888E+01 -0.16872286073E+02  0.18726439482E+02  0.00000000000E+00 0. -1.
         11    1    3    3    0    0  0.34014247526E+01 -0.10339691599E+02 -0.36442964192E+00  0.10890900878E+02  0.51100000000E-03 0. -1.
        -11    1    3    3    0    0 -0.61973069371E+01 -0.13820499135E+02 -0.10975381111E+02  0.18704860341E+02  0.51100000000E-03 0.  1.
        -12    1    3    3    0    0  0.56091310288E+01  0.31781944422E+02  0.28212096826E+02  0.42865799298E+02  0.00000000000E+00 0.  1.
</event>
<event>
 7    1  0.2976321E-013  0.7246155E+02  0.7816164E-02  0.1226708E+00
        -11   -1    0    0    0    0  0.00000000000E+00  0.00000000000E+00  0.45593999997E+02  0.45594000000E+02  0.51100000000E-03 0.  1.
         11   -1    0    0    0    0 -0.00000000000E+00 -0.00000000000E+00 -0.45593999997E+02  0.45594000000E+02  0.51100000000E-03 0. -1.
    9900012    2    1    2    0    0  0.53871461192E+01 -0.10500713730E+02  0.14539380978E+02  0.72461549953E+02  0.69999973502E+02 0.  0.
         12    1    1    2    0    0 -0.53871461192E+01  0.10500713730E+02 -0.14539380978E+02  0.18726450047E+02  0.00000000000E+00 0. -1.
         11    1    3    3    0    0 -0.24528273655E+01  0.21960443429E+02 -0.15045844402E+02  0.26733029602E+02  0.51100000000E-03 0. -1.
        -11    1    3    3    0    0  0.29015249749E+01 -0.10842618766E+01  0.29104270761E+01  0.42503008156E+01  0.51100000000E-03 0.  1.
        -12    1    3    3    0    0  0.49384485098E+01 -0.31376895282E+02  0.26674798304E+02  0.41478219535E+02  0.00000000000E+00 0.  1.
</event>
<event>
 7    1  0.2976321E-013  0.7246153E+02  0.7816164E-02  0.1226708E+00
        -11   -1    0    0    0    0  0.00000000000E+00  0.00000000000E+00  0.45593999997E+02  0.45594000000E+02  0.51100000000E-03 0.  1.
         11   -1    0    0    0    0 -0.00000000000E+00 -0.00000000000E+00 -0.45593999997E+02  0.45594000000E+02  0.51100000000E-03 0. -1.
    9900012    2    1    2    0    0  0.84826765025E+01  0.11235824183E+02  0.12348319360E+02  0.72461533790E+02  0.69999952446E+02 0.  0.
         12    1    1    2    0    0 -0.84826765025E+01 -0.11235824183E+02 -0.12348319360E+02  0.18726466210E+02  0.00000000000E+00 0. -1.
         11    1    3    3    0    0  0.24403144375E+02 -0.35781847683E+01  0.43330786244E+01  0.25041813678E+02  0.51100000000E-03 0. -1.
        -11    1    3    3    0    0  0.50564879764E+00  0.23979477123E+02  0.13886249091E+02  0.27714597560E+02  0.51100000000E-03 0.  1.
        -12    1    3    3    0    0 -0.16426116670E+02 -0.91654681719E+01 -0.58710083560E+01  0.19705122552E+02  0.00000000000E+00 0.  1.
</event>
<event>
 7    1  0.2976321E-013  0.7246160E+02  0.7816164E-02  0.1226708E+00
        -11   -1    0    0    0    0  0.00000000000E+00  0.00000000000E+00  0.45593999997E+02  0.45594000000E+02  0.51100000000E-03 0. -1.
         11   -1    0    0    0    0 -0.00000000000E+00 -0.00000000000E+00 -0.45593999997E+02  0.45594000000E+02  0.51100000000E-03 0.  1.
    9900012    2    1    2    0    0  0.11688869845E+02  0.40017546720E+01 -0.14072465491E+02  0.72461601422E+02  0.70000040549E+02 0.  0.
         12    1    1    2    0    0 -0.11688869845E+02 -0.40017546720E+01  0.14072465491E+02  0.18726398578E+02  0.00000000000E+00 0. -1.
         11    1    3    3    0    0 -0.51671356065E+00 -0.95454822526E+01  0.87136010804E+01  0.12934839326E+02  0.51100000000E-03 0. -1.
        -11    1    3    3    0    0  0.20955991168E+02  0.90680400281E+01  0.10272130951E+02  0.25037962983E+02  0.51100000000E-03 0.  1.
        -12    1    3    3    0    0 -0.87504077623E+01  0.44791968965E+01 -0.33058197522E+02  0.34488799113E+02  0.00000000000E+00 0.  1.
</event>
<event>
 7    1  0.2976321E-013  0.7246140E+02  0.7816164E-02  0.1226708E+00
        -11   -1    0    0    0    0  0.00000000000E+00  0.00000000000E+00  0.45593999997E+02  0.45594000000E+02  0.51100000000E-03 0.  1.
         11   -1    0    0    0    0 -0.00000000000E+00 -0.00000000000E+00 -0.45593999997E+02  0.45594000000E+02  0.51100000000E-03 0. -1.
    9900012    2    1    2    0    0 -0.47447629291E+01 -0.12548959185E+02  0.13065085399E+02  0.72461398377E+02  0.69999776045E+02 0.  0.
         12    1    1    2    0    0  0.47447629291E+01  0.12548959185E+02 -0.13065085399E+02  0.18726601623E+02  0.00000000000E+00 0. -1.
         11    1    3    3    0    0  0.87441119643E+01 -0.16019685739E+02  0.61441935930E+01  0.19257230860E+02  0.51100000000E-03 0. -1.
        -11    1    3    3    0    0 -0.65609111634E+01 -0.18561326835E+02 -0.12251527795E+02  0.23187676527E+02  0.51100000000E-03 0.  1.
         12    1    3    3    0    0 -0.69279637300E+01  0.22032053389E+02  0.19172419600E+02  0.30016490990E+02  0.00000000000E+00 0. -1.
</event>
<event>
 7    1  0.2976321E-013  0.7246160E+02  0.7816164E-02  0.1226708E+00
        -11   -1    0    0    0    0  0.00000000000E+00  0.00000000000E+00  0.45593999997E+02  0.45594000000E+02  0.51100000000E-03 0. -1.
         11   -1    0    0    0    0 -0.00000000000E+00 -0.00000000000E+00 -0.45593999997E+02  0.45594000000E+02  0.51100000000E-03 0.  1.
    9900012    2    1    2    0    0 -0.16890131704E+01  0.15289933439E+01 -0.18587291001E+02  0.72461602245E+02  0.70000041622E+02 0.  0.
         12    1    1    2    0    0  0.16890131704E+01 -0.15289933439E+01  0.18587291001E+02  0.18726397755E+02  0.00000000000E+00 0. -1.
         11    1    3    3    0    0  0.58442884376E+01 -0.10532744341E+02 -0.95035368750E+01  0.15343129540E+02  0.51100000000E-03 0. -1.
        -11    1    3    3    0    0  0.35267166897E+01 -0.21114932127E+02 -0.28667444903E+01  0.21598525726E+02  0.51100000000E-03 0.  1.
        -12    1    3    3    0    0 -0.11060018298E+02  0.33176669812E+02 -0.62170096352E+01  0.35519946978E+02  0.00000000000E+00 0.  1.
</event>
<event>
 7    1  0.3217748E-013  0.7246157E+02  0.7816164E-02  0.1226708E+00
        -11   -1    0    0    0    0  0.00000000000E+00  0.00000000000E+00  0.45593999997E+02  0.45594000000E+02  0.51100000000E-03 0. -1.
         11   -1    0    0    0    0 -0.00000000000E+00 -0.00000000000E+00 -0.45593999997E+02  0.45594000000E+02  0.51100000000E-03 0.  1.
    9900012    2    1    2    0    0 -0.10298487995E+02  0.15426109475E+02 -0.25798277345E+01  0.72461568956E+02  0.69999998256E+02 0.  0.
         12    1    1    2    0    0  0.10298487995E+02 -0.15426109475E+02  0.25798277345E+01  0.18726431044E+02  0.00000000000E+00 0. -1.
         11    1    3    3    0    0  0.19937853112E+02 -0.86887071298E+01  0.61792629130E+01  0.22609619827E+02  0.51100000000E-03 0. -1.
        -11    1    3    3    0    0  0.87028335874E+00  0.99424292568E+01  0.70207688993E+01  0.12202478799E+02  0.51100000000E-03 0.  1.
        -12    1    3    3    0    0 -0.31106624465E+02  0.14172387348E+02 -0.15779859547E+02  0.37649470330E+02  0.00000000000E+00 0.  1.
</event>
<event>
 7    1  0.2976321E-013  0.7246157E+02  0.7816164E-02  0.1226708E+00
        -11   -1    0    0    0    0  0.00000000000E+00  0.00000000000E+00  0.45593999997E+02  0.45594000000E+02  0.51100000000E-03 0.  1.
         11   -1    0    0    0    0 -0.00000000000E+00 -0.00000000000E+00 -0.45593999997E+02  0.45594000000E+02  0.51100000000E-03 0. -1.
    9900012    2    1    2    0    0 -0.15095934050E+02  0.10965477582E+02 -0.15969884496E+01  0.72461566929E+02  0.69999995617E+02 0.  0.
         12    1    1    2    0    0  0.15095934050E+02 -0.10965477582E+02  0.15969884496E+01  0.18726433071E+02  0.00000000000E+00 0. -1.
         11    1    3    3    0    0 -0.40132595896E+01 -0.50388409291E+00 -0.43273519842E+00  0.40678509960E+01  0.51100000000E-03 0. -1.
        -11    1    3    3    0    0 -0.17677620151E+02 -0.11711600813E+02  0.25026020016E+02  0.32801852477E+02  0.51100000000E-03 0.  1.
         12    1    3    3    0    0  0.65949456912E+01  0.23180962488E+02 -0.26190273267E+02  0.35591863457E+02  0.00000000000E+00 0. -1.
</event>
<event>
 7    1  0.2976321E-013  0.7246157E+02  0.7816164E-02  0.1226708E+00
        -11   -1    0    0    0    0  0.00000000000E+00  0.00000000000E+00  0.45593999997E+02  0.45594000000E+02  0.51100000000E-03 0.  1.
         11   -1    0    0    0    0 -0.00000000000E+00 -0.00000000000E+00 -0.45593999997E+02  0.45594000000E+02  0.51100000000E-03 0. -1.
    9900012    2    1    2    0    0  0.17733615208E+02  0.58840725069E+01  0.12553037912E+01  0.72461569341E+02  0.69999998758E+02 0.  0.
         12    1    1    2    0    0 -0.17733615208E+02 -0.58840725069E+01 -0.12553037912E+01  0.18726430659E+02  0.00000000000E+00 0. -1.
         11    1    3    3    0    0 -0.13888990458E+01  0.30987911942E+02  0.48532656318E-01  0.31019059992E+02  0.51100000000E-03 0. -1.
        -11    1    3    3    0    0  0.10078318159E+02 -0.10851169439E+02  0.13909078559E+02  0.20317057900E+02  0.51100000000E-03 0.  1.
        -12    1    3    3    0    0  0.90441960952E+01 -0.14252669996E+02 -0.12702307424E+02  0.21125451449E+02  0.00000000000E+00 0.  1.
</event>
<event>
 7    1  0.2976321E-013  0.7246157E+02  0.7816164E-02  0.1226708E+00
        -11   -1    0    0    0    0  0.00000000000E+00  0.00000000000E+00  0.45593999997E+02  0.45594000000E+02  0.51100000000E-03 0.  1.
         11   -1    0    0    0    0 -0.00000000000E+00 -0.00000000000E+00 -0.45593999997E+02  0.45594000000E+02  0.51100000000E-03 0. -1.
    9900012    2    1    2    0    0  0.14570745890E+02  0.11742748989E+02 -0.69320100866E+00  0.72461566349E+02  0.69999994861E+02 0.  0.
         12    1    1    2    0    0 -0.14570745890E+02 -0.11742748989E+02  0.69320100866E+00  0.18726433651E+02  0.00000000000E+00 0. -1.
         11    1    3    3    0    0  0.75153384080E+01 -0.26543777626E+01 -0.15305230932E+01  0.81159431918E+01  0.51100000000E-03 0. -1.
        -11    1    3    3    0    0  0.29993751716E+02  0.24263175977E+02 -0.44101286987E+01  0.38830092530E+02  0.51100000000E-03 0.  1.
        -12    1    3    3    0    0 -0.22938344233E+02 -0.98660492250E+01  0.52474507832E+01  0.25515530627E+02  0.00000000000E+00 0.  1.
</event>
<event>
 7    1  0.2976321E-013  0.7246158E+02  0.7816164E-02  0.1226708E+00
        -11   -1    0    0    0    0  0.00000000000E+00  0.00000000000E+00  0.45593999997E+02  0.45594000000E+02  0.51100000000E-03 0.  1.
         11   -1    0    0    0    0 -0.00000000000E+00 -0.00000000000E+00 -0.45593999997E+02  0.45594000000E+02  0.51100000000E-03 0. -1.
    9900012    2    1    2    0    0  0.16637026279E+02 -0.85545139487E+01  0.84170932555E+00  0.72461579442E+02  0.70000011917E+02 0.  0.
         12    1    1    2    0    0 -0.16637026279E+02  0.85545139487E+01 -0.84170932555E+00  0.18726420558E+02  0.00000000000E+00 0. -1.
         11    1    3    3    0    0 -0.84826330369E+01 -0.92612886923E+01 -0.14461539024E+02  0.19153658729E+02  0.51100000000E-03 0. -1.
        -11    1    3    3    0    0 -0.12670645230E+02 -0.31825556307E+01  0.43773947984E+01  0.13778080286E+02  0.51100000000E-03 0.  1.
        -12    1    3    3    0    0  0.37790304546E+02  0.38893303744E+01  0.10925853551E+02  0.39529840428E+02  0.00000000000E+00 0.  1.
</event>
<event>
 7    1  0.2976321E-013  0.7246159E+02  0.7816164E-02  0.1226708E+00
        -11   -1    0    0    0    0  0.00000000000E+00  0.00000000000E+00  0.45593999997E+02  0.45594000000E+02  0.51100000000E-03 0.  1.
         11   -1    0    0    0    0 -0.00000000000E+00 -0.00000000000E+00 -0.45593999997E+02  0.45594000000E+02  0.51100000000E-03 0. -1.
    9900012    2    1    2    0    0  0.68305024935E+00 -0.17766200461E+02  0.58799713588E+01  0.72461588181E+02  0.70000023300E+02 0.  0.
         12    1    1    2    0    0 -0.68305024935E+00  0.17766200461E+02 -0.58799713588E+01  0.18726411819E+02  0.00000000000E+00 0. -1.
         11    1    3    3    0    0  0.13140909188E+02  0.61307520793E+01  0.93909463089E+01  0.17275980094E+02  0.51100000000E-03 0. -1.
        -11    1    3    3    0    0 -0.11122341932E+02 -0.21761059780E+02  0.19975911810E+02  0.31564018529E+02  0.51100000000E-03 0.  1.
         12    1    3    3    0    0 -0.13355170068E+01 -0.21358927604E+01 -0.23486886760E+02  0.23621589558E+02  0.00000000000E+00 0. -1.
</event>
<event>
 7    1  0.2976321E-013  0.7246171E+02  0.7816164E-02  0.1226708E+00
        -11   -1    0    0    0    0  0.00000000000E+00  0.00000000000E+00  0.45593999997E+02  0.45594000000E+02  0.51100000000E-03 0.  1.
         11   -1    0    0    0    0 -0.00000000000E+00 -0.00000000000E+00 -0.45593999997E+02  0.45594000000E+02  0.51100000000E-03 0. -1.
    9900012    2    1    2    0    0 -0.12789667473E+02 -0.43723484625E+01  0.12960746027E+02  0.72461709317E+02  0.70000181102E+02 0.  0.
         12    1    1    2    0    0  0.12789667473E+02  0.43723484625E+01 -0.12960746027E+02  0.18726290683E+02  0.00000000000E+00 0. -1.
         11    1    3    3    0    0  0.15192008812E+02 -0.14089369985E+02 -0.93343479078E+01  0.22725261923E+02  0.51100000000E-03 0. -1.
        -11    1    3    3    0    0 -0.57825736330E+01  0.10761907268E+02 -0.61188253714E+01  0.13663704843E+02  0.51100000000E-03 0.  1.
        -12    1    3    3    0    0 -0.22199102652E+02 -0.10448857448E+01  0.28413919307E+02  0.36072742551E+02  0.00000000000E+00 0.  1.
</event>
<event>
 7    1  0.2976321E-013  0.7246158E+02  0.7816164E-02  0.1226708E+00
        -11   -1    0    0    0    0  0.00000000000E+00  0.00000000000E+00  0.45593999997E+02  0.45594000000E+02  0.51100000000E-03 0. -1.
         11   -1    0    0    0    0 -0.00000000000E+00 -0.00000000000E+00 -0.45593999997E+02  0.45594000000E+02  0.51100000000E-03 0.  1.
    9900012    2    1    2    0    0 -0.15703881283E+02 -0.13367610466E+01 -0.10113347774E+02  0.72461584950E+02  0.70000019091E+02 0.  0.
         12    1    1    2    0    0  0.15703881283E+02  0.13367610466E+01  0.10113347774E+02  0.18726415050E+02  0.00000000000E+00 0. -1.
         11    1    3    3    0    0  0.36484094991E+01 -0.74917106697E+01  0.21561372066E+02  0.23115565887E+02  0.51100000000E-03 0. -1.
        -11    1    3    3    0    0  0.18764034346E+01 -0.26966125643E+01  0.50434116052E+01  0.60190206888E+01  0.51100000000E-03 0.  1.
        -12    1    3    3    0    0 -0.21228694217E+02  0.88515621874E+01 -0.36718131445E+02  0.43326998374E+02  0.00000000000E+00 0.  1.
</event>
<event>
 7    1  0.2976321E-013  0.7246158E+02  0.7816164E-02  0.1226708E+00
        -11   -1    0    0    0    0  0.00000000000E+00  0.00000000000E+00  0.45593999997E+02  0.45594000000E+02  0.51100000000E-03 0.  1.
         11   -1    0    0    0    0 -0.00000000000E+00 -0.00000000000E+00 -0.45593999997E+02  0.45594000000E+02  0.51100000000E-03 0. -1.
    9900012    2    1    2    0    0  0.28284515695E+01  0.79509093271E+01  0.16717111107E+02  0.72461577460E+02  0.70000009334E+02 0.  0.
         12    1    1    2    0    0 -0.28284515695E+01 -0.79509093271E+01 -0.16717111107E+02  0.18726422540E+02  0.00000000000E+00 0. -1.
         11    1    3    3    0    0 -0.15592258340E+02 -0.98895600026E+01 -0.87438502126E+01  0.20429802593E+02  0.51100000000E-03 0. -1.
        -11    1    3    3    0    0  0.31006476938E+01 -0.33366778924E+01  0.25490356597E+02  0.25894125110E+02  0.51100000000E-03 0.  1.
         12    1    3    3    0    0  0.15320062215E+02  0.21177147222E+02 -0.29395278044E-01  0.26137649757E+02  0.00000000000E+00 0. -1.
</event>
<event>
 7    1  0.2976321E-013  0.7246157E+02  0.7816164E-02  0.1226708E+00
        -11   -1    0    0    0    0  0.00000000000E+00  0.00000000000E+00  0.45593999997E+02  0.45594000000E+02  0.51100000000E-03 0.  1.
         11   -1    0    0    0    0 -0.00000000000E+00 -0.00000000000E+00 -0.45593999997E+02  0.45594000000E+02  0.51100000000E-03 0. -1.
    9900012    2    1    2    0    0 -0.15786320810E+02 -0.60306768081E+01  0.80685921484E+01  0.72461570369E+02  0.70000000097E+02 0.  0.
         12    1    1    2    0    0  0.15786320810E+02  0.60306768081E+01 -0.80685921484E+01  0.18726429631E+02  0.00000000000E+00 0. -1.
         11    1    3    3    0    0 -0.20175959255E+02 -0.35194107205E+02 -0.22026495477E+01  0.40626914467E+02  0.51100000000E-03 0. -1.
        -11    1    3    3    0    0  0.49372115745E+00  0.55472605445E+00 -0.62864189657E+00  0.97297095129E+00  0.51100000000E-03 0.  1.
        -12    1    3    3    0    0  0.38959172882E+01  0.28608704342E+02  0.10899883593E+02  0.30861684951E+02  0.00000000000E+00 0.  1.
</event>
<event>
 7    1  0.2976321E-013  0.7246154E+02  0.7816164E-02  0.1226708E+00
        -11   -1    0    0    0    0  0.00000000000E+00  0.00000000000E+00  0.45593999997E+02  0.45594000000E+02  0.51100000000E-03 0.  1.
         11   -1    0    0    0    0 -0.00000000000E+00 -0.00000000000E+00 -0.45593999997E+02  0.45594000000E+02  0.51100000000E-03 0. -1.
    9900012    2    1    2    0    0  0.34143873547E+01  0.76609553282E+01  0.16743120847E+02  0.72461538155E+02  0.69999958132E+02 0.  0.
         12    1    1    2    0    0 -0.34143873547E+01 -0.76609553282E+01 -0.16743120847E+02  0.18726461845E+02  0.00000000000E+00 0. -1.
         11    1    3    3    0    0 -0.64744268653E+01 -0.48684015002E+01 -0.85555270104E+01  0.11782044775E+02  0.51100000000E-03 0. -1.
        -11    1    3    3    0    0 -0.10488803305E+02  0.27736744140E+02  0.15182312674E+02  0.33314330080E+02  0.51100000000E-03 0.  1.
         12    1    3    3    0    0  0.20377617525E+02 -0.15207387312E+02  0.10116335183E+02  0.27365163299E+02  0.00000000000E+00 0. -1.
</event>
<event>
 7    1  0.2976321E-013  0.7246159E+02  0.7816164E-02  0.1226708E+00
        -11   -1    0    0    0    0  0.00000000000E+00  0.00000000000E+00  0.45593999997E+02  0.45594000000E+02  0.51100000000E-03 0.  1.
         11   -1    0    0    0    0 -0.00000000000E+00 -0.00000000000E+00 -0.45593999997E+02  0.45594000000E+02  0.51100000000E-03 0. -1.
    9900012    2    1    2    0    0  0.15288268017E+02 -0.95249548852E+01 -0.51207789729E+01  0.72461593996E+02  0.70000030876E+02 0.  0.
         12    1    1    2    0    0 -0.15288268017E+02  0.95249548852E+01  0.51207789729E+01  0.18726406004E+02  0.00000000000E+00 0. -1.
         11    1    3    3    0    0 -0.11654362904E+01 -0.27303105746E+01  0.54553395586E+01  0.62107622351E+01  0.51100000000E-03 0. -1.
        -11    1    3    3    0    0  0.39905540060E+02  0.26706165703E+01 -0.84005574135E+01  0.40867513816E+02  0.51100000000E-03 0.  1.
         12    1    3    3    0    0 -0.23451835753E+02 -0.94652608809E+01 -0.21755611180E+01  0.25383317945E+02  0.00000000000E+00 0. -1.
</event>
<event>
 7    1  0.2976321E-013  0.7246159E+02  0.7816164E-02  0.1226708E+00
        -11   -1    0    0    0    0  0.00000000000E+00  0.00000000000E+00  0.45593999997E+02  0.45594000000E+02  0.51100000000E-03 0.  1.
         11   -1    0    0    0    0 -0.00000000000E+00 -0.00000000000E+00 -0.45593999997E+02  0.45594000000E+02  0.51100000000E-03 0. -1.
    9900012    2    1    2    0    0 -0.10636814148E+02 -0.33671011593E+01  0.15039927347E+02  0.72461585499E+02  0.70000019807E+02 0.  0.
         12    1    1    2    0    0  0.10636814148E+02  0.33671011593E+01 -0.15039927347E+02  0.18726414501E+02  0.00000000000E+00 0. -1.
         11    1    3    3    0    0  0.10180297802E+02 -0.53303738259E+01 -0.98767522642E+01  0.15152609809E+02  0.51100000000E-03 0. -1.
        -11    1    3    3    0    0  0.53284473994E+01 -0.94920270375E+01  0.26572895478E+02  0.28716018236E+02  0.51100000000E-03 0.  1.
        -12    1    3    3    0    0 -0.26145559350E+02  0.11455299704E+02 -0.16562158670E+01  0.28592957455E+02  0.00000000000E+00 0.  1.
</event>
<event>
 7    1  0.2976321E-013  0.7246162E+02  0.7816164E-02  0.1226708E+00
        -11   -1    0    0    0    0  0.00000000000E+00  0.00000000000E+00  0.45593999997E+02  0.45594000000E+02  0.51100000000E-03 0. -1.
         11   -1    0    0    0    0 -0.00000000000E+00 -0.00000000000E+00 -0.45593999997E+02  0.45594000000E+02  0.51100000000E-03 0.  1.
    9900012    2    1    2    0    0  0.12054630876E+02  0.48810611652E+01 -0.13473615603E+02  0.72461622852E+02  0.70000068466E+02 0.  0.
         12    1    1    2    0    0 -0.12054630876E+02 -0.48810611652E+01  0.13473615603E+02  0.18726377148E+02  0.00000000000E+00 0. -1.
         11    1    3    3    0    0 -0.44120047100E+01  0.97190853320E+01 -0.16586794298E+02  0.19724303552E+02  0.51100000000E-03 0.  1.
        -11    1    3    3    0    0  0.17898289217E+02 -0.97713876057E+01  0.23846859310E+02  0.31376766433E+02  0.51100000000E-03 0. -1.
         12    1    3    3    0    0 -0.14316536301E+01  0.49333634390E+01 -0.20733680615E+02  0.21360552867E+02  0.00000000000E+00 0. -1.
</event>
<event>
 7    1  0.2976321E-013  0.7246154E+02  0.7816164E-02  0.1226708E+00
        -11   -1    0    0    0    0  0.00000000000E+00  0.00000000000E+00  0.45593999997E+02  0.45594000000E+02  0.51100000000E-03 0.  1.
         11   -1    0    0    0    0 -0.00000000000E+00 -0.00000000000E+00 -0.45593999997E+02  0.45594000000E+02  0.51100000000E-03 0. -1.
    9900012    2    1    2    0    0 -0.18614875674E+01 -0.12895154660E+02  0.13451034519E+02  0.72461535323E+02  0.69999954444E+02 0.  0.
         12    1    1    2    0    0  0.18614875674E+01  0.12895154660E+02 -0.13451034519E+02  0.18726464677E+02  0.00000000000E+00 0. -1.
         11    1    3    3    0    0  0.13067375509E+02  0.19475366062E+01 -0.12560110824E+02  0.18229250827E+02  0.51100000000E-03 0. -1.
        -11    1    3    3    0    0  0.94374182504E+01 -0.13979994138E+02 -0.21264490261E+01  0.17000790718E+02  0.51100000000E-03 0.  1.
        -12    1    3    3    0    0 -0.24366281327E+02 -0.86269712852E+00  0.28137594369E+02  0.37231493778E+02  0.00000000000E+00 0.  1.
</event>
<event>
 7    1  0.2976321E-013  0.7246160E+02  0.7816164E-02  0.1226708E+00
        -11   -1    0    0    0    0  0.00000000000E+00  0.00000000000E+00  0.45593999997E+02  0.45594000000E+02  0.51100000000E-03 0.  1.
         11   -1    0    0    0    0 -0.00000000000E+00 -0.00000000000E+00 -0.45593999997E+02  0.45594000000E+02  0.51100000000E-03 0. -1.
    9900012    2    1    2    0    0  0.10873191665E+02 -0.13335406335E+02  0.73904418715E+01  0.72461601784E+02  0.70000041021E+02 0.  0.
         12    1    1    2    0    0 -0.10873191665E+02  0.13335406335E+02 -0.73904418715E+01  0.18726398216E+02  0.00000000000E+00 0. -1.
         11    1    3    3    0    0  0.10635624454E+01  0.55989772066E+01  0.54181196909E+01  0.78635699324E+01  0.51100000000E-03 0. -1.
        -11    1    3    3    0    0  0.22960958813E+02  0.13467859510E+02  0.10480852033E+02  0.28608340200E+02  0.51100000000E-03 0.  1.
         12    1    3    3    0    0 -0.13151329594E+02 -0.32402243052E+02 -0.85085298521E+01  0.35989691651E+02  0.00000000000E+00 0. -1.
</event>
<event>
 7    1  0.2976321E-013  0.7246157E+02  0.7816164E-02  0.1226708E+00
        -11   -1    0    0    0    0  0.00000000000E+00  0.00000000000E+00  0.45593999997E+02  0.45594000000E+02  0.51100000000E-03 0.  1.
         11   -1    0    0    0    0 -0.00000000000E+00 -0.00000000000E+00 -0.45593999997E+02  0.45594000000E+02  0.51100000000E-03 0. -1.
    9900012    2    1    2    0    0 -0.15848468350E+02  0.93415391737E+01 -0.34986829324E+01  0.72461572539E+02  0.70000002924E+02 0.  0.
         12    1    1    2    0    0  0.15848468350E+02 -0.93415391737E+01  0.34986829324E+01  0.18726427461E+02  0.00000000000E+00 0. -1.
         11    1    3    3    0    0 -0.12770559151E+02  0.20306466594E+02 -0.21781430189E+02  0.32401704706E+02  0.51100000000E-03 0. -1.
        -11    1    3    3    0    0  0.91676648599E+01 -0.10606758123E+02 -0.40454743144E+01  0.14591616071E+02  0.51100000000E-03 0.  1.
        -12    1    3    3    0    0 -0.12245574059E+02 -0.35816929686E+00  0.22328221571E+02  0.25468251762E+02  0.00000000000E+00 0.  1.
</event>
<event>
 7    1  0.2976321E-013  0.7246158E+02  0.7816164E-02  0.1226708E+00
        -11   -1    0    0    0    0  0.00000000000E+00  0.00000000000E+00  0.45593999997E+02  0.45594000000E+02  0.51100000000E-03 0. -1.
         11   -1    0    0    0    0 -0.00000000000E+00 -0.00000000000E+00 -0.45593999997E+02  0.45594000000E+02  0.51100000000E-03 0.  1.
    9900012    2    1    2    0    0  0.65563555423E+01 -0.17378985929E+02 -0.23798942964E+01  0.72461578912E+02  0.70000011226E+02 0.  0.
         12    1    1    2    0    0 -0.65563555423E+01  0.17378985929E+02  0.23798942964E+01  0.18726421088E+02  0.00000000000E+00 0. -1.
         11    1    3    3    0    0 -0.12607850778E+02 -0.94464719753E+01 -0.13962197308E+02  0.21050812050E+02  0.51100000000E-03 0. -1.
        -11    1    3    3    0    0  0.13855609479E+02 -0.11871020206E+02 -0.15248035709E+02  0.23778175456E+02  0.51100000000E-03 0.  1.
         12    1    3    3    0    0  0.53085968418E+01  0.39385062529E+01  0.26830338721E+02  0.27632591406E+02  0.00000000000E+00 0. -1.
</event>
<event>
 7    1  0.2976321E-013  0.7246156E+02  0.7816164E-02  0.1226708E+00
        -11   -1    0    0    0    0  0.00000000000E+00  0.00000000000E+00  0.45593999997E+02  0.45594000000E+02  0.51100000000E-03 0. -1.
         11   -1    0    0    0    0 -0.00000000000E+00 -0.00000000000E+00 -0.45593999997E+02  0.45594000000E+02  0.51100000000E-03 0.  1.
    9900012    2    1    2    0    0  0.40539107432E+01 -0.12246741851E+02  0.13574337706E+02  0.72461560871E+02  0.69999987725E+02 0.  0.
         12    1    1    2    0    0 -0.40539107432E+01  0.12246741851E+02 -0.13574337706E+02  0.18726439129E+02  0.00000000000E+00 0. -1.
         11    1    3    3    0    0  0.12161869017E+02  0.13457620046E+02  0.21804030356E+02  0.28362551636E+02  0.51100000000E-03 0. -1.
        -11    1    3    3    0    0 -0.43921090380E+01 -0.34132061560E+01  0.12343077847E+02  0.13538543831E+02  0.51100000000E-03 0.  1.
        -12    1    3    3    0    0 -0.37158492356E+01 -0.22291155741E+02 -0.20572770497E+02  0.30560465404E+02  0.00000000000E+00 0.  1.
</event>
<event>
 7    1  0.2976321E-013  0.7246156E+02  0.7816164E-02  0.1226708E+00
        -11   -1    0    0    0    0  0.00000000000E+00  0.00000000000E+00  0.45593999997E+02  0.45594000000E+02  0.51100000000E-03 0. -1.
         11   -1    0    0    0    0 -0.00000000000E+00 -0.00000000000E+00 -0.45593999997E+02  0.45594000000E+02  0.51100000000E-03 0.  1.
    9900012    2    1    2    0    0  0.15814144890E+02 -0.50761291995E+01 -0.86501547730E+01  0.72461562970E+02  0.69999990458E+02 0.  0.
         12    1    1    2    0    0 -0.15814144890E+02  0.50761291995E+01  0.86501547730E+01  0.18726437030E+02  0.00000000000E+00 0. -1.
         11    1    3    3    0    0 -0.61043925969E+01 -0.54152767573E+01  0.51676762208E+01  0.96588668652E+01  0.51100000000E-03 0. -1.
        -11    1    3    3    0    0 -0.21109047578E+01  0.24871413886E+02  0.19067348282E+01  0.25033553195E+02  0.51100000000E-03 0.  1.
         12    1    3    3    0    0  0.24029442245E+02 -0.24532266329E+02 -0.15724565822E+02  0.37769142909E+02  0.00000000000E+00 0. -1.
</event>
<event>
 7    1  0.2976321E-013  0.7246152E+02  0.7816164E-02  0.1226708E+00
        -11   -1    0    0    0    0  0.00000000000E+00  0.00000000000E+00  0.45593999997E+02  0.45594000000E+02  0.51100000000E-03 0.  1.
         11   -1    0    0    0    0 -0.00000000000E+00 -0.00000000000E+00 -0.45593999997E+02  0.45594000000E+02  0.51100000000E-03 0. -1.
    9900012    2    1    2    0    0  0.17619831047E+02 -0.28985514425E+01 -0.56410046697E+01  0.72461521947E+02  0.69999937019E+02 0.  0.
         12    1    1    2    0    0 -0.17619831047E+02  0.28985514425E+01  0.56410046697E+01  0.18726478053E+02  0.00000000000E+00 0. -1.
         11    1    3    3    0    0  0.21696111325E+01 -0.46535372090E+01  0.16219874230E+01  0.53845579655E+01  0.51100000000E-03 0. -1.
        -11    1    3    3    0    0  0.13811889322E+02  0.19383821041E+02  0.22301326517E+02  0.32616713039E+02  0.51100000000E-03 0.  1.
         12    1    3    3    0    0  0.16383305918E+01 -0.17628835274E+02 -0.29564318609E+02  0.34460250943E+02  0.00000000000E+00 0. -1.
</event>
<event>
 7    1  0.2976321E-013  0.7246158E+02  0.7816164E-02  0.1226708E+00
        -11   -1    0    0    0    0  0.00000000000E+00  0.00000000000E+00  0.45593999997E+02  0.45594000000E+02  0.51100000000E-03 0.  1.
         11   -1    0    0    0    0 -0.00000000000E+00 -0.00000000000E+00 -0.45593999997E+02  0.45594000000E+02  0.51100000000E-03 0. -1.
    9900012    2    1    2    0    0 -0.13753601267E+02  0.65029590055E+01  0.10919185320E+02  0.72461584655E+02  0.70000018707E+02 0.  0.
         12    1    1    2    0    0  0.13753601267E+02 -0.65029590055E+01 -0.10919185320E+02  0.18726415345E+02  0.00000000000E+00 0. -1.
         11    1    3    3    0    0 -0.30503500291E+02 -0.55418165712E+01  0.96126597093E+01  0.32458873792E+02  0.51100000000E-03 0. -1.
        -11    1    3    3    0    0 -0.64952912123E+01  0.14959093974E+02 -0.16415076643E+01  0.16390785464E+02  0.51100000000E-03 0.  1.
        -12    1    3    3    0    0  0.23245190236E+02 -0.29143183970E+01  0.29480332752E+01  0.23611925399E+02  0.00000000000E+00 0.  1.
</event>
<event>
 7    1  0.2976321E-013  0.7246160E+02  0.7816164E-02  0.1226708E+00
        -11   -1    0    0    0    0  0.00000000000E+00  0.00000000000E+00  0.45593999997E+02  0.45594000000E+02  0.51100000000E-03 0.  1.
         11   -1    0    0    0    0 -0.00000000000E+00 -0.00000000000E+00 -0.45593999997E+02  0.45594000000E+02  0.51100000000E-03 0. -1.
    9900012    2    1    2    0    0 -0.28624821136E+01  0.82030284177E+01  0.16588987878E+02  0.72461601577E+02  0.70000040752E+02 0.  0.
         12    1    1    2    0    0  0.28624821136E+01 -0.82030284177E+01 -0.16588987878E+02  0.18726398423E+02  0.00000000000E+00 0. -1.
         11    1    3    3    0    0 -0.61256613874E+01 -0.44904541531E+01 -0.63349269966E+01  0.98903592578E+01  0.51100000000E-03 0. -1.
        -11    1    3    3    0    0  0.34838652595E+01 -0.17235735278E+02 -0.81904341570E+01  0.19398224137E+02  0.51100000000E-03 0.  1.
        -12    1    3    3    0    0 -0.22068598581E+00  0.29929217849E+02  0.31114349032E+02  0.43173018183E+02  0.00000000000E+00 0.  1.
</event>
<event>
 7    1  0.2976321E-013  0.7246167E+02  0.7816164E-02  0.1226708E+00
        -11   -1    0    0    0    0  0.00000000000E+00  0.00000000000E+00  0.45593999997E+02  0.45594000000E+02  0.51100000000E-03 0.  1.
         11   -1    0    0    0    0 -0.00000000000E+00 -0.00000000000E+00 -0.45593999997E+02  0.45594000000E+02  0.51100000000E-03 0. -1.
    9900012    2    1    2    0    0  0.11188115833E+02  0.14654786258E+01  0.14945027914E+02  0.72461670332E+02  0.70000130317E+02 0.  0.
         12    1    1    2    0    0 -0.11188115833E+02 -0.14654786258E+01 -0.14945027914E+02  0.18726329668E+02  0.00000000000E+00 0. -1.
         11    1    3    3    0    0 -0.37725853122E+01  0.33504475378E+02  0.55442518818E+01  0.34169006416E+02  0.51100000000E-03 0. -1.
        -11    1    3    3    0    0 -0.10930848713E+01 -0.56884507670E+01  0.38135722629E+01  0.69351741384E+01  0.51100000000E-03 0.  1.
        -12    1    3    3    0    0  0.16053786016E+02 -0.26350545985E+02  0.55872037695E+01  0.31357489777E+02  0.00000000000E+00 0.  1.
</event>
<event>
 7    1  0.2976321E-013  0.7246160E+02  0.7816164E-02  0.1226708E+00
        -11   -1    0    0    0    0  0.00000000000E+00  0.00000000000E+00  0.45593999997E+02  0.45594000000E+02  0.51100000000E-03 0.  1.
         11   -1    0    0    0    0 -0.00000000000E+00 -0.00000000000E+00 -0.45593999997E+02  0.45594000000E+02  0.51100000000E-03 0. -1.
    9900012    2    1    2    0    0  0.60216563470E+01 -0.43910041419E+01  0.17179548982E+02  0.72461597095E+02  0.70000034913E+02 0.  0.
         12    1    1    2    0    0 -0.60216563470E+01  0.43910041419E+01 -0.17179548982E+02  0.18726402905E+02  0.00000000000E+00 0. -1.
         11    1    3    3    0    0  0.17014788253E+02 -0.26912922800E+02 -0.58661908430E+00  0.31845761965E+02  0.51100000000E-03 0. -1.
        -11    1    3    3    0    0 -0.51893737263E+01  0.73073849455E+00 -0.59235110471E+01  0.79089545330E+01  0.51100000000E-03 0.  1.
        -12    1    3    3    0    0 -0.58037581794E+01  0.21791180163E+02  0.23689679113E+02  0.32706880597E+02  0.00000000000E+00 0.  1.
</event>
<event>
 7    1  0.2976321E-013  0.7246160E+02  0.7816164E-02  0.1226708E+00
        -11   -1    0    0    0    0  0.00000000000E+00  0.00000000000E+00  0.45593999997E+02  0.45594000000E+02  0.51100000000E-03 0. -1.
         11   -1    0    0    0    0 -0.00000000000E+00 -0.00000000000E+00 -0.45593999997E+02  0.45594000000E+02  0.51100000000E-03 0.  1.
    9900012    2    1    2    0    0 -0.33764348975E+01  0.73320258334E+01 -0.16897314345E+02  0.72461597582E+02  0.70000035547E+02 0.  0.
         12    1    1    2    0    0  0.33764348975E+01 -0.73320258334E+01  0.16897314345E+02  0.18726402418E+02  0.00000000000E+00 0. -1.
         11    1    3    3    0    0  0.71304252250E+01  0.56861687066E+01  0.31365705179E+01  0.96443534425E+01  0.51100000000E-03 0. -1.
        -11    1    3    3    0    0 -0.40828858214E+01  0.27615227734E+02  0.22416037217E+01  0.28005277127E+02  0.51100000000E-03 0.  1.
         12    1    3    3    0    0 -0.64239743012E+01 -0.25969370608E+02 -0.22275488585E+02  0.34811967012E+02  0.00000000000E+00 0. -1.
</event>
<event>
 7    1  0.2976321E-013  0.7246154E+02  0.7816164E-02  0.1226708E+00
        -11   -1    0    0    0    0  0.00000000000E+00  0.00000000000E+00  0.45593999997E+02  0.45594000000E+02  0.51100000000E-03 0. -1.
         11   -1    0    0    0    0 -0.00000000000E+00 -0.00000000000E+00 -0.45593999997E+02  0.45594000000E+02  0.51100000000E-03 0.  1.
    9900012    2    1    2    0    0 -0.81072819788E+01  0.56575429522E+01 -0.15904232687E+02  0.72461536621E+02  0.69999956134E+02 0.  0.
         12    1    1    2    0    0  0.81072819788E+01 -0.56575429522E+01  0.15904232687E+02  0.18726463379E+02  0.00000000000E+00 0. -1.
         11    1    3    3    0    0  0.30915188495E+01 -0.98399994267E-01  0.85038487252E-01  0.30942532477E+01  0.51100000000E-03 0. -1.
        -11    1    3    3    0    0  0.11681721780E+02 -0.11589050913E+02 -0.32369282961E+02  0.36311695147E+02  0.51100000000E-03 0.  1.
         12    1    3    3    0    0 -0.22880522608E+02  0.17344993859E+02  0.16380011787E+02  0.33055588226E+02  0.00000000000E+00 0. -1.
</event>
<event>
 7    1  0.2976321E-013  0.7246161E+02  0.7816164E-02  0.1226708E+00
        -11   -1    0    0    0    0  0.00000000000E+00  0.00000000000E+00  0.45593999997E+02  0.45594000000E+02  0.51100000000E-03 0.  1.
         11   -1    0    0    0    0 -0.00000000000E+00 -0.00000000000E+00 -0.45593999997E+02  0.45594000000E+02  0.51100000000E-03 0. -1.
    9900012    2    1    2    0    0  0.14115115212E+02  0.90449243730E+01  0.83444882296E+01  0.72461611716E+02  0.70000053959E+02 0.  0.
         12    1    1    2    0    0 -0.14115115212E+02 -0.90449243730E+01 -0.83444882296E+01  0.18726388284E+02  0.00000000000E+00 0. -1.
         11    1    3    3    0    0  0.22105063877E+01 -0.23967136726E+02 -0.10240666959E+01  0.24090634989E+02  0.51100000000E-03 0. -1.
        -11    1    3    3    0    0 -0.52172481245E+01 -0.19965656610E+01 -0.43240226924E+01  0.70642143892E+01  0.51100000000E-03 0.  1.
        -12    1    3    3    0    0  0.17121856949E+02  0.35008626760E+02  0.13692577618E+02  0.41306762337E+02  0.00000000000E+00 0.  1.
</event>
<event>
 7    1  0.2976321E-013  0.7246173E+02  0.7816164E-02  0.1226708E+00
        -11   -1    0    0    0    0  0.00000000000E+00  0.00000000000E+00  0.45593999997E+02  0.45594000000E+02  0.51100000000E-03 0.  1.
         11   -1    0    0    0    0 -0.00000000000E+00 -0.00000000000E+00 -0.45593999997E+02  0.45594000000E+02  0.51100000000E-03 0. -1.
    9900012    2    1    2    0    0  0.15258174300E+02  0.10762507812E+02  0.14246518508E+01  0.72461732613E+02  0.70000211450E+02 0.  0.
         12    1    1    2    0    0 -0.15258174300E+02 -0.10762507812E+02 -0.14246518508E+01  0.18726267387E+02  0.00000000000E+00 0. -1.
         11    1    3    3    0    0  0.23405780569E+02  0.22418886138E+01 -0.26212091849E+02  0.35212645285E+02  0.51100000000E-03 0. -1.
        -11    1    3    3    0    0  0.37195130682E+01 -0.47953468109E+01  0.12339947566E+02  0.13751524814E+02  0.51100000000E-03 0.  1.
        -12    1    3    3    0    0 -0.11867119338E+02  0.13315966009E+02  0.15296796134E+02  0.23497562514E+02  0.00000000000E+00 0.  1.
</event>
<event>
 7    1  0.2976321E-013  0.7246094E+02  0.7816164E-02  0.1226710E+00
        -11   -1    0    0    0    0  0.00000000000E+00  0.00000000000E+00  0.45593999997E+02  0.45594000000E+02  0.51100000000E-03 0. -1.
         11   -1    0    0    0    0 -0.00000000000E+00 -0.00000000000E+00 -0.45593999997E+02  0.45594000000E+02  0.51100000000E-03 0.  1.
    9900012    2    1    2    0    0 -0.12846244642E+02 -0.89371612255E+01 -0.10286100344E+02  0.72460941703E+02  0.69999181139E+02 0.  0.
         12    1    1    2    0    0  0.12846244642E+02  0.89371612255E+01  0.10286100344E+02  0.18727058297E+02  0.00000000000E+00 0. -1.
         11    1    3    3    0    0 -0.14015048598E+02  0.24749672721E+02 -0.12235849828E+02  0.30962621147E+02  0.51100000000E-03 0. -1.
        -11    1    3    3    0    0 -0.31586357498E+01 -0.90794809429E+01 -0.99403775339E+01  0.13828414941E+02  0.51100000000E-03 0.  1.
        -12    1    3    3    0    0  0.43274397058E+01 -0.24607353004E+02  0.11890127018E+02  0.27669905616E+02  0.00000000000E+00 0.  1.
</event>
<event>
 7    1  0.2976321E-013  0.7246152E+02  0.7816164E-02  0.1226708E+00
        -11   -1    0    0    0    0  0.00000000000E+00  0.00000000000E+00  0.45593999997E+02  0.45594000000E+02  0.51100000000E-03 0. -1.
         11   -1    0    0    0    0 -0.00000000000E+00 -0.00000000000E+00 -0.45593999997E+02  0.45594000000E+02  0.51100000000E-03 0.  1.
    9900012    2    1    2    0    0  0.16405462065E+01  0.23928169844E+01 -0.18500379579E+02  0.72461521165E+02  0.69999936000E+02 0.  0.
         12    1    1    2    0    0 -0.16405462065E+01 -0.23928169844E+01  0.18500379579E+02  0.18726478835E+02  0.00000000000E+00 0. -1.
         11    1    3    3    0    0 -0.25009055924E+01 -0.32775619065E+01 -0.62361626197E+01  0.74757384460E+01  0.51100000000E-03 0. -1.
        -11    1    3    3    0    0 -0.14651499823E+02 -0.23823027176E+02 -0.12889267278E+00  0.27968190583E+02  0.51100000000E-03 0.  1.
         12    1    3    3    0    0  0.18792951622E+02  0.29493406067E+02 -0.12135324287E+02  0.37017592137E+02  0.00000000000E+00 0. -1.
</event>
<event>
 7    1  0.2976321E-013  0.7246158E+02  0.7816164E-02  0.1226708E+00
        -11   -1    0    0    0    0  0.00000000000E+00  0.00000000000E+00  0.45593999997E+02  0.45594000000E+02  0.51100000000E-03 0.  1.
         11   -1    0    0    0    0 -0.00000000000E+00 -0.00000000000E+00 -0.45593999997E+02  0.45594000000E+02  0.51100000000E-03 0. -1.
    9900012    2    1    2    0    0  0.46015985912E+01 -0.16409368226E+02 -0.77612261449E+01  0.72461582658E+02  0.70000016107E+02 0.  0.
         12    1    1    2    0    0 -0.46015985912E+01  0.16409368226E+02  0.77612261449E+01  0.18726417342E+02  0.00000000000E+00 0. -1.
         11    1    3    3    0    0  0.18837467012E+02 -0.17695368147E+02  0.32018259453E+01  0.26042809121E+02  0.51100000000E-03 0. -1.
        -11    1    3    3    0    0  0.46080027398E+01  0.68470373328E+01  0.13020028347E+02  0.15415471057E+02  0.51100000000E-03 0.  1.
         12    1    3    3    0    0 -0.18843871160E+02 -0.55610374121E+01 -0.23983080438E+02  0.31003302480E+02  0.00000000000E+00 0. -1.
</event>
<event>
 7    1  0.2976321E-013  0.7246146E+02  0.7816164E-02  0.1226708E+00
        -11   -1    0    0    0    0  0.00000000000E+00  0.00000000000E+00  0.45593999997E+02  0.45594000000E+02  0.51100000000E-03 0.  1.
         11   -1    0    0    0    0 -0.00000000000E+00 -0.00000000000E+00 -0.45593999997E+02  0.45594000000E+02  0.51100000000E-03 0. -1.
    9900012    2    1    2    0    0  0.11394390189E+02  0.14738198788E+02  0.19069819164E+01  0.72461462378E+02  0.69999859418E+02 0.  0.
         12    1    1    2    0    0 -0.11394390189E+02 -0.14738198788E+02 -0.19069819164E+01  0.18726537622E+02  0.00000000000E+00 0. -1.
         11    1    3    3    0    0 -0.15601727695E+02  0.48804886017E+00 -0.12077260106E+02  0.19736066242E+02  0.51100000000E-03 0. -1.
        -11    1    3    3    0    0  0.33662574471E+00 -0.97942908655E+01 -0.61442698008E+01  0.11566914113E+02  0.51100000000E-03 0.  1.
        -12    1    3    3    0    0  0.26659492140E+02  0.24044440793E+02  0.20128511823E+02  0.41158482023E+02  0.00000000000E+00 0.  1.
</event>
<event>
 7    1  0.2976321E-013  0.7246153E+02  0.7816164E-02  0.1226708E+00
        -11   -1    0    0    0    0  0.00000000000E+00  0.00000000000E+00  0.45593999997E+02  0.45594000000E+02  0.51100000000E-03 0.  1.
         11   -1    0    0    0    0 -0.00000000000E+00 -0.00000000000E+00 -0.45593999997E+02  0.45594000000E+02  0.51100000000E-03 0. -1.
    9900012    2    1    2    0    0  0.71939488270E+01 -0.34541815108E+01  0.16940971708E+02  0.72461526972E+02  0.69999943565E+02 0.  0.
         12    1    1    2    0    0 -0.71939488270E+01  0.34541815108E+01 -0.16940971708E+02  0.18726473028E+02  0.00000000000E+00 0. -1.
         11    1    3    3    0    0  0.25342703156E+02 -0.19468516425E+01  0.18575737464E+02  0.31481754353E+02  0.51100000000E-03 0. -1.
        -11    1    3    3    0    0  0.92696965147E+01  0.30257220488E+00 -0.85830655532E+01  0.12636765328E+02  0.51100000000E-03 0.  1.
        -12    1    3    3    0    0 -0.27418450844E+02 -0.18099020731E+01  0.69482997975E+01  0.28343007290E+02  0.00000000000E+00 0.  1.
</event>
<event>
 7    1  0.2976321E-013  0.7246156E+02  0.7816164E-02  0.1226708E+00
        -11   -1    0    0    0    0  0.00000000000E+00  0.00000000000E+00  0.45593999997E+02  0.45594000000E+02  0.51100000000E-03 0. -1.
         11   -1    0    0    0    0 -0.00000000000E+00 -0.00000000000E+00 -0.45593999997E+02  0.45594000000E+02  0.51100000000E-03 0.  1.
    9900012    2    1    2    0    0 -0.36739172946E+01 -0.13711788866E+02 -0.12213459929E+02  0.72461563457E+02  0.69999991093E+02 0.  0.
         12    1    1    2    0    0  0.36739172946E+01  0.13711788866E+02  0.12213459929E+02  0.18726436543E+02  0.00000000000E+00 0. -1.
         11    1    3    3    0    0 -0.40207861280E+01 -0.26544224167E+02  0.11932587896E+02  0.29379401149E+02  0.51100000000E-03 0. -1.
        -11    1    3    3    0    0  0.10506418779E+02  0.11839277986E+02  0.10833362273E+01  0.15865905471E+02  0.51100000000E-03 0.  1.
         12    1    3    3    0    0 -0.10159549946E+02  0.99315731525E+00 -0.25229384052E+02  0.27216256836E+02  0.00000000000E+00 0. -1.
</event>
<event>
 7    1  0.2976321E-013  0.7246161E+02  0.7816164E-02  0.1226708E+00
        -11   -1    0    0    0    0  0.00000000000E+00  0.00000000000E+00  0.45593999997E+02  0.45594000000E+02  0.51100000000E-03 0.  1.
         11   -1    0    0    0    0 -0.00000000000E+00 -0.00000000000E+00 -0.45593999997E+02  0.45594000000E+02  0.51100000000E-03 0. -1.
    9900012    2    1    2    0    0 -0.70543171288E+01  0.11410503632E+02  0.13065789770E+02  0.72461605643E+02  0.70000046048E+02 0.  0.
         12    1    1    2    0    0  0.70543171288E+01 -0.11410503632E+02 -0.13065789770E+02  0.18726394357E+02  0.00000000000E+00 0. -1.
         11    1    3    3    0    0  0.10858297965E+02  0.11574164721E+02 -0.35725304777E+01  0.16267356821E+02  0.51100000000E-03 0. -1.
        -11    1    3    3    0    0  0.11080932110E+02  0.99163962537E+01 -0.79524686027E+01  0.16863087743E+02  0.51100000000E-03 0.  1.
        -12    1    3    3    0    0 -0.28993547204E+02 -0.10080057342E+02  0.24590788851E+02  0.39331161079E+02  0.00000000000E+00 0.  1.
</event>
<event>
 7    1  0.2976321E-013  0.7246156E+02  0.7816164E-02  0.1226708E+00
        -11   -1    0    0    0    0  0.00000000000E+00  0.00000000000E+00  0.45593999997E+02  0.45594000000E+02  0.51100000000E-03 0. -1.
         11   -1    0    0    0    0 -0.00000000000E+00 -0.00000000000E+00 -0.45593999997E+02  0.45594000000E+02  0.51100000000E-03 0.  1.
    9900012    2    1    2    0    0  0.10542326542E+02  0.10712524555E+02 -0.11170527182E+02  0.72461561236E+02  0.69999988199E+02 0.  0.
         12    1    1    2    0    0 -0.10542326542E+02 -0.10712524555E+02  0.11170527182E+02  0.18726438764E+02  0.00000000000E+00 0. -1.
         11    1    3    3    0    0 -0.11503147587E+02  0.13358189430E+02 -0.37755548300E+01  0.18028267909E+02  0.51100000000E-03 0. -1.
        -11    1    3    3    0    0 -0.10512663096E+02 -0.75858529405E+01 -0.15808868884E+02  0.20444597963E+02  0.51100000000E-03 0.  1.
         12    1    3    3    0    0  0.32558137226E+02  0.49401880654E+01  0.84138965311E+01  0.33988695364E+02  0.00000000000E+00 0. -1.
</event>
<event>
 7    1  0.2976321E-013  0.7246166E+02  0.7816164E-02  0.1226708E+00
        -11   -1    0    0    0    0  0.00000000000E+00  0.00000000000E+00  0.45593999997E+02  0.45594000000E+02  0.51100000000E-03 0. -1.
         11   -1    0    0    0    0 -0.00000000000E+00 -0.00000000000E+00 -0.45593999997E+02  0.45594000000E+02  0.51100000000E-03 0.  1.
    9900012    2    1    2    0    0 -0.47597055599E+01  0.58860539596E+01 -0.17128202826E+02  0.72461661323E+02  0.70000118581E+02 0.  0.
         12    1    1    2    0    0  0.47597055599E+01 -0.58860539596E+01  0.17128202826E+02  0.18726338677E+02  0.00000000000E+00 0. -1.
         11    1    3    3    0    0 -0.23135095194E+02  0.30037015712E+00  0.56006617068E+01  0.23805257060E+02  0.51100000000E-03 0. -1.
        -11    1    3    3    0    0  0.48219925359E+01 -0.16277313125E+02 -0.61637797737E+01  0.18060861440E+02  0.51100000000E-03 0.  1.
        -12    1    3    3    0    0  0.13553397098E+02  0.21862996928E+02 -0.16565084759E+02  0.30595542823E+02  0.00000000000E+00 0.  1.
</event>
<event>
 7    1  0.2976321E-013  0.7246152E+02  0.7816164E-02  0.1226708E+00
        -11   -1    0    0    0    0  0.00000000000E+00  0.00000000000E+00  0.45593999997E+02  0.45594000000E+02  0.51100000000E-03 0. -1.
         11   -1    0    0    0    0 -0.00000000000E+00 -0.00000000000E+00 -0.45593999997E+02  0.45594000000E+02  0.51100000000E-03 0.  1.
    9900012    2    1    2    0    0 -0.11309100831E+02 -0.14141040301E+02 -0.47766560340E+01  0.72461515406E+02  0.69999928498E+02 0.  0.
         12    1    1    2    0    0  0.11309100831E+02  0.14141040301E+02  0.47766560340E+01  0.18726484594E+02  0.00000000000E+00 0. -1.
         11    1    3    3    0    0 -0.19039692842E+01 -0.20366146714E+02  0.19052690274E+02  0.27953712418E+02  0.51100000000E-03 0. -1.
        -11    1    3    3    0    0 -0.75941048092E+01 -0.14547113185E+02 -0.13442287181E+02  0.21212826658E+02  0.51100000000E-03 0.  1.
        -12    1    3    3    0    0 -0.18110267373E+01  0.20772219599E+02 -0.10387059127E+02  0.23294976330E+02  0.00000000000E+00 0.  1.
</event>
<event>
 7    1  0.2976321E-013  0.7246095E+02  0.7816164E-02  0.1226710E+00
        -11   -1    0    0    0    0  0.00000000000E+00  0.00000000000E+00  0.45593999997E+02  0.45594000000E+02  0.51100000000E-03 0.  1.
         11   -1    0    0    0    0 -0.00000000000E+00 -0.00000000000E+00 -0.45593999997E+02  0.45594000000E+02  0.51100000000E-03 0. -1.
    9900012    2    1    2    0    0 -0.11759894805E+02 -0.10377178345E+02  0.10233351226E+02  0.72460949150E+02  0.69999190839E+02 0.  0.
         12    1    1    2    0    0  0.11759894805E+02  0.10377178345E+02 -0.10233351226E+02  0.18727050850E+02  0.00000000000E+00 0. -1.
         11    1    3    3    0    0 -0.27947667559E+02 -0.22421589231E+02 -0.10885839642E+02  0.37447313530E+02  0.51100000000E-03 0. -1.
        -11    1    3    3    0    0 -0.12923759624E+00 -0.18881901930E+00  0.13096965038E+02  0.13098963640E+02  0.51100000000E-03 0.  1.
        -12    1    3    3    0    0  0.16317010350E+02  0.12233229906E+02  0.80222258304E+01  0.21914671979E+02  0.00000000000E+00 0.  1.
</event>
<event>
 7    1  0.2976321E-013  0.7246157E+02  0.7816164E-02  0.1226708E+00
        -11   -1    0    0    0    0  0.00000000000E+00  0.00000000000E+00  0.45593999997E+02  0.45594000000E+02  0.51100000000E-03 0.  1.
         11   -1    0    0    0    0 -0.00000000000E+00 -0.00000000000E+00 -0.45593999997E+02  0.45594000000E+02  0.51100000000E-03 0. -1.
    9900012    2    1    2    0    0 -0.15711170447E+02  0.82464189248E+01  0.59862347843E+01  0.72461566576E+02  0.69999995156E+02 0.  0.
         12    1    1    2    0    0  0.15711170447E+02 -0.82464189248E+01 -0.59862347843E+01  0.18726433424E+02  0.00000000000E+00 0. -1.
         11    1    3    3    0    0 -0.61028856216E+01  0.13488312422E+01  0.23756375366E+01  0.66864200135E+01  0.51100000000E-03 0. -1.
        -11    1    3    3    0    0 -0.21252380185E+02  0.67500385912E+01  0.29738329945E+02  0.37169812385E+02  0.51100000000E-03 0.  1.
         12    1    3    3    0    0  0.11644095360E+02  0.14754909144E+00 -0.26127732698E+02  0.28605334177E+02  0.00000000000E+00 0. -1.
</event>
<event>
 7    1  0.4124889E-013  0.7246152E+02  0.7816164E-02  0.1226708E+00
        -11   -1    0    0    0    0  0.00000000000E+00  0.00000000000E+00  0.45593999997E+02  0.45594000000E+02  0.51100000000E-03 0. -1.
         11   -1    0    0    0    0 -0.00000000000E+00 -0.00000000000E+00 -0.45593999997E+02  0.45594000000E+02  0.51100000000E-03 0.  1.
    9900012    2    1    2    0    0  0.80147315452E+01 -0.97446100473E+01 -0.13837912396E+02  0.72461516983E+02  0.69999930552E+02 0.  0.
         12    1    1    2    0    0 -0.80147315452E+01  0.97446100473E+01  0.13837912396E+02  0.18726483017E+02  0.00000000000E+00 0. -1.
         11    1    3    3    0    0  0.21010336303E+01  0.38727070035E+01  0.21717047496E+02  0.22159475492E+02  0.51100000000E-03 0. -1.
        -11    1    3    3    0    0  0.17905001750E+02 -0.11084595740E+01 -0.14738843181E+02  0.23217477659E+02  0.51100000000E-03 0.  1.
        -12    1    3    3    0    0 -0.11991303835E+02 -0.12508857477E+02 -0.20816116711E+02  0.27084563832E+02  0.00000000000E+00 0.  1.
</event>
<event>
 7    1  0.3059857E-013  0.7246177E+02  0.7816164E-02  0.1226707E+00
        -11   -1    0    0    0    0  0.00000000000E+00  0.00000000000E+00  0.45593999997E+02  0.45594000000E+02  0.51100000000E-03 0.  1.
         11   -1    0    0    0    0 -0.00000000000E+00 -0.00000000000E+00 -0.45593999997E+02  0.45594000000E+02  0.51100000000E-03 0. -1.
    9900012    2    1    2    0    0  0.72168245760E+01  0.16002461349E+02 -0.65199972080E+01  0.72461770006E+02  0.70000260161E+02 0.  0.
         12    1    1    2    0    0 -0.72168245760E+01 -0.16002461349E+02  0.65199972080E+01  0.18726229994E+02  0.00000000000E+00 0. -1.
         11    1    3    3    0    0 -0.65658022617E+00 -0.21330826127E+02 -0.93082498630E+01  0.23282584836E+02  0.51100000000E-03 0. -1.
        -11    1    3    3    0    0  0.13496491783E+02  0.56204241391E+01 -0.59858021231E+01  0.15797920283E+02  0.51100000000E-03 0.  1.
        -12    1    3    3    0    0 -0.56230869804E+01  0.31712863337E+02  0.87740547781E+01  0.33381264888E+02  0.00000000000E+00 0.  1.
</event>
<event>
 7    1  0.2976321E-013  0.7246164E+02  0.7816164E-02  0.1226708E+00
        -11   -1    0    0    0    0  0.00000000000E+00  0.00000000000E+00  0.45593999997E+02  0.45594000000E+02  0.51100000000E-03 0. -1.
         11   -1    0    0    0    0 -0.00000000000E+00 -0.00000000000E+00 -0.45593999997E+02  0.45594000000E+02  0.51100000000E-03 0.  1.
    9900012    2    1    2    0    0  0.10199446068E+02  0.15215411238E+02 -0.38909247019E+01  0.72461635316E+02  0.70000084703E+02 0.  0.
         12    1    1    2    0    0 -0.10199446068E+02 -0.15215411238E+02  0.38909247019E+01  0.18726364684E+02  0.00000000000E+00 0. -1.
         11    1    3    3    0    0 -0.30971461549E+01  0.14527710026E+02  0.67660243704E+01  0.16322553689E+02  0.51100000000E-03 0. -1.
        -11    1    3    3    0    0  0.19048416904E+02  0.19653742096E+02  0.84146088512E+01  0.28634199959E+02  0.51100000000E-03 0.  1.
         12    1    3    3    0    0 -0.57518246806E+01 -0.18966040883E+02 -0.19071557924E+02  0.27504881668E+02  0.00000000000E+00 0. -1.
</event>
<event>
 7    1  0.2976321E-013  0.7246155E+02  0.7816164E-02  0.1226708E+00
        -11   -1    0    0    0    0  0.00000000000E+00  0.00000000000E+00  0.45593999997E+02  0.45594000000E+02  0.51100000000E-03 0.  1.
         11   -1    0    0    0    0 -0.00000000000E+00 -0.00000000000E+00 -0.45593999997E+02  0.45594000000E+02  0.51100000000E-03 0. -1.
    9900012    2    1    2    0    0 -0.20484438501E+01  0.13012548165E+02  0.13310055285E+02  0.72461545354E+02  0.69999967510E+02 0.  0.
         12    1    1    2    0    0  0.20484438501E+01 -0.13012548165E+02 -0.13310055285E+02  0.18726454646E+02  0.00000000000E+00 0. -1.
         11    1    3    3    0    0  0.34196377154E+01  0.13041368148E+00  0.32169178975E-01  0.34222748210E+01  0.51100000000E-03 0. -1.
        -11    1    3    3    0    0  0.27215031704E+02  0.20269157303E+02  0.99745483096E+01  0.35369313008E+02  0.51100000000E-03 0.  1.
         12    1    3    3    0    0 -0.32683113269E+02 -0.73870228200E+01  0.33033377959E+01  0.33669957525E+02  0.00000000000E+00 0. -1.
</event>
<event>
 7    1  0.2976321E-013  0.7246156E+02  0.7816164E-02  0.1226708E+00
        -11   -1    0    0    0    0  0.00000000000E+00  0.00000000000E+00  0.45593999997E+02  0.45594000000E+02  0.51100000000E-03 0. -1.
         11   -1    0    0    0    0 -0.00000000000E+00 -0.00000000000E+00 -0.45593999997E+02  0.45594000000E+02  0.51100000000E-03 0.  1.
    9900012    2    1    2    0    0  0.53576440944E+01  0.74556454070E+01 -0.16321418652E+02  0.72461555984E+02  0.69999981358E+02 0.  0.
         12    1    1    2    0    0 -0.53576440944E+01 -0.74556454070E+01  0.16321418652E+02  0.18726444016E+02  0.00000000000E+00 0. -1.
         11    1    3    3    0    0 -0.51124370153E+01  0.79364922705E+01 -0.12085410752E+02  0.15335647202E+02  0.51100000000E-03 0. -1.
        -11    1    3    3    0    0 -0.21254222268E+02  0.77921605691E+01 -0.82538776334E+01  0.24095356955E+02  0.51100000000E-03 0.  1.
         12    1    3    3    0    0  0.31724303378E+02 -0.82730074326E+01  0.40178697329E+01  0.33030551827E+02  0.00000000000E+00 0. -1.
</event>
<event>
 7    1  0.2976321E-013  0.7246157E+02  0.7816164E-02  0.1226708E+00
        -11   -1    0    0    0    0  0.00000000000E+00  0.00000000000E+00  0.45593999997E+02  0.45594000000E+02  0.51100000000E-03 0.  1.
         11   -1    0    0    0    0 -0.00000000000E+00 -0.00000000000E+00 -0.45593999997E+02  0.45594000000E+02  0.51100000000E-03 0. -1.
    9900012    2    1    2    0    0  0.16751071345E+02 -0.33800936895E+01  0.76587130577E+01  0.72461566536E+02  0.69999995105E+02 0.  0.
         12    1    1    2    0    0 -0.16751071345E+02  0.33800936895E+01 -0.76587130577E+01  0.18726433464E+02  0.00000000000E+00 0. -1.
         11    1    3    3    0    0  0.12024847255E+02  0.17228611805E+01 -0.50212617982E+01  0.13144514919E+02  0.51100000000E-03 0. -1.
        -11    1    3    3    0    0  0.18249780904E+02 -0.19814544856E+02  0.24233619616E+02  0.36234500284E+02  0.51100000000E-03 0.  1.
         12    1    3    3    0    0 -0.13523556813E+02  0.14711589986E+02 -0.11553644760E+02  0.23082551333E+02  0.00000000000E+00 0. -1.
</event>
<event>
 7    1  0.3497594E-013  0.7246155E+02  0.7816164E-02  0.1226708E+00
        -11   -1    0    0    0    0  0.00000000000E+00  0.00000000000E+00  0.45593999997E+02  0.45594000000E+02  0.51100000000E-03 0.  1.
         11   -1    0    0    0    0 -0.00000000000E+00 -0.00000000000E+00 -0.45593999997E+02  0.45594000000E+02  0.51100000000E-03 0. -1.
    9900012    2    1    2    0    0  0.10112234961E+02  0.15150788588E+02 -0.43446913330E+01  0.72461547225E+02  0.69999969948E+02 0.  0.
         12    1    1    2    0    0 -0.10112234961E+02 -0.15150788588E+02  0.43446913330E+01  0.18726452775E+02  0.00000000000E+00 0. -1.
         11    1    3    3    0    0  0.23513242344E+02 -0.59022682690E+01 -0.76126711213E+01  0.25409881899E+02  0.51100000000E-03 0. -1.
        -11    1    3    3    0    0 -0.27665707824E+01  0.17786936371E+02 -0.16467378894E+02  0.24396794610E+02  0.51100000000E-03 0.  1.
        -12    1    3    3    0    0 -0.10634436601E+02  0.32661204859E+01  0.19735358682E+02  0.22654870716E+02  0.00000000000E+00 0.  1.
</event>
<event>
 7    1  0.2976321E-013  0.7246154E+02  0.7816164E-02  0.1226708E+00
        -11   -1    0    0    0    0  0.00000000000E+00  0.00000000000E+00  0.45593999997E+02  0.45594000000E+02  0.51100000000E-03 0. -1.
         11   -1    0    0    0    0 -0.00000000000E+00 -0.00000000000E+00 -0.45593999997E+02  0.45594000000E+02  0.51100000000E-03 0.  1.
    9900012    2    1    2    0    0  0.91415687065E+01 -0.71005449033E+01 -0.14720535603E+02  0.72461543187E+02  0.69999964687E+02 0.  0.
         12    1    1    2    0    0 -0.91415687065E+01  0.71005449033E+01  0.14720535603E+02  0.18726456813E+02  0.00000000000E+00 0. -1.
         11    1    3    3    0    0  0.14369452213E+02 -0.19727738347E+01 -0.10026137832E+02  0.17632255488E+02  0.51100000000E-03 0. -1.
        -11    1    3    3    0    0  0.81381258567E+00 -0.24170964734E+02 -0.18581171842E+02  0.30498488067E+02  0.51100000000E-03 0.  1.
         12    1    3    3    0    0 -0.60416960923E+01  0.19043193665E+02  0.13886774070E+02  0.24330799632E+02  0.00000000000E+00 0. -1.
</event>
<event>
 7    1  0.2976321E-013  0.7246157E+02  0.7816164E-02  0.1226708E+00
        -11   -1    0    0    0    0  0.00000000000E+00  0.00000000000E+00  0.45593999997E+02  0.45594000000E+02  0.51100000000E-03 0. -1.
         11   -1    0    0    0    0 -0.00000000000E+00 -0.00000000000E+00 -0.45593999997E+02  0.45594000000E+02  0.51100000000E-03 0.  1.
    9900012    2    1    2    0    0  0.99696116057E+01 -0.14354754566E+02 -0.67251118676E+01  0.72461567775E+02  0.69999996719E+02 0.  0.
         12    1    1    2    0    0 -0.99696116057E+01  0.14354754566E+02  0.67251118676E+01  0.18726432225E+02  0.00000000000E+00 0. -1.
         11    1    3    3    0    0  0.30235157172E+01 -0.34400395938E+02 -0.97406039819E+01  0.35880471766E+02  0.51100000000E-03 0. -1.
        -11    1    3    3    0    0 -0.73823842701E+01  0.34493329307E+01 -0.85339522957E+01  0.11799399867E+02  0.51100000000E-03 0.  1.
         12    1    3    3    0    0  0.14328480159E+02  0.16596308441E+02  0.11549444410E+02  0.24781696142E+02  0.00000000000E+00 0. -1.
</event>
<event>
 7    1  0.2976321E-013  0.7246154E+02  0.7816164E-02  0.1226708E+00
        -11   -1    0    0    0    0  0.00000000000E+00  0.00000000000E+00  0.45593999997E+02  0.45594000000E+02  0.51100000000E-03 0.  1.
         11   -1    0    0    0    0 -0.00000000000E+00 -0.00000000000E+00 -0.45593999997E+02  0.45594000000E+02  0.51100000000E-03 0. -1.
    9900012    2    1    2    0    0 -0.93044625269E+01 -0.89293057351E+00  0.16226830558E+02  0.72461538031E+02  0.69999957971E+02 0.  0.
         12    1    1    2    0    0  0.93044625269E+01  0.89293057351E+00 -0.16226830558E+02  0.18726461969E+02  0.00000000000E+00 0. -1.
         11    1    3    3    0    0  0.16911435796E+02  0.53112451414E+01 -0.16855622458E+02  0.24460539535E+02  0.51100000000E-03 0. -1.
        -11    1    3    3    0    0 -0.24612667763E+01 -0.88081219010E+01  0.30921232472E+01  0.96541220214E+01  0.51100000000E-03 0.  1.
        -12    1    3    3    0    0 -0.23754631547E+02  0.26039461861E+01  0.29990329769E+02  0.38346876474E+02  0.00000000000E+00 0.  1.
</event>
<event>
 7    1  0.2976321E-013  0.7246156E+02  0.7816164E-02  0.1226708E+00
        -11   -1    0    0    0    0  0.00000000000E+00  0.00000000000E+00  0.45593999997E+02  0.45594000000E+02  0.51100000000E-03 0.  1.
         11   -1    0    0    0    0 -0.00000000000E+00 -0.00000000000E+00 -0.45593999997E+02  0.45594000000E+02  0.51100000000E-03 0. -1.
    9900012    2    1    2    0    0 -0.10339875105E+02 -0.13636061436E+02 -0.76042247682E+01  0.72461563526E+02  0.69999991183E+02 0.  0.
         12    1    1    2    0    0  0.10339875105E+02  0.13636061436E+02  0.76042247682E+01  0.18726436474E+02  0.00000000000E+00 0. -1.
         11    1    3    3    0    0 -0.20228478738E+02 -0.92182852017E+01 -0.12651508337E+02  0.25577896661E+02  0.51100000000E-03 0. -1.
        -11    1    3    3    0    0 -0.12250512495E+02 -0.79316688473E+01  0.16235313297E+02  0.21830525078E+02  0.51100000000E-03 0.  1.
         12    1    3    3    0    0  0.22139116128E+02  0.35138926125E+01 -0.11188029727E+02  0.25053141787E+02  0.00000000000E+00 0. -1.
</event>
<event>
 7    1  0.2976321E-013  0.7246166E+02  0.7816164E-02  0.1226708E+00
        -11   -1    0    0    0    0  0.00000000000E+00  0.00000000000E+00  0.45593999997E+02  0.45594000000E+02  0.51100000000E-03 0.  1.
         11   -1    0    0    0    0 -0.00000000000E+00 -0.00000000000E+00 -0.45593999997E+02  0.45594000000E+02  0.51100000000E-03 0. -1.
    9900012    2    1    2    0    0  0.18288200818E+02 -0.38863018086E+01 -0.10555361894E+01  0.72461660594E+02  0.70000117632E+02 0.  0.
         12    1    1    2    0    0 -0.18288200818E+02  0.38863018086E+01  0.10555361894E+01  0.18726339406E+02  0.00000000000E+00 0. -1.
         11    1    3    3    0    0  0.10903808667E+02 -0.81712368833E+01  0.12030679129E+02  0.18176891819E+02  0.51100000000E-03 0. -1.
        -11    1    3    3    0    0  0.25253564824E+02  0.15745661391E+02 -0.14307952179E+02  0.33020991578E+02  0.51100000000E-03 0.  1.
         12    1    3    3    0    0 -0.17869172673E+02 -0.11460726317E+02  0.12217368614E+01  0.21263777197E+02  0.00000000000E+00 0. -1.
</event>
<event>
 7    1  0.2976321E-013  0.7246139E+02  0.7816164E-02  0.1226708E+00
        -11   -1    0    0    0    0  0.00000000000E+00  0.00000000000E+00  0.45593999997E+02  0.45594000000E+02  0.51100000000E-03 0.  1.
         11   -1    0    0    0    0 -0.00000000000E+00 -0.00000000000E+00 -0.45593999997E+02  0.45594000000E+02  0.51100000000E-03 0. -1.
    9900012    2    1    2    0    0  0.10959673886E+02  0.62367638465E+01  0.13844648994E+02  0.72461388434E+02  0.69999763093E+02 0.  0.
         12    1    1    2    0    0 -0.10959673886E+02 -0.62367638465E+01 -0.13844648994E+02  0.18726611566E+02  0.00000000000E+00 0. -1.
         11    1    3    3    0    0 -0.75930248334E+01 -0.82389657849E+01  0.31235511035E+01  0.11631472610E+02  0.51100000000E-03 0. -1.
        -11    1    3    3    0    0 -0.22387522948E+01 -0.10491449879E+01  0.28990309561E+02  0.29095545462E+02  0.51100000000E-03 0.  1.
         12    1    3    3    0    0  0.20791451014E+02  0.15524874619E+02 -0.18269211670E+02  0.31734370362E+02  0.00000000000E+00 0. -1.
</event>
<event>
 7    1  0.2976321E-013  0.7246166E+02  0.7816164E-02  0.1226708E+00
        -11   -1    0    0    0    0  0.00000000000E+00  0.00000000000E+00  0.45593999997E+02  0.45594000000E+02  0.51100000000E-03 0. -1.
         11   -1    0    0    0    0 -0.00000000000E+00 -0.00000000000E+00 -0.45593999997E+02  0.45594000000E+02  0.51100000000E-03 0.  1.
    9900012    2    1    2    0    0 -0.21694009810E+01 -0.18498971524E+02 -0.19384615898E+01  0.72461658089E+02  0.70000114368E+02 0.  0.
         12    1    1    2    0    0  0.21694009810E+01  0.18498971524E+02  0.19384615898E+01  0.18726341911E+02  0.00000000000E+00 0. -1.
         11    1    3    3    0    0  0.19625492380E+02 -0.17063564880E+02 -0.10850914420E+02  0.28179204063E+02  0.51100000000E-03 0. -1.
        -11    1    3    3    0    0 -0.10449407040E+02 -0.18430502988E+02  0.10764768224E+02  0.23764548871E+02  0.51100000000E-03 0.  1.
         12    1    3    3    0    0 -0.11345486321E+02  0.16995096344E+02 -0.18523153943E+01  0.20517905155E+02  0.00000000000E+00 0. -1.
</event>
<event>
 7    1  0.2976321E-013  0.7246155E+02  0.7816164E-02  0.1226708E+00
        -11   -1    0    0    0    0  0.00000000000E+00  0.00000000000E+00  0.45593999997E+02  0.45594000000E+02  0.51100000000E-03 0.  1.
         11   -1    0    0    0    0 -0.00000000000E+00 -0.00000000000E+00 -0.45593999997E+02  0.45594000000E+02  0.51100000000E-03 0. -1.
    9900012    2    1    2    0    0 -0.31417606683E+01 -0.14934529643E+02 -0.10852142188E+02  0.72461552771E+02  0.69999977172E+02 0.  0.
         12    1    1    2    0    0  0.31417606683E+01  0.14934529643E+02  0.10852142188E+02  0.18726447229E+02  0.00000000000E+00 0. -1.
         11    1    3    3    0    0 -0.29785845911E+01 -0.14690135321E+02 -0.93503676852E+01  0.17666392332E+02  0.51100000000E-03 0. -1.
        -11    1    3    3    0    0  0.23986808749E+02 -0.11531082644E+02  0.56232639876E+01  0.27202094754E+02  0.51100000000E-03 0.  1.
         12    1    3    3    0    0 -0.24149984826E+02  0.11286688322E+02 -0.71250384908E+01  0.27593065685E+02  0.00000000000E+00 0. -1.
</event>
<event>
 7    1  0.2976321E-013  0.7246160E+02  0.7816164E-02  0.1226708E+00
        -11   -1    0    0    0    0  0.00000000000E+00  0.00000000000E+00  0.45593999997E+02  0.45594000000E+02  0.51100000000E-03 0. -1.
         11   -1    0    0    0    0 -0.00000000000E+00 -0.00000000000E+00 -0.45593999997E+02  0.45594000000E+02  0.51100000000E-03 0.  1.
    9900012    2    1    2    0    0  0.45633792454E-01  0.10874616596E+02 -0.15245285088E+02  0.72461599225E+02  0.70000037688E+02 0.  0.
         12    1    1    2    0    0 -0.45633792454E-01 -0.10874616596E+02  0.15245285088E+02  0.18726400775E+02  0.00000000000E+00 0. -1.
         11    1    3    3    0    0  0.56967385000E+01 -0.11623732136E+02 -0.67161413423E+01  0.14583227801E+02  0.51100000000E-03 0. -1.
        -11    1    3    3    0    0  0.14310569610E+02  0.29039369805E+02 -0.15300969741E+02  0.35807779553E+02  0.51100000000E-03 0.  1.
         12    1    3    3    0    0 -0.19961674318E+02 -0.65410210735E+01  0.67718259954E+01  0.22070591872E+02  0.00000000000E+00 0. -1.
</event>
<event>
 7    1  0.2976321E-013  0.7246155E+02  0.7816164E-02  0.1226708E+00
        -11   -1    0    0    0    0  0.00000000000E+00  0.00000000000E+00  0.45593999997E+02  0.45594000000E+02  0.51100000000E-03 0.  1.
         11   -1    0    0    0    0 -0.00000000000E+00 -0.00000000000E+00 -0.45593999997E+02  0.45594000000E+02  0.51100000000E-03 0. -1.
    9900012    2    1    2    0    0 -0.17227911672E+01  0.39448100623E+01  0.18224989296E+02  0.72461554243E+02  0.69999979090E+02 0.  0.
         12    1    1    2    0    0  0.17227911672E+01 -0.39448100623E+01 -0.18224989296E+02  0.18726445757E+02  0.00000000000E+00 0. -1.
         11    1    3    3    0    0  0.10890709788E+02  0.82985161261E+01 -0.72195495052E+01  0.15478850891E+02  0.51100000000E-03 0. -1.
        -11    1    3    3    0    0  0.22818420604E+01  0.17537311315E+02 -0.32029911940E+01  0.17972847415E+02  0.51100000000E-03 0.  1.
        -12    1    3    3    0    0 -0.14895343015E+02 -0.21891017379E+02  0.28647529996E+02  0.39009855938E+02  0.00000000000E+00 0.  1.
</event>
<event>
 7    1  0.2976321E-013  0.7246158E+02  0.7816164E-02  0.1226708E+00
        -11   -1    0    0    0    0  0.00000000000E+00  0.00000000000E+00  0.45593999997E+02  0.45594000000E+02  0.51100000000E-03 0. -1.
         11   -1    0    0    0    0 -0.00000000000E+00 -0.00000000000E+00 -0.45593999997E+02  0.45594000000E+02  0.51100000000E-03 0.  1.
    9900012    2    1    2    0    0 -0.15477169739E+02 -0.40864846971E+01  0.97178585638E+01  0.72461577080E+02  0.70000008840E+02 0.  0.
         12    1    1    2    0    0  0.15477169739E+02  0.40864846971E+01 -0.97178585638E+01  0.18726422920E+02  0.00000000000E+00 0. -1.
         11    1    3    3    0    0  0.13833338089E+02  0.18437348258E+01  0.10523795515E+02  0.17478869331E+02  0.51100000000E-03 0. -1.
        -11    1    3    3    0    0 -0.10956372106E+02 -0.18738053107E+02  0.16023774041E+02  0.26979956611E+02  0.51100000000E-03 0.  1.
        -12    1    3    3    0    0 -0.18354135721E+02  0.12807833584E+02 -0.16829710992E+02  0.28002751138E+02  0.00000000000E+00 0.  1.
</event>
<event>
 7    1  0.2976321E-013  0.7246154E+02  0.7816164E-02  0.1226708E+00
        -11   -1    0    0    0    0  0.00000000000E+00  0.00000000000E+00  0.45593999997E+02  0.45594000000E+02  0.51100000000E-03 0. -1.
         11   -1    0    0    0    0 -0.00000000000E+00 -0.00000000000E+00 -0.45593999997E+02  0.45594000000E+02  0.51100000000E-03 0.  1.
    9900012    2    1    2    0    0 -0.80970680499E+01  0.12701429156E+02  0.11126170238E+02  0.72461535364E+02  0.69999954496E+02 0.  0.
         12    1    1    2    0    0  0.80970680499E+01 -0.12701429156E+02 -0.11126170238E+02  0.18726464636E+02  0.00000000000E+00 0. -1.
         11    1    3    3    0    0  0.78613911275E+01  0.71295065848E+00 -0.70253647542E+01  0.10567190700E+02  0.51100000000E-03 0. -1.
        -11    1    3    3    0    0  0.13257901352E+02 -0.13400389566E+02 -0.65290284327E+00  0.18861831067E+02  0.51100000000E-03 0.  1.
         12    1    3    3    0    0 -0.29216360530E+02  0.25388868064E+02  0.18804437835E+02  0.43032513597E+02  0.00000000000E+00 0. -1.
</event>
<event>
 7    1  0.2976321E-013  0.7246157E+02  0.7816164E-02  0.1226708E+00
        -11   -1    0    0    0    0  0.00000000000E+00  0.00000000000E+00  0.45593999997E+02  0.45594000000E+02  0.51100000000E-03 0. -1.
         11   -1    0    0    0    0 -0.00000000000E+00 -0.00000000000E+00 -0.45593999997E+02  0.45594000000E+02  0.51100000000E-03 0.  1.
    9900012    2    1    2    0    0 -0.78455046484E+01  0.13111677409E+02 -0.10826414100E+02  0.72461567613E+02  0.69999996507E+02 0.  0.
         12    1    1    2    0    0  0.78455046484E+01 -0.13111677409E+02  0.10826414100E+02  0.18726432387E+02  0.00000000000E+00 0. -1.
         11    1    3    3    0    0 -0.10342832659E+02  0.27682516388E+02 -0.26718903742E+02  0.39839624979E+02  0.51100000000E-03 0. -1.
        -11    1    3    3    0    0 -0.20144709646E+01  0.59096068661E+01 -0.10651771323E+00  0.62444289461E+01  0.51100000000E-03 0.  1.
        -12    1    3    3    0    0  0.45117989753E+01 -0.20480445845E+02  0.15999007355E+02  0.26377513688E+02  0.00000000000E+00 0.  1.
</event>
<event>
 7    1  0.2976321E-013  0.7246158E+02  0.7816164E-02  0.1226708E+00
        -11   -1    0    0    0    0  0.00000000000E+00  0.00000000000E+00  0.45593999997E+02  0.45594000000E+02  0.51100000000E-03 0.  1.
         11   -1    0    0    0    0 -0.00000000000E+00 -0.00000000000E+00 -0.45593999997E+02  0.45594000000E+02  0.51100000000E-03 0. -1.
    9900012    2    1    2    0    0  0.22119362960E+01  0.12896537283E+02  0.13396469241E+02  0.72461582184E+02  0.70000015489E+02 0.  0.
         12    1    1    2    0    0 -0.22119362960E+01 -0.12896537283E+02 -0.13396469241E+02  0.18726417816E+02  0.00000000000E+00 0. -1.
         11    1    3    3    0    0 -0.20662486817E+02 -0.29253948979E+01  0.13146409924E+02  0.24664233029E+02  0.51100000000E-03 0. -1.
        -11    1    3    3    0    0  0.27861642366E+01 -0.11602527344E+02  0.59410814312E+01  0.13329583668E+02  0.51100000000E-03 0.  1.
        -12    1    3    3    0    0  0.20088258877E+02  0.27424459526E+02 -0.56910221138E+01  0.34467765487E+02  0.00000000000E+00 0.  1.
</event>
<event>
 7    1  0.2976321E-013  0.7246155E+02  0.7816164E-02  0.1226708E+00
        -11   -1    0    0    0    0  0.00000000000E+00  0.00000000000E+00  0.45593999997E+02  0.45594000000E+02  0.51100000000E-03 0. -1.
         11   -1    0    0    0    0 -0.00000000000E+00 -0.00000000000E+00 -0.45593999997E+02  0.45594000000E+02  0.51100000000E-03 0.  1.
    9900012    2    1    2    0    0  0.13948038576E+02 -0.12323874194E+02 -0.20626278547E+01  0.72461545746E+02  0.69999968021E+02 0.  0.
         12    1    1    2    0    0 -0.13948038576E+02  0.12323874194E+02  0.20626278547E+01  0.18726454254E+02  0.00000000000E+00 0. -1.
         11    1    3    3    0    0 -0.81743324572E+01 -0.93147759028E+01 -0.21810118086E+02  0.25085175153E+02  0.51100000000E-03 0. -1.
        -11    1    3    3    0    0  0.23104764316E+02 -0.94011522536E+01 -0.16736873808E+01  0.25000260549E+02  0.51100000000E-03 0.  1.
         12    1    3    3    0    0 -0.98239328251E+00  0.63920539627E+01  0.21421177612E+02  0.22376110045E+02  0.00000000000E+00 0. -1.
</event>
<event>
 7    1  0.2976321E-013  0.7246130E+02  0.7816164E-02  0.1226709E+00
        -11   -1    0    0    0    0  0.00000000000E+00  0.00000000000E+00  0.45593999997E+02  0.45594000000E+02  0.51100000000E-03 0. -1.
         11   -1    0    0    0    0 -0.00000000000E+00 -0.00000000000E+00 -0.45593999997E+02  0.45594000000E+02  0.51100000000E-03 0.  1.
    9900012    2    1    2    0    0 -0.11955633770E+02 -0.11545925950E+01 -0.14367291604E+02  0.72461298985E+02  0.69999646568E+02 0.  0.
         12    1    1    2    0    0  0.11955633770E+02  0.11545925950E+01  0.14367291604E+02  0.18726701015E+02  0.00000000000E+00 0. -1.
         11    1    3    3    0    0 -0.17267618961E+02  0.20096292887E+01  0.25328379126E+01  0.17567713073E+02  0.51100000000E-03 0. -1.
        -11    1    3    3    0    0  0.12422014182E+02 -0.23298359768E+01  0.16472134367E+02  0.20762123757E+02  0.51100000000E-03 0.  1.
        -12    1    3    3    0    0 -0.71100289908E+01 -0.83438590693E+00 -0.33372263883E+02  0.34131462154E+02  0.00000000000E+00 0.  1.
</event>
<event>
 7    1  0.2976321E-013  0.7246153E+02  0.7816164E-02  0.1226708E+00
        -11   -1    0    0    0    0  0.00000000000E+00  0.00000000000E+00  0.45593999997E+02  0.45594000000E+02  0.51100000000E-03 0.  1.
         11   -1    0    0    0    0 -0.00000000000E+00 -0.00000000000E+00 -0.45593999997E+02  0.45594000000E+02  0.51100000000E-03 0. -1.
    9900012    2    1    2    0    0 -0.15714463422E+02  0.24633205990E+01  0.98827263098E+01  0.72461532412E+02  0.69999950651E+02 0.  0.
         12    1    1    2    0    0  0.15714463422E+02 -0.24633205990E+01 -0.98827263098E+01  0.18726467588E+02  0.00000000000E+00 0. -1.
         11    1    3    3    0    0  0.60573327438E+01 -0.24806654761E+02 -0.48543071720E+00  0.25540106571E+02  0.51100000000E-03 0. -1.
        -11    1    3    3    0    0  0.44599152010E+00  0.21050755956E+02 -0.12439275263E+01  0.21092192648E+02  0.51100000000E-03 0.  1.
        -12    1    3    3    0    0 -0.22217787686E+02  0.62192194043E+01  0.11612084553E+02  0.25829233193E+02  0.00000000000E+00 0.  1.
</event>
<event>
 7    1  0.2976321E-013  0.7246156E+02  0.7816164E-02  0.1226708E+00
        -11   -1    0    0    0    0  0.00000000000E+00  0.00000000000E+00  0.45593999997E+02  0.45594000000E+02  0.51100000000E-03 0. -1.
         11   -1    0    0    0    0 -0.00000000000E+00 -0.00000000000E+00 -0.45593999997E+02  0.45594000000E+02  0.51100000000E-03 0.  1.
    9900012    2    1    2    0    0 -0.12182772390E+02 -0.11990130980E+02 -0.76482880188E+01  0.72461561640E+02  0.69999988727E+02 0.  0.
         12    1    1    2    0    0  0.12182772390E+02  0.11990130980E+02  0.76482880188E+01  0.18726438360E+02  0.00000000000E+00 0. -1.
         11    1    3    3    0    0  0.57206185334E+01  0.11499970389E+02 -0.14465445020E+01  0.12925451118E+02  0.51100000000E-03 0. -1.
        -11    1    3    3    0    0 -0.84890654562E+01  0.14522800902E+02 -0.10974198939E+02  0.20085044709E+02  0.51100000000E-03 0.  1.
        -12    1    3    3    0    0 -0.94143254672E+01 -0.38012902271E+02  0.47724554220E+01  0.39451065813E+02  0.00000000000E+00 0.  1.
</event>
<event>
 7    1  0.2976321E-013  0.7246157E+02  0.7816164E-02  0.1226708E+00
        -11   -1    0    0    0    0  0.00000000000E+00  0.00000000000E+00  0.45593999997E+02  0.45594000000E+02  0.51100000000E-03 0. -1.
         11   -1    0    0    0    0 -0.00000000000E+00 -0.00000000000E+00 -0.45593999997E+02  0.45594000000E+02  0.51100000000E-03 0.  1.
    9900012    2    1    2    0    0  0.66712455451E+00 -0.11325007115E+02 -0.14898941850E+02  0.72461566554E+02  0.69999995128E+02 0.  0.
         12    1    1    2    0    0 -0.66712455451E+00  0.11325007115E+02  0.14898941850E+02  0.18726433446E+02  0.00000000000E+00 0. -1.
         11    1    3    3    0    0 -0.15953235487E+02 -0.83411090298E+01  0.52397488218E+01  0.18749261061E+02  0.51100000000E-03 0. -1.
        -11    1    3    3    0    0 -0.74818369280E+01  0.25814628297E+01 -0.26923150589E+02  0.28062392486E+02  0.51100000000E-03 0.  1.
        -12    1    3    3    0    0  0.24102196970E+02 -0.55653609152E+01  0.67844599170E+01  0.25649913007E+02  0.00000000000E+00 0.  1.
</event>
<event>
 7    1  0.2976321E-013  0.7246153E+02  0.7816164E-02  0.1226708E+00
        -11   -1    0    0    0    0  0.00000000000E+00  0.00000000000E+00  0.45593999997E+02  0.45594000000E+02  0.51100000000E-03 0.  1.
         11   -1    0    0    0    0 -0.00000000000E+00 -0.00000000000E+00 -0.45593999997E+02  0.45594000000E+02  0.51100000000E-03 0. -1.
    9900012    2    1    2    0    0 -0.77043324548E+01 -0.10985460536E+01  0.17032822138E+02  0.72461532849E+02  0.69999951220E+02 0.  0.
         12    1    1    2    0    0  0.77043324548E+01  0.10985460536E+01 -0.17032822138E+02  0.18726467151E+02  0.00000000000E+00 0. -1.
         11    1    3    3    0    0  0.17077099423E+02 -0.40042603653E+01  0.13311374816E+02  0.22019403387E+02  0.51100000000E-03 0. -1.
        -11    1    3    3    0    0 -0.14836959143E+02 -0.13410466334E+02  0.17747828205E+02  0.26738761568E+02  0.51100000000E-03 0.  1.
         12    1    3    3    0    0 -0.99444727345E+01  0.16316180646E+02 -0.14026380884E+02  0.23703367894E+02  0.00000000000E+00 0. -1.
</event>
<event>
 7    1  0.4340208E-013  0.7246147E+02  0.7816164E-02  0.1226708E+00
        -11   -1    0    0    0    0  0.00000000000E+00  0.00000000000E+00  0.45593999997E+02  0.45594000000E+02  0.51100000000E-03 0.  1.
         11   -1    0    0    0    0 -0.00000000000E+00 -0.00000000000E+00 -0.45593999997E+02  0.45594000000E+02  0.51100000000E-03 0. -1.
    9900012    2    1    2    0    0  0.16986605818E+02 -0.93344189228E+00  0.78273113765E+01  0.72461470840E+02  0.69999870443E+02 0.  0.
         12    1    1    2    0    0 -0.16986605818E+02  0.93344189228E+00 -0.78273113765E+01  0.18726529160E+02  0.00000000000E+00 0. -1.
         11    1    3    3    0    0  0.60700102879E+01 -0.25913370549E+01 -0.20237215636E+02  0.21286261992E+02  0.51100000000E-03 0. -1.
        -11    1    3    3    0    0  0.11865718700E+02  0.24372393279E+01 -0.83675260369E+01  0.14722462703E+02  0.51100000000E-03 0.  1.
        -12    1    3    3    0    0 -0.94912316946E+00 -0.77934416535E+00  0.36432053050E+02  0.36452746145E+02  0.00000000000E+00 0.  1.
</event>
<event>
 7    1  0.2976321E-013  0.7246135E+02  0.7816164E-02  0.1226709E+00
        -11   -1    0    0    0    0  0.00000000000E+00  0.00000000000E+00  0.45593999997E+02  0.45594000000E+02  0.51100000000E-03 0.  1.
         11   -1    0    0    0    0 -0.00000000000E+00 -0.00000000000E+00 -0.45593999997E+02  0.45594000000E+02  0.51100000000E-03 0. -1.
    9900012    2    1    2    0    0  0.85126512632E+01 -0.63905513186E+01  0.15407237326E+02  0.72461352149E+02  0.69999715825E+02 0.  0.
         12    1    1    2    0    0 -0.85126512632E+01  0.63905513186E+01 -0.15407237326E+02  0.18726647851E+02  0.00000000000E+00 0. -1.
         11    1    3    3    0    0 -0.24519908266E+00  0.33966712069E+01  0.30202498047E+02  0.30393887320E+02  0.51100000000E-03 0.  1.
        -11    1    3    3    0    0  0.14105944407E+02 -0.21950581010E+02 -0.97136193111E+01  0.27841696691E+02  0.51100000000E-03 0. -1.
         12    1    3    3    0    0 -0.53480940609E+01  0.12163358484E+02 -0.50816414097E+01  0.14225768138E+02  0.00000000000E+00 0. -1.
</event>
<event>
 7    1  0.2976321E-013  0.7246156E+02  0.7816164E-02  0.1226708E+00
        -11   -1    0    0    0    0  0.00000000000E+00  0.00000000000E+00  0.45593999997E+02  0.45594000000E+02  0.51100000000E-03 0. -1.
         11   -1    0    0    0    0 -0.00000000000E+00 -0.00000000000E+00 -0.45593999997E+02  0.45594000000E+02  0.51100000000E-03 0.  1.
    9900012    2    1    2    0    0  0.17751037459E+02 -0.56329487541E+01 -0.19621809551E+01  0.72461558891E+02  0.69999985144E+02 0.  0.
         12    1    1    2    0    0 -0.17751037459E+02  0.56329487541E+01  0.19621809551E+01  0.18726441109E+02  0.00000000000E+00 0. -1.
         11    1    3    3    0    0  0.15846086953E+01 -0.16400270751E+02  0.16599441311E+02  0.23388486858E+02  0.51100000000E-03 0. -1.
        -11    1    3    3    0    0 -0.37933891845E+01  0.15691521809E+01  0.11284717597E+02  0.12008201013E+02  0.51100000000E-03 0.  1.
        -12    1    3    3    0    0  0.19959817948E+02  0.91981698161E+01 -0.29846339863E+02  0.37064871019E+02  0.00000000000E+00 0.  1.
</event>
<event>
 7    1  0.2976321E-013  0.7246173E+02  0.7816164E-02  0.1226708E+00
        -11   -1    0    0    0    0  0.00000000000E+00  0.00000000000E+00  0.45593999997E+02  0.45594000000E+02  0.51100000000E-03 0.  1.
         11   -1    0    0    0    0 -0.00000000000E+00 -0.00000000000E+00 -0.45593999997E+02  0.45594000000E+02  0.51100000000E-03 0. -1.
    9900012    2    1    2    0    0 -0.12667840423E+02  0.13649470501E+02 -0.19725440849E+01  0.72461730854E+02  0.70000209159E+02 0.  0.
         12    1    1    2    0    0  0.12667840423E+02 -0.13649470501E+02  0.19725440849E+01  0.18726269146E+02  0.00000000000E+00 0. -1.
         11    1    3    3    0    0  0.15978182892E+02 -0.54422915705E+01 -0.15143840414E+02  0.22677230184E+02  0.51100000000E-03 0. -1.
        -11    1    3    3    0    0 -0.10115590952E+02 -0.41375206825E+01 -0.77892615557E+01  0.13420762034E+02  0.51100000000E-03 0.  1.
        -12    1    3    3    0    0 -0.18530432363E+02  0.23229282754E+02  0.20960557885E+02  0.36363738637E+02  0.00000000000E+00 0.  1.
</event>
<event>
 7    1  0.2976321E-013  0.7246156E+02  0.7816164E-02  0.1226708E+00
        -11   -1    0    0    0    0  0.00000000000E+00  0.00000000000E+00  0.45593999997E+02  0.45594000000E+02  0.51100000000E-03 0.  1.
         11   -1    0    0    0    0 -0.00000000000E+00 -0.00000000000E+00 -0.45593999997E+02  0.45594000000E+02  0.51100000000E-03 0. -1.
    9900012    2    1    2    0    0 -0.13870253223E+01 -0.16752964153E+01  0.18599702401E+02  0.72461564495E+02  0.69999992445E+02 0.  0.
         12    1    1    2    0    0  0.13870253223E+01  0.16752964153E+01 -0.18599702401E+02  0.18726435505E+02  0.00000000000E+00 0. -1.
         11    1    3    3    0    0  0.32589198147E+01 -0.23602061194E+02  0.81099440545E+01  0.25168413613E+02  0.51100000000E-03 0. -1.
        -11    1    3    3    0    0  0.12523511316E+02  0.13097926470E+00  0.14609348325E+02  0.19242883099E+02  0.51100000000E-03 0.  1.
         12    1    3    3    0    0 -0.17169456453E+02  0.21795785514E+02 -0.41195899784E+01  0.28050267782E+02  0.00000000000E+00 0. -1.
</event>
<event>
 7    1  0.2976321E-013  0.7246158E+02  0.7816164E-02  0.1226708E+00
        -11   -1    0    0    0    0  0.00000000000E+00  0.00000000000E+00  0.45593999997E+02  0.45594000000E+02  0.51100000000E-03 0. -1.
         11   -1    0    0    0    0 -0.00000000000E+00 -0.00000000000E+00 -0.45593999997E+02  0.45594000000E+02  0.51100000000E-03 0.  1.
    9900012    2    1    2    0    0  0.11086617660E+02 -0.60266139600E+01 -0.13836394269E+02  0.72461575533E+02  0.70000006824E+02 0.  0.
         12    1    1    2    0    0 -0.11086617660E+02  0.60266139600E+01  0.13836394269E+02  0.18726424467E+02  0.00000000000E+00 0. -1.
         11    1    3    3    0    0  0.21796392698E+00  0.38037090675E+01 -0.19729400428E+01  0.42904782505E+01  0.51100000000E-03 0. -1.
        -11    1    3    3    0    0  0.12586487661E+02 -0.28066780162E+01 -0.38483422860E+02  0.40586585818E+02  0.51100000000E-03 0.  1.
         12    1    3    3    0    0 -0.17178339276E+01 -0.70236450114E+01  0.26619968634E+02  0.27584511464E+02  0.00000000000E+00 0. -1.
</event>
<event>
 7    1  0.2976321E-013  0.7246136E+02  0.7816164E-02  0.1226709E+00
        -11   -1    0    0    0    0  0.00000000000E+00  0.00000000000E+00  0.45593999997E+02  0.45594000000E+02  0.51100000000E-03 0.  1.
         11   -1    0    0    0    0 -0.00000000000E+00 -0.00000000000E+00 -0.45593999997E+02  0.45594000000E+02  0.51100000000E-03 0. -1.
    9900012    2    1    2    0    0 -0.10234469377E+02 -0.15609958071E+02 -0.15072372104E+01  0.72461363398E+02  0.69999730479E+02 0.  0.
         12    1    1    2    0    0  0.10234469377E+02  0.15609958071E+02  0.15072372104E+01  0.18726636602E+02  0.00000000000E+00 0. -1.
         11    1    3    3    0    0 -0.17213405097E+02  0.19638850672E+01  0.41114852780E+01  0.17806248090E+02  0.51100000000E-03 0.  1.
        -11    1    3    3    0    0 -0.20524547527E+02 -0.16839600735E+02 -0.56435173904E+01  0.27141821842E+02  0.51100000000E-03 0. -1.
         12    1    3    3    0    0  0.27503483246E+02 -0.73424240261E+00  0.24794901993E-01  0.27513293467E+02  0.00000000000E+00 0. -1.
</event>
<event>
 7    1  0.2989735E-013  0.7246161E+02  0.7816164E-02  0.1226708E+00
        -11   -1    0    0    0    0  0.00000000000E+00  0.00000000000E+00  0.45593999997E+02  0.45594000000E+02  0.51100000000E-03 0. -1.
         11   -1    0    0    0    0 -0.00000000000E+00 -0.00000000000E+00 -0.45593999997E+02  0.45594000000E+02  0.51100000000E-03 0.  1.
    9900012    2    1    2    0    0  0.63824108556E+01 -0.25448929970E+01 -0.17420271757E+02  0.72461614423E+02  0.70000057486E+02 0.  0.
         12    1    1    2    0    0 -0.63824108556E+01  0.25448929970E+01  0.17420271757E+02  0.18726385577E+02  0.00000000000E+00 0. -1.
         11    1    3    3    0    0  0.73133565563E+01  0.25012821220E+01  0.81032350990E+01  0.11198393443E+02  0.51100000000E-03 0. -1.
        -11    1    3    3    0    0  0.22414632434E+02  0.74330375442E+01  0.12036056482E+01  0.23645601306E+02  0.51100000000E-03 0.  1.
        -12    1    3    3    0    0 -0.23345578135E+02 -0.12479212663E+02 -0.26727112504E+02  0.37617619674E+02  0.00000000000E+00 0.  1.
</event>
<event>
 7    1  0.2976321E-013  0.7246159E+02  0.7816164E-02  0.1226708E+00
        -11   -1    0    0    0    0  0.00000000000E+00  0.00000000000E+00  0.45593999997E+02  0.45594000000E+02  0.51100000000E-03 0. -1.
         11   -1    0    0    0    0 -0.00000000000E+00 -0.00000000000E+00 -0.45593999997E+02  0.45594000000E+02  0.51100000000E-03 0.  1.
    9900012    2    1    2    0    0  0.51756222212E+01 -0.16908421912E+02  0.61641375612E+01  0.72461591139E+02  0.70000027154E+02 0.  0.
         12    1    1    2    0    0 -0.51756222212E+01  0.16908421912E+02 -0.61641375612E+01  0.18726408861E+02  0.00000000000E+00 0. -1.
         11    1    3    3    0    0 -0.17676901263E+01 -0.16716946047E+02 -0.85341168996E+01  0.18852378233E+02  0.51100000000E-03 0. -1.
        -11    1    3    3    0    0  0.19237475269E+02 -0.12730578329E+02 -0.84381880948E+01  0.24563206181E+02  0.51100000000E-03 0.  1.
        -12    1    3    3    0    0 -0.12294162921E+02  0.12539102464E+02  0.23136442556E+02  0.29046006725E+02  0.00000000000E+00 0.  1.
</event>
<event>
 7    1  0.2976321E-013  0.7246168E+02  0.7816164E-02  0.1226708E+00
        -11   -1    0    0    0    0  0.00000000000E+00  0.00000000000E+00  0.45593999997E+02  0.45594000000E+02  0.51100000000E-03 0.  1.
         11   -1    0    0    0    0 -0.00000000000E+00 -0.00000000000E+00 -0.45593999997E+02  0.45594000000E+02  0.51100000000E-03 0. -1.
    9900012    2    1    2    0    0  0.75122119884E+01 -0.66329904962E+01  0.15819142337E+02  0.72461677453E+02  0.70000139594E+02 0.  0.
         12    1    1    2    0    0 -0.75122119884E+01  0.66329904962E+01 -0.15819142337E+02  0.18726322547E+02  0.00000000000E+00 0. -1.
         11    1    3    3    0    0 -0.16533457464E+02  0.15468033278E+02  0.14637187039E+02  0.26960387866E+02  0.51100000000E-03 0. -1.
        -11    1    3    3    0    0 -0.39472097193E+01 -0.10897646372E+01  0.87773839112E+01  0.96855831067E+01  0.51100000000E-03 0.  1.
        -12    1    3    3    0    0  0.27992879171E+02 -0.21011259137E+02 -0.75954286141E+01  0.35815706480E+02  0.00000000000E+00 0.  1.
</event>
<event>
 7    1  0.2976321E-013  0.7246151E+02  0.7816164E-02  0.1226708E+00
        -11   -1    0    0    0    0  0.00000000000E+00  0.00000000000E+00  0.45593999997E+02  0.45594000000E+02  0.51100000000E-03 0.  1.
         11   -1    0    0    0    0 -0.00000000000E+00 -0.00000000000E+00 -0.45593999997E+02  0.45594000000E+02  0.51100000000E-03 0. -1.
    9900012    2    1    2    0    0 -0.75433609724E+01  0.88626522829E+01  0.14670810194E+02  0.72461506148E+02  0.69999916438E+02 0.  0.
         12    1    1    2    0    0  0.75433609724E+01 -0.88626522829E+01 -0.14670810194E+02  0.18726493852E+02  0.00000000000E+00 0. -1.
         11    1    3    3    0    0  0.12637491593E+02 -0.82485422233E+01 -0.36408407907E+01  0.15524186436E+02  0.51100000000E-03 0. -1.
        -11    1    3    3    0    0 -0.56761820310E+01 -0.16225679519E+02  0.28242624054E+01  0.17420338019E+02  0.51100000000E-03 0.  1.
        -12    1    3    3    0    0 -0.14504670535E+02  0.33336874025E+02  0.15487388579E+02  0.39516981693E+02  0.00000000000E+00 0.  1.
</event>
<event>
 7    1  0.2976321E-013  0.7246159E+02  0.7816164E-02  0.1226708E+00
        -11   -1    0    0    0    0  0.00000000000E+00  0.00000000000E+00  0.45593999997E+02  0.45594000000E+02  0.51100000000E-03 0.  1.
         11   -1    0    0    0    0 -0.00000000000E+00 -0.00000000000E+00 -0.45593999997E+02  0.45594000000E+02  0.51100000000E-03 0. -1.
    9900012    2    1    2    0    0  0.41014054225E+01  0.72024073929E+01  0.16792328593E+02  0.72461588217E+02  0.70000023348E+02 0.  0.
         12    1    1    2    0    0 -0.41014054225E+01 -0.72024073929E+01 -0.16792328593E+02  0.18726411783E+02  0.00000000000E+00 0. -1.
         11    1    3    3    0    0  0.23395466339E+01  0.51107155196E+01  0.57659488225E+01  0.80522703419E+01  0.51100000000E-03 0.  1.
        -11    1    3    3    0    0 -0.20646209628E+02  0.56312327249E+01 -0.17723621264E+02  0.27786750529E+02  0.51100000000E-03 0. -1.
         12    1    3    3    0    0  0.22408068416E+02 -0.35395408516E+01  0.28750001034E+02  0.36622567346E+02  0.00000000000E+00 0. -1.
</event>
<event>
 7    1  0.2976321E-013  0.7246151E+02  0.7816164E-02  0.1226708E+00
        -11   -1    0    0    0    0  0.00000000000E+00  0.00000000000E+00  0.45593999997E+02  0.45594000000E+02  0.51100000000E-03 0. -1.
         11   -1    0    0    0    0 -0.00000000000E+00 -0.00000000000E+00 -0.45593999997E+02  0.45594000000E+02  0.51100000000E-03 0.  1.
    9900012    2    1    2    0    0  0.16916199765E+02  0.22899320246E+01 -0.76993409415E+01  0.72461509295E+02  0.69999920538E+02 0.  0.
         12    1    1    2    0    0 -0.16916199765E+02 -0.22899320246E+01  0.76993409415E+01  0.18726490705E+02  0.00000000000E+00 0. -1.
         11    1    3    3    0    0  0.34159709191E+02  0.65374065438E+00 -0.22294658865E+02  0.40796628819E+02  0.51100000000E-03 0. -1.
        -11    1    3    3    0    0 -0.54739722844E+01 -0.10090363920E+02  0.63055233962E+01  0.13097306676E+02  0.51100000000E-03 0.  1.
        -12    1    3    3    0    0 -0.11769537141E+02  0.11726555291E+02  0.82897945278E+01  0.18567573800E+02  0.00000000000E+00 0.  1.
</event>
<event>
 7    1  0.2976321E-013  0.7246154E+02  0.7816164E-02  0.1226708E+00
        -11   -1    0    0    0    0  0.00000000000E+00  0.00000000000E+00  0.45593999997E+02  0.45594000000E+02  0.51100000000E-03 0. -1.
         11   -1    0    0    0    0 -0.00000000000E+00 -0.00000000000E+00 -0.45593999997E+02  0.45594000000E+02  0.51100000000E-03 0.  1.
    9900012    2    1    2    0    0  0.77064654639E+00  0.23661651383E+01 -0.18560376144E+02  0.72461542883E+02  0.69999964292E+02 0.  0.
         12    1    1    2    0    0 -0.77064654639E+00 -0.23661651383E+01  0.18560376144E+02  0.18726457117E+02  0.00000000000E+00 0. -1.
         11    1    3    3    0    0 -0.13600072313E+02  0.20061355203E+02 -0.98515405319E+01  0.26162430901E+02  0.51100000000E-03 0. -1.
        -11    1    3    3    0    0 -0.10089159009E+02  0.26217878063E+01 -0.10041428646E+02  0.14473948678E+02  0.51100000000E-03 0.  1.
         12    1    3    3    0    0  0.24459877869E+02 -0.20316977871E+02  0.13325930341E+01  0.31825163305E+02  0.00000000000E+00 0. -1.
</event>
<event>
 7    1  0.2976321E-013  0.7246155E+02  0.7816164E-02  0.1226708E+00
        -11   -1    0    0    0    0  0.00000000000E+00  0.00000000000E+00  0.45593999997E+02  0.45594000000E+02  0.51100000000E-03 0.  1.
         11   -1    0    0    0    0 -0.00000000000E+00 -0.00000000000E+00 -0.45593999997E+02  0.45594000000E+02  0.51100000000E-03 0. -1.
    9900012    2    1    2    0    0  0.60739013161E+01 -0.15769638632E+02  0.80688426513E+01  0.72461548080E+02  0.69999971062E+02 0.  0.
         12    1    1    2    0    0 -0.60739013161E+01  0.15769638632E+02 -0.80688426513E+01  0.18726451920E+02  0.00000000000E+00 0. -1.
         11    1    3    3    0    0  0.26206431760E+01  0.10923839039E+02 -0.52584156659E+01  0.12403586803E+02  0.51100000000E-03 0. -1.
        -11    1    3    3    0    0 -0.17383957870E+02 -0.74781933888E+01 -0.11697123473E+02  0.22247428287E+02  0.51100000000E-03 0.  1.
        -12    1    3    3    0    0  0.20837216010E+02 -0.19215284282E+02  0.25024381790E+02  0.37810532991E+02  0.00000000000E+00 0.  1.
</event>
<event>
 7    1  0.2976321E-013  0.7246213E+02  0.7816164E-02  0.1226707E+00
        -11   -1    0    0    0    0  0.00000000000E+00  0.00000000000E+00  0.45593999997E+02  0.45594000000E+02  0.51100000000E-03 0. -1.
         11   -1    0    0    0    0 -0.00000000000E+00 -0.00000000000E+00 -0.45593999997E+02  0.45594000000E+02  0.51100000000E-03 0.  1.
    9900012    2    1    2    0    0 -0.76629167590E+01  0.16619691123E+02 -0.39653457458E+01  0.72462125036E+02  0.70000722650E+02 0.  0.
         12    1    1    2    0    0  0.76629167590E+01 -0.16619691123E+02  0.39653457458E+01  0.18725874964E+02  0.00000000000E+00 0. -1.
         11    1    3    3    0    0 -0.20705517760E+01 -0.16200823912E+02 -0.10530267804E+02  0.19432972505E+02  0.51100000000E-03 0. -1.
        -11    1    3    3    0    0  0.85113923461E+01  0.47029804673E+01 -0.12811334578E+02  0.16083908694E+02  0.51100000000E-03 0.  1.
        -12    1    3    3    0    0 -0.14103757329E+02  0.28117534568E+02  0.19376256635E+02  0.36945243837E+02  0.00000000000E+00 0.  1.
</event>
<event>
 7    1  0.2976321E-013  0.7246156E+02  0.7816164E-02  0.1226708E+00
        -11   -1    0    0    0    0  0.00000000000E+00  0.00000000000E+00  0.45593999997E+02  0.45594000000E+02  0.51100000000E-03 0. -1.
         11   -1    0    0    0    0 -0.00000000000E+00 -0.00000000000E+00 -0.45593999997E+02  0.45594000000E+02  0.51100000000E-03 0.  1.
    9900012    2    1    2    0    0 -0.33719909288E+01  0.14811694726E+02 -0.10950938183E+02  0.72461556916E+02  0.69999982572E+02 0.  0.
         12    1    1    2    0    0  0.33719909288E+01 -0.14811694726E+02  0.10950938183E+02  0.18726443084E+02  0.00000000000E+00 0. -1.
         11    1    3    3    0    0  0.70877807371E+00 -0.16038470228E+02 -0.18622254201E+02  0.24587054427E+02  0.51100000000E-03 0. -1.
        -11    1    3    3    0    0  0.81043733392E+01 -0.49025007842E+01  0.19707399923E+01  0.96746678257E+01  0.51100000000E-03 0.  1.
        -12    1    3    3    0    0 -0.12185142342E+02  0.35752665738E+02  0.57005760258E+01  0.38199834663E+02  0.00000000000E+00 0.  1.
</event>
<event>
 7    1  0.2976321E-013  0.7246158E+02  0.7816164E-02  0.1226708E+00
        -11   -1    0    0    0    0  0.00000000000E+00  0.00000000000E+00  0.45593999997E+02  0.45594000000E+02  0.51100000000E-03 0.  1.
         11   -1    0    0    0    0 -0.00000000000E+00 -0.00000000000E+00 -0.45593999997E+02  0.45594000000E+02  0.51100000000E-03 0. -1.
    9900012    2    1    2    0    0  0.13681339858E+01  0.16234397603E+02  0.92331748623E+01  0.72461575511E+02  0.70000006795E+02 0.  0.
         12    1    1    2    0    0 -0.13681339858E+01 -0.16234397603E+02 -0.92331748623E+01  0.18726424489E+02  0.00000000000E+00 0. -1.
         11    1    3    3    0    0  0.85409888078E+00  0.30918824385E+01  0.29160670159E+01  0.43350512124E+01  0.51100000000E-03 0. -1.
        -11    1    3    3    0    0 -0.24463679720E+02  0.25019518023E+02  0.16456716021E+02  0.38668739441E+02  0.51100000000E-03 0.  1.
         12    1    3    3    0    0  0.24977714825E+02 -0.11877002859E+02 -0.10139608174E+02  0.29457784857E+02  0.00000000000E+00 0. -1.
</event>
<event>
 7    1  0.2976321E-013  0.7246153E+02  0.7816164E-02  0.1226708E+00
        -11   -1    0    0    0    0  0.00000000000E+00  0.00000000000E+00  0.45593999997E+02  0.45594000000E+02  0.51100000000E-03 0. -1.
         11   -1    0    0    0    0 -0.00000000000E+00 -0.00000000000E+00 -0.45593999997E+02  0.45594000000E+02  0.51100000000E-03 0.  1.
    9900012    2    1    2    0    0  0.17931130774E+02 -0.25113190552E+01 -0.47800070099E+01  0.72461530999E+02  0.69999948810E+02 0.  0.
         12    1    1    2    0    0 -0.17931130774E+02  0.25113190552E+01  0.47800070099E+01  0.18726469001E+02  0.00000000000E+00 0. -1.
         11    1    3    3    0    0  0.16606921942E+02  0.13230157157E+02 -0.58512387284E+00  0.21240745867E+02  0.51100000000E-03 0. -1.
        -11    1    3    3    0    0  0.18402014434E+02  0.63706282599E+01 -0.11135379076E+02  0.22432469929E+02  0.51100000000E-03 0.  1.
         12    1    3    3    0    0 -0.17077805602E+02 -0.22112104472E+02  0.69404959391E+01  0.28788315203E+02  0.00000000000E+00 0. -1.
</event>
<event>
 7    1  0.2976321E-013  0.7246149E+02  0.7816164E-02  0.1226708E+00
        -11   -1    0    0    0    0  0.00000000000E+00  0.00000000000E+00  0.45593999997E+02  0.45594000000E+02  0.51100000000E-03 0. -1.
         11   -1    0    0    0    0 -0.00000000000E+00 -0.00000000000E+00 -0.45593999997E+02  0.45594000000E+02  0.51100000000E-03 0.  1.
    9900012    2    1    2    0    0  0.62645473996E-01 -0.15726191649E+02 -0.10166863044E+02  0.72461491185E+02  0.69999896946E+02 0.  0.
         12    1    1    2    0    0 -0.62645473996E-01  0.15726191649E+02  0.10166863044E+02  0.18726508815E+02  0.00000000000E+00 0. -1.
         11    1    3    3    0    0  0.80539093841E+01  0.36968353909E+01 -0.28182760276E+02  0.29543189153E+02  0.51100000000E-03 0. -1.
        -11    1    3    3    0    0 -0.11687088917E+02 -0.44058108365E+01 -0.63864057111E+01  0.14028021765E+02  0.51100000000E-03 0.  1.
         12    1    3    3    0    0  0.36958250069E+01 -0.15017216203E+02  0.24402302943E+02  0.28890280267E+02  0.00000000000E+00 0. -1.
</event>
<event>
 7    1  0.2976321E-013  0.7246154E+02  0.7816164E-02  0.1226708E+00
        -11   -1    0    0    0    0  0.00000000000E+00  0.00000000000E+00  0.45593999997E+02  0.45594000000E+02  0.51100000000E-03 0.  1.
         11   -1    0    0    0    0 -0.00000000000E+00 -0.00000000000E+00 -0.45593999997E+02  0.45594000000E+02  0.51100000000E-03 0. -1.
    9900012    2    1    2    0    0  0.72303386940E+01 -0.10292516180E+02  0.13873228215E+02  0.72461544167E+02  0.69999965964E+02 0.  0.
         12    1    1    2    0    0 -0.72303386940E+01  0.10292516180E+02 -0.13873228215E+02  0.18726455833E+02  0.00000000000E+00 0. -1.
         11    1    3    3    0    0 -0.14900743044E+01  0.20973336064E+02 -0.12443128853E+02  0.24432204219E+02  0.51100000000E-03 0. -1.
        -11    1    3    3    0    0 -0.39776389969E+00  0.23428617052E+01  0.86701658991E+01  0.89899384908E+01  0.51100000000E-03 0.  1.
        -12    1    3    3    0    0  0.91181768981E+01 -0.33608713950E+02  0.17646191170E+02  0.39039401457E+02  0.00000000000E+00 0.  1.
</event>
<event>
 7    1  0.2976321E-013  0.7246152E+02  0.7816164E-02  0.1226708E+00
        -11   -1    0    0    0    0  0.00000000000E+00  0.00000000000E+00  0.45593999997E+02  0.45594000000E+02  0.51100000000E-03 0.  1.
         11   -1    0    0    0    0 -0.00000000000E+00 -0.00000000000E+00 -0.45593999997E+02  0.45594000000E+02  0.51100000000E-03 0. -1.
    9900012    2    1    2    0    0  0.17809312619E+02 -0.49533461446E+01  0.29956514808E+01  0.72461516566E+02  0.69999930009E+02 0.  0.
         12    1    1    2    0    0 -0.17809312619E+02  0.49533461446E+01 -0.29956514808E+01  0.18726483434E+02  0.00000000000E+00 0. -1.
         11    1    3    3    0    0 -0.19756869020E+01 -0.24807140538E+01  0.12011942295E+01  0.33911869293E+01  0.51100000000E-03 0. -1.
        -11    1    3    3    0    0  0.14329393194E+01 -0.28360390323E+02 -0.16096568205E+02  0.32641454664E+02  0.51100000000E-03 0.  1.
         12    1    3    3    0    0  0.18352060202E+02  0.25887758232E+02  0.17891025456E+02  0.36428874973E+02  0.00000000000E+00 0. -1.
</event>
<event>
 7    1  0.2976321E-013  0.7246159E+02  0.7816164E-02  0.1226708E+00
        -11   -1    0    0    0    0  0.00000000000E+00  0.00000000000E+00  0.45593999997E+02  0.45594000000E+02  0.51100000000E-03 0. -1.
         11   -1    0    0    0    0 -0.00000000000E+00 -0.00000000000E+00 -0.45593999997E+02  0.45594000000E+02  0.51100000000E-03 0.  1.
    9900012    2    1    2    0    0  0.17319686740E+02  0.60437872686E+01 -0.37655906207E+01  0.72461585873E+02  0.70000020295E+02 0.  0.
         12    1    1    2    0    0 -0.17319686740E+02 -0.60437872686E+01  0.37655906207E+01  0.18726414127E+02  0.00000000000E+00 0. -1.
         11    1    3    3    0    0  0.44228735313E+01 -0.22037232471E+02 -0.28073920931E-01  0.22476703799E+02  0.51100000000E-03 0.  1.
        -11    1    3    3    0    0  0.64244135587E+01  0.31909902660E+01 -0.18840806240E+02  0.20160146043E+02  0.51100000000E-03 0. -1.
         12    1    3    3    0    0  0.64723996499E+01  0.24890029473E+02  0.15103289540E+02  0.29824736032E+02  0.00000000000E+00 0. -1.
</event>
<event>
 7    1  0.2976321E-013  0.7246158E+02  0.7816164E-02  0.1226708E+00
        -11   -1    0    0    0    0  0.00000000000E+00  0.00000000000E+00  0.45593999997E+02  0.45594000000E+02  0.51100000000E-03 0.  1.
         11   -1    0    0    0    0 -0.00000000000E+00 -0.00000000000E+00 -0.45593999997E+02  0.45594000000E+02  0.51100000000E-03 0. -1.
    9900012    2    1    2    0    0 -0.12270055892E+02  0.14144699460E+02 -0.22799821587E+00  0.72461580759E+02  0.70000013632E+02 0.  0.
         12    1    1    2    0    0  0.12270055892E+02 -0.14144699460E+02  0.22799821587E+00  0.18726419241E+02  0.00000000000E+00 0. -1.
         11    1    3    3    0    0  0.73078138662E+01  0.19229274835E+02 -0.27221008344E+02  0.34119678336E+02  0.51100000000E-03 0. -1.
        -11    1    3    3    0    0 -0.89923984618E+01 -0.28356161104E+01  0.18351434591E+00  0.94306747689E+01  0.51100000000E-03 0.  1.
        -12    1    3    3    0    0 -0.10585471297E+02 -0.22489592643E+01  0.26809495783E+02  0.28911227654E+02  0.00000000000E+00 0.  1.
</event>
<event>
 7    1  0.2976321E-013  0.7246080E+02  0.7816164E-02  0.1226710E+00
        -11   -1    0    0    0    0  0.00000000000E+00  0.00000000000E+00  0.45593999997E+02  0.45594000000E+02  0.51100000000E-03 0.  1.
         11   -1    0    0    0    0 -0.00000000000E+00 -0.00000000000E+00 -0.45593999997E+02  0.45594000000E+02  0.51100000000E-03 0. -1.
    9900012    2    1    2    0    0  0.13962978279E+02  0.12469081310E+02 -0.51497566295E+00  0.72460801836E+02  0.69998998934E+02 0.  0.
         12    1    1    2    0    0 -0.13962978279E+02 -0.12469081310E+02  0.51497566295E+00  0.18727198164E+02  0.00000000000E+00 0. -1.
         11    1    3    3    0    0 -0.16969493729E+01 -0.88060717300E+00 -0.12492158363E+02  0.12637607645E+02  0.51100000000E-03 0. -1.
        -11    1    3    3    0    0  0.21739874844E+02  0.28628903666E+02 -0.48754806069E+01  0.36276805190E+02  0.51100000000E-03 0.  1.
         12    1    3    3    0    0 -0.60799471924E+01 -0.15279215184E+02  0.16852663307E+02  0.23546389002E+02  0.00000000000E+00 0. -1.
</event>
<event>
 7    1  0.2976321E-013  0.7246148E+02  0.7816164E-02  0.1226708E+00
        -11   -1    0    0    0    0  0.00000000000E+00  0.00000000000E+00  0.45593999997E+02  0.45594000000E+02  0.51100000000E-03 0.  1.
         11   -1    0    0    0    0 -0.00000000000E+00 -0.00000000000E+00 -0.45593999997E+02  0.45594000000E+02  0.51100000000E-03 0. -1.
    9900012    2    1    2    0    0  0.10365106428E+02  0.52333036417E+01 -0.14692158059E+02  0.72461483861E+02  0.69999887404E+02 0.  0.
         12    1    1    2    0    0 -0.10365106428E+02 -0.52333036417E+01  0.14692158059E+02  0.18726516139E+02  0.00000000000E+00 0. -1.
         11    1    3    3    0    0  0.70126938904E+01 -0.50446995492E+00 -0.50457136489E+01  0.86539928371E+01  0.51100000000E-03 0. -1.
        -11    1    3    3    0    0  0.14074058646E+02  0.18027192017E+02  0.19731752744E+02  0.30205973671E+02  0.51100000000E-03 0.  1.
         12    1    3    3    0    0 -0.10721646108E+02 -0.12289418420E+02 -0.29378197155E+02  0.33601517353E+02  0.00000000000E+00 0. -1.
</event>
<event>
 7    1  0.2976321E-013  0.7246154E+02  0.7816164E-02  0.1226708E+00
        -11   -1    0    0    0    0  0.00000000000E+00  0.00000000000E+00  0.45593999997E+02  0.45594000000E+02  0.51100000000E-03 0. -1.
         11   -1    0    0    0    0 -0.00000000000E+00 -0.00000000000E+00 -0.45593999997E+02  0.45594000000E+02  0.51100000000E-03 0.  1.
    9900012    2    1    2    0    0  0.12450172819E+02 -0.41025338576E+01 -0.13373206481E+02  0.72461541743E+02  0.69999962807E+02 0.  0.
         12    1    1    2    0    0 -0.12450172819E+02  0.41025338576E+01  0.13373206481E+02  0.18726458257E+02  0.00000000000E+00 0. -1.
         11    1    3    3    0    0 -0.65566578959E+01  0.14486841749E+01 -0.47901826021E+01  0.82482906244E+01  0.51100000000E-03 0. -1.
        -11    1    3    3    0    0 -0.84976664509E+01  0.20554006891E+02 -0.13433808248E+02  0.25983547462E+02  0.51100000000E-03 0.  1.
         12    1    3    3    0    0  0.27504497166E+02 -0.26105224924E+02  0.48507843698E+01  0.38229703656E+02  0.00000000000E+00 0. -1.
</event>
<event>
 7    1  0.2976321E-013  0.7246206E+02  0.7816164E-02  0.1226707E+00
        -11   -1    0    0    0    0  0.00000000000E+00  0.00000000000E+00  0.45593999997E+02  0.45594000000E+02  0.51100000000E-03 0. -1.
         11   -1    0    0    0    0 -0.00000000000E+00 -0.00000000000E+00 -0.45593999997E+02  0.45594000000E+02  0.51100000000E-03 0.  1.
    9900012    2    1    2    0    0 -0.14634550895E+02  0.10804638213E+02 -0.44441772044E+01  0.72462055488E+02  0.70000632053E+02 0.  0.
         12    1    1    2    0    0  0.14634550895E+02 -0.10804638213E+02  0.44441772044E+01  0.18725944512E+02  0.00000000000E+00 0. -1.
         11    1    3    3    0    0  0.91269125978E-01  0.52830264612E+01  0.39322450658E+00  0.52984265983E+01  0.51100000000E-03 0. -1.
        -11    1    3    3    0    0 -0.98504404897E+01 -0.11175959364E+02 -0.31777261967E+02  0.35095977318E+02  0.51100000000E-03 0.  1.
         12    1    3    3    0    0 -0.48753795316E+01  0.16697571116E+02  0.26939860256E+02  0.32067651572E+02  0.00000000000E+00 0. -1.
</event>
<event>
 7    1  0.2976321E-013  0.7246154E+02  0.7816164E-02  0.1226708E+00
        -11   -1    0    0    0    0  0.00000000000E+00  0.00000000000E+00  0.45593999997E+02  0.45594000000E+02  0.51100000000E-03 0.  1.
         11   -1    0    0    0    0 -0.00000000000E+00 -0.00000000000E+00 -0.45593999997E+02  0.45594000000E+02  0.51100000000E-03 0. -1.
    9900012    2    1    2    0    0 -0.14727944729E+02  0.15238797887E+01  0.11464976255E+02  0.72461541550E+02  0.69999962555E+02 0.  0.
         12    1    1    2    0    0  0.14727944729E+02 -0.15238797887E+01 -0.11464976255E+02  0.18726458450E+02  0.00000000000E+00 0. -1.
         11    1    3    3    0    0  0.36450724500E+01 -0.11226158247E+00 -0.53498154514E+01  0.64745410226E+01  0.51100000000E-03 0. -1.
        -11    1    3    3    0    0  0.13142892559E+02 -0.20047713132E+02 -0.54372910830E+00  0.23977949626E+02  0.51100000000E-03 0.  1.
        -12    1    3    3    0    0 -0.31515909738E+02  0.21683854504E+02  0.17358520815E+02  0.42009050901E+02  0.00000000000E+00 0.  1.
</event>
<event>
 7    1  0.2976321E-013  0.7246193E+02  0.7816164E-02  0.1226707E+00
        -11   -1    0    0    0    0  0.00000000000E+00  0.00000000000E+00  0.45593999997E+02  0.45594000000E+02  0.51100000000E-03 0.  1.
         11   -1    0    0    0    0 -0.00000000000E+00 -0.00000000000E+00 -0.45593999997E+02  0.45594000000E+02  0.51100000000E-03 0. -1.
    9900012    2    1    2    0    0  0.73184925096E+01 -0.93063523341E+01  0.14508516868E+02  0.72461932925E+02  0.70000472393E+02 0.  0.
         12    1    1    2    0    0 -0.73184925096E+01  0.93063523341E+01 -0.14508516868E+02  0.18726067075E+02  0.00000000000E+00 0. -1.
         11    1    3    3    0    0 -0.35736320633E+01  0.26258878503E+02  0.47452258219E+01  0.26922420299E+02  0.51100000000E-03 0.  1.
        -11    1    3    3    0    0  0.13204995047E+01  0.28156088850E+00 -0.53195973512E+01  0.54882703756E+01  0.51100000000E-03 0. -1.
        -12    1    3    3    0    0  0.95716250681E+01 -0.35846791726E+02  0.15082888397E+02  0.40051242251E+02  0.00000000000E+00 0.  1.
</event>
<event>
 7    1  0.2976321E-013  0.7246177E+02  0.7816164E-02  0.1226707E+00
        -11   -1    0    0    0    0  0.00000000000E+00  0.00000000000E+00  0.45593999997E+02  0.45594000000E+02  0.51100000000E-03 0.  1.
         11   -1    0    0    0    0 -0.00000000000E+00 -0.00000000000E+00 -0.45593999997E+02  0.45594000000E+02  0.51100000000E-03 0. -1.
    9900012    2    1    2    0    0  0.10183211792E+02 -0.80291323172E+01  0.13509508501E+02  0.72461772721E+02  0.70000263698E+02 0.  0.
         12    1    1    2    0    0 -0.10183211792E+02  0.80291323172E+01 -0.13509508501E+02  0.18726227279E+02  0.00000000000E+00 0. -1.
         11    1    3    3    0    0  0.13424911793E+02  0.33932459771E+01 -0.67704233618E+01  0.15413663019E+02  0.51100000000E-03 0. -1.
        -11    1    3    3    0    0  0.14493600646E+02 -0.12799215979E+02  0.30811045548E+02  0.36375883734E+02  0.51100000000E-03 0.  1.
        -12    1    3    3    0    0 -0.17735300647E+02  0.13768376843E+01 -0.10531113686E+02  0.20672225969E+02  0.00000000000E+00 0.  1.
</event>
<event>
 7    1  0.2976321E-013  0.7246155E+02  0.7816164E-02  0.1226708E+00
        -11   -1    0    0    0    0  0.00000000000E+00  0.00000000000E+00  0.45593999997E+02  0.45594000000E+02  0.51100000000E-03 0.  1.
         11   -1    0    0    0    0 -0.00000000000E+00 -0.00000000000E+00 -0.45593999997E+02  0.45594000000E+02  0.51100000000E-03 0. -1.
    9900012    2    1    2    0    0 -0.15350173668E+02 -0.90396248812E+01  0.57738313718E+01  0.72461554039E+02  0.69999978824E+02 0.  0.
         12    1    1    2    0    0  0.15350173668E+02  0.90396248812E+01 -0.57738313718E+01  0.18726445961E+02  0.00000000000E+00 0. -1.
         11    1    3    3    0    0 -0.17125543049E+02  0.97783434730E+01  0.84377125219E+01  0.21449830271E+02  0.51100000000E-03 0.  1.
        -11    1    3    3    0    0  0.21749129910E+02 -0.17201147796E+02 -0.10281119576E+02  0.29573730866E+02  0.51100000000E-03 0. -1.
         12    1    3    3    0    0 -0.19973760530E+02 -0.16168205585E+01  0.76172384258E+01  0.21437992902E+02  0.00000000000E+00 0. -1.
</event>
<event>
 7    1  0.2976321E-013  0.7246161E+02  0.7816164E-02  0.1226708E+00
        -11   -1    0    0    0    0  0.00000000000E+00  0.00000000000E+00  0.45593999997E+02  0.45594000000E+02  0.51100000000E-03 0.  1.
         11   -1    0    0    0    0 -0.00000000000E+00 -0.00000000000E+00 -0.45593999997E+02  0.45594000000E+02  0.51100000000E-03 0. -1.
    9900012    2    1    2    0    0  0.18345443920E+01  0.12023329385E+02  0.14239087069E+02  0.72461612116E+02  0.70000054480E+02 0.  0.
         12    1    1    2    0    0 -0.18345443920E+01 -0.12023329385E+02 -0.14239087069E+02  0.18726387884E+02  0.00000000000E+00 0. -1.
         11    1    3    3    0    0 -0.60700055715E+01  0.20716322067E+01  0.39147073956E+01  0.75140908893E+01  0.51100000000E-03 0. -1.
        -11    1    3    3    0    0 -0.22534536495E+01 -0.92766638332E+00  0.35563205264E+02  0.35646601342E+02  0.51100000000E-03 0.  1.
         12    1    3    3    0    0  0.10158003613E+02  0.10879363561E+02 -0.25238825591E+02  0.29300919885E+02  0.00000000000E+00 0. -1.
</event>
<event>
 7    1  0.2976321E-013  0.7246158E+02  0.7816164E-02  0.1226708E+00
        -11   -1    0    0    0    0  0.00000000000E+00  0.00000000000E+00  0.45593999997E+02  0.45594000000E+02  0.51100000000E-03 0.  1.
         11   -1    0    0    0    0 -0.00000000000E+00 -0.00000000000E+00 -0.45593999997E+02  0.45594000000E+02  0.51100000000E-03 0. -1.
    9900012    2    1    2    0    0 -0.39070708481E+01  0.95498768375E+01  0.15627326751E+02  0.72461583055E+02  0.70000016623E+02 0.  0.
         12    1    1    2    0    0  0.39070708481E+01 -0.95498768375E+01 -0.15627326751E+02  0.18726416945E+02  0.00000000000E+00 0. -1.
         11    1    3    3    0    0  0.10126183203E+02  0.26291505989E+01 -0.10052310697E+02  0.14508651548E+02  0.51100000000E-03 0. -1.
        -11    1    3    3    0    0  0.74367921448E+00 -0.20131880084E+02  0.47630545707E+01  0.20701022767E+02  0.51100000000E-03 0.  1.
         12    1    3    3    0    0 -0.14776933265E+02  0.27052606322E+02  0.20916582877E+02  0.37251908740E+02  0.00000000000E+00 0. -1.
</event>
<event>
 7    1  0.2976321E-013  0.7246160E+02  0.7816164E-02  0.1226708E+00
        -11   -1    0    0    0    0  0.00000000000E+00  0.00000000000E+00  0.45593999997E+02  0.45594000000E+02  0.51100000000E-03 0.  1.
         11   -1    0    0    0    0 -0.00000000000E+00 -0.00000000000E+00 -0.45593999997E+02  0.45594000000E+02  0.51100000000E-03 0. -1.
    9900012    2    1    2    0    0 -0.11367355554E+02  0.91969321502E+01  0.11699470188E+02  0.72461603231E+02  0.70000042906E+02 0.  0.
         12    1    1    2    0    0  0.11367355554E+02 -0.91969321502E+01 -0.11699470188E+02  0.18726396769E+02  0.00000000000E+00 0. -1.
         11    1    3    3    0    0 -0.84577802111E+01 -0.23675134360E+02 -0.19836069594E+01  0.25218658368E+02  0.51100000000E-03 0. -1.
        -11    1    3    3    0    0 -0.98139161339E+01  0.18518720302E+01  0.11727171081E+02  0.15403536014E+02  0.51100000000E-03 0.  1.
         12    1    3    3    0    0  0.69043407907E+01  0.31020194480E+02  0.19559060664E+01  0.31839408849E+02  0.00000000000E+00 0. -1.
</event>
<event>
 7    1  0.2976321E-013  0.7246171E+02  0.7816164E-02  0.1226708E+00
        -11   -1    0    0    0    0  0.00000000000E+00  0.00000000000E+00  0.45593999997E+02  0.45594000000E+02  0.51100000000E-03 0.  1.
         11   -1    0    0    0    0 -0.00000000000E+00 -0.00000000000E+00 -0.45593999997E+02  0.45594000000E+02  0.51100000000E-03 0. -1.
    9900012    2    1    2    0    0  0.16435226719E+02 -0.89220914524E+01  0.97654269241E+00  0.72461707553E+02  0.70000178805E+02 0.  0.
         12    1    1    2    0    0 -0.16435226719E+02  0.89220914524E+01 -0.97654269241E+00  0.18726292447E+02  0.00000000000E+00 0. -1.
         11    1    3    3    0    0  0.99812414943E+01 -0.16304654003E+02  0.20143778835E+02  0.27771185605E+02  0.51100000000E-03 0. -1.
        -11    1    3    3    0    0  0.41089785491E+01  0.16736678480E+02  0.55930302688E+01  0.18118556761E+02  0.51100000000E-03 0.  1.
         12    1    3    3    0    0  0.23450066752E+01 -0.93541159297E+01 -0.24760266411E+02  0.26571965187E+02  0.00000000000E+00 0. -1.
</event>
<event>
 7    1  0.2976321E-013  0.7246171E+02  0.7816164E-02  0.1226708E+00
        -11   -1    0    0    0    0  0.00000000000E+00  0.00000000000E+00  0.45593999997E+02  0.45594000000E+02  0.51100000000E-03 0.  1.
         11   -1    0    0    0    0 -0.00000000000E+00 -0.00000000000E+00 -0.45593999997E+02  0.45594000000E+02  0.51100000000E-03 0. -1.
    9900012    2    1    2    0    0 -0.67150685237E+01  0.16222139701E+02  0.65133680102E+01  0.72461710336E+02  0.70000182430E+02 0.  0.
         12    1    1    2    0    0  0.67150685237E+01 -0.16222139701E+02 -0.65133680102E+01  0.18726289664E+02  0.00000000000E+00 0. -1.
         11    1    3    3    0    0 -0.39065358277E+01  0.73847022522E+00  0.60865347774E+01  0.72699564170E+01  0.51100000000E-03 0. -1.
        -11    1    3    3    0    0 -0.29150515412E+02 -0.67177462922E+01  0.53580314116E+01  0.30390609814E+02  0.51100000000E-03 0.  1.
         12    1    3    3    0    0  0.26341982716E+02  0.22201415768E+02 -0.49311981789E+01  0.34801144104E+02  0.00000000000E+00 0. -1.
</event>
<event>
 7    1  0.2976321E-013  0.7246155E+02  0.7816164E-02  0.1226708E+00
        -11   -1    0    0    0    0  0.00000000000E+00  0.00000000000E+00  0.45593999997E+02  0.45594000000E+02  0.51100000000E-03 0.  1.
         11   -1    0    0    0    0 -0.00000000000E+00 -0.00000000000E+00 -0.45593999997E+02  0.45594000000E+02  0.51100000000E-03 0. -1.
    9900012    2    1    2    0    0  0.14466143780E+02  0.11599312910E+02  0.26204063364E+01  0.72461550651E+02  0.69999974411E+02 0.  0.
         12    1    1    2    0    0 -0.14466143780E+02 -0.11599312910E+02 -0.26204063364E+01  0.18726449349E+02  0.00000000000E+00 0. -1.
         11    1    3    3    0    0  0.12512693934E+02  0.97225094519E+01 -0.95830141091E+01  0.18518338457E+02  0.51100000000E-03 0. -1.
        -11    1    3    3    0    0 -0.23087195793E+02 -0.18230405056E+01 -0.45323298756E+01  0.23598391908E+02  0.51100000000E-03 0.  1.
         12    1    3    3    0    0  0.25040645639E+02  0.36998439638E+01  0.16735750321E+02  0.30344820286E+02  0.00000000000E+00 0. -1.
</event>
<event>
 7    1  0.2976321E-013  0.7246127E+02  0.7816164E-02  0.1226709E+00
        -11   -1    0    0    0    0  0.00000000000E+00  0.00000000000E+00  0.45593999997E+02  0.45594000000E+02  0.51100000000E-03 0. -1.
         11   -1    0    0    0    0 -0.00000000000E+00 -0.00000000000E+00 -0.45593999997E+02  0.45594000000E+02  0.51100000000E-03 0.  1.
    9900012    2    1    2    0    0  0.13924443647E+02  0.84582446876E+01 -0.92335532107E+01  0.72461266730E+02  0.69999604550E+02 0.  0.
         12    1    1    2    0    0 -0.13924443647E+02 -0.84582446876E+01  0.92335532107E+01  0.18726733270E+02  0.00000000000E+00 0. -1.
         11    1    3    3    0    0  0.20973098150E+02  0.97483419233E+01 -0.21274408254E+02  0.31424536004E+02  0.51100000000E-03 0. -1.
        -11    1    3    3    0    0 -0.15196827340E+01 -0.10257125941E+02 -0.11355889574E+02  0.15377720782E+02  0.51100000000E-03 0.  1.
         12    1    3    3    0    0 -0.55289717697E+01  0.89670287051E+01  0.23396744617E+02  0.25659009944E+02  0.00000000000E+00 0. -1.
</event>
<event>
 7    1  0.2976321E-013  0.7246158E+02  0.7816164E-02  0.1226708E+00
        -11   -1    0    0    0    0  0.00000000000E+00  0.00000000000E+00  0.45593999997E+02  0.45594000000E+02  0.51100000000E-03 0.  1.
         11   -1    0    0    0    0 -0.00000000000E+00 -0.00000000000E+00 -0.45593999997E+02  0.45594000000E+02  0.51100000000E-03 0. -1.
    9900012    2    1    2    0    0  0.13366188676E+02 -0.57464098040E+01  0.11789942990E+02  0.72461575326E+02  0.70000006554E+02 0.  0.
         12    1    1    2    0    0 -0.13366188676E+02  0.57464098040E+01 -0.11789942990E+02  0.18726424674E+02  0.00000000000E+00 0. -1.
         11    1    3    3    0    0  0.53427376903E+01 -0.17989453604E+02 -0.21036710264E+02  0.28190574063E+02  0.51100000000E-03 0. -1.
        -11    1    3    3    0    0 -0.67334428972E+01  0.61299706033E+01  0.16687956910E+01  0.92574657529E+01  0.51100000000E-03 0.  1.
        -12    1    3    3    0    0  0.14756893883E+02  0.61130731967E+01  0.31157857563E+02  0.35013535510E+02  0.00000000000E+00 0.  1.
</event>
<event>
 7    1  0.2976321E-013  0.7246156E+02  0.7816164E-02  0.1226708E+00
        -11   -1    0    0    0    0  0.00000000000E+00  0.00000000000E+00  0.45593999997E+02  0.45594000000E+02  0.51100000000E-03 0.  1.
         11   -1    0    0    0    0 -0.00000000000E+00 -0.00000000000E+00 -0.45593999997E+02  0.45594000000E+02  0.51100000000E-03 0. -1.
    9900012    2    1    2    0    0  0.81320111023E+01 -0.15784703870E+02 -0.59492028705E+01  0.72461561587E+02  0.69999988657E+02 0.  0.
         12    1    1    2    0    0 -0.81320111023E+01  0.15784703870E+02  0.59492028705E+01  0.18726438413E+02  0.00000000000E+00 0. -1.
         11    1    3    3    0    0  0.14248082160E+02  0.81821855725E-01 -0.86671317442E+01  0.16677341305E+02  0.51100000000E-03 0. -1.
        -11    1    3    3    0    0  0.19066066195E+02 -0.16784516289E+02 -0.10313291695E+02  0.27415303264E+02  0.51100000000E-03 0.  1.
         12    1    3    3    0    0 -0.25182137253E+02  0.91799056255E+00  0.13031220569E+02  0.28368917018E+02  0.00000000000E+00 0. -1.
</event>
<event>
 7    1  0.2976321E-013  0.7246158E+02  0.7816164E-02  0.1226708E+00
        -11   -1    0    0    0    0  0.00000000000E+00  0.00000000000E+00  0.45593999997E+02  0.45594000000E+02  0.51100000000E-03 0. -1.
         11   -1    0    0    0    0 -0.00000000000E+00 -0.00000000000E+00 -0.45593999997E+02  0.45594000000E+02  0.51100000000E-03 0.  1.
    9900012    2    1    2    0    0 -0.11433041715E+02 -0.11003863174E+02 -0.99438106219E+01  0.72461579699E+02  0.70000012251E+02 0.  0.
         12    1    1    2    0    0  0.11433041715E+02  0.11003863174E+02  0.99438106219E+01  0.18726420301E+02  0.00000000000E+00 0. -1.
         11    1    3    3    0    0 -0.13990755387E+02 -0.63578232001E+01 -0.91692009744E+01  0.17895178091E+02  0.51100000000E-03 0. -1.
        -11    1    3    3    0    0  0.54839903985E+01 -0.11268945695E+02 -0.25709553100E+02  0.28601475637E+02  0.51100000000E-03 0.  1.
         12    1    3    3    0    0 -0.29262767263E+01  0.66229057208E+01  0.24934943452E+02  0.25964925970E+02  0.00000000000E+00 0. -1.
</event>
<event>
 7    1  0.2976321E-013  0.7246163E+02  0.7816164E-02  0.1226708E+00
        -11   -1    0    0    0    0  0.00000000000E+00  0.00000000000E+00  0.45593999997E+02  0.45594000000E+02  0.51100000000E-03 0.  1.
         11   -1    0    0    0    0 -0.00000000000E+00 -0.00000000000E+00 -0.45593999997E+02  0.45594000000E+02  0.51100000000E-03 0. -1.
    9900012    2    1    2    0    0  0.41549131027E+01  0.18253836602E+02  0.45948658796E+00  0.72461628715E+02  0.70000076103E+02 0.  0.
         12    1    1    2    0    0 -0.41549131027E+01 -0.18253836602E+02 -0.45948658796E+00  0.18726371285E+02  0.00000000000E+00 0. -1.
         11    1    3    3    0    0 -0.22374503890E+02  0.12746070712E+02 -0.69370070058E+01  0.26668385953E+02  0.51100000000E-03 0. -1.
        -11    1    3    3    0    0  0.17149981533E+00 -0.72816499175E+01  0.13981892719E+02  0.15765315156E+02  0.51100000000E-03 0.  1.
        -12    1    3    3    0    0  0.26357917177E+02  0.12789415808E+02 -0.65853991253E+01  0.30027927605E+02  0.00000000000E+00 0.  1.
</event>
<event>
 7    1  0.2976321E-013  0.7246155E+02  0.7816164E-02  0.1226708E+00
        -11   -1    0    0    0    0  0.00000000000E+00  0.00000000000E+00  0.45593999997E+02  0.45594000000E+02  0.51100000000E-03 0. -1.
         11   -1    0    0    0    0 -0.00000000000E+00 -0.00000000000E+00 -0.45593999997E+02  0.45594000000E+02  0.51100000000E-03 0.  1.
    9900012    2    1    2    0    0 -0.16903386787E+01 -0.16071441854E+02 -0.94621083876E+01  0.72461548567E+02  0.69999971696E+02 0.  0.
         12    1    1    2    0    0  0.16903386787E+01  0.16071441854E+02  0.94621083876E+01  0.18726451433E+02  0.00000000000E+00 0. -1.
         11    1    3    3    0    0  0.17287634230E+01 -0.28697047230E+02 -0.23600025648E+01  0.28845775341E+02  0.51100000000E-03 0. -1.
        -11    1    3    3    0    0 -0.32891269904E+01 -0.53819762772E-01 -0.23026150323E+02  0.23259940926E+02  0.51100000000E-03 0.  1.
         12    1    3    3    0    0 -0.12997511127E+00  0.12679425138E+02  0.15924044500E+02  0.20355832300E+02  0.00000000000E+00 0. -1.
</event>
<event>
 7    1  0.2976321E-013  0.7246158E+02  0.7816164E-02  0.1226708E+00
        -11   -1    0    0    0    0  0.00000000000E+00  0.00000000000E+00  0.45593999997E+02  0.45594000000E+02  0.51100000000E-03 0. -1.
         11   -1    0    0    0    0 -0.00000000000E+00 -0.00000000000E+00 -0.45593999997E+02  0.45594000000E+02  0.51100000000E-03 0.  1.
    9900012    2    1    2    0    0 -0.94163399588E+00 -0.18058116818E+02 -0.48679035410E+01  0.72461581697E+02  0.70000014854E+02 0.  0.
         12    1    1    2    0    0  0.94163399588E+00  0.18058116818E+02  0.48679035410E+01  0.18726418303E+02  0.00000000000E+00 0. -1.
         11    1    3    3    0    0 -0.35474274614E+01 -0.18754243740E+02  0.20499689877E+01  0.19196569302E+02  0.51100000000E-03 0. -1.
        -11    1    3    3    0    0  0.17331723822E+01 -0.25805779688E+02 -0.10815486607E-01  0.25863918284E+02  0.51100000000E-03 0.  1.
        -12    1    3    3    0    0  0.87262108338E+00  0.26501906609E+02 -0.69070570422E+01  0.27401094111E+02  0.00000000000E+00 0.  1.
</event>
<event>
 7    1  0.2976321E-013  0.7246157E+02  0.7816164E-02  0.1226708E+00
        -11   -1    0    0    0    0  0.00000000000E+00  0.00000000000E+00  0.45593999997E+02  0.45594000000E+02  0.51100000000E-03 0.  1.
         11   -1    0    0    0    0 -0.00000000000E+00 -0.00000000000E+00 -0.45593999997E+02  0.45594000000E+02  0.51100000000E-03 0. -1.
    9900012    2    1    2    0    0  0.16497321877E+02 -0.82975972493E+01  0.31092650384E+01  0.72461567390E+02  0.69999996216E+02 0.  0.
         12    1    1    2    0    0 -0.16497321877E+02  0.82975972493E+01 -0.31092650384E+01  0.18726432610E+02  0.00000000000E+00 0. -1.
         11    1    3    3    0    0  0.13998217110E+02 -0.31520985105E+01  0.17849913201E+01  0.14459322306E+02  0.51100000000E-03 0. -1.
        -11    1    3    3    0    0  0.93811380562E+01 -0.12662699911E+02  0.26505618639E+02  0.30836626598E+02  0.51100000000E-03 0.  1.
         12    1    3    3    0    0 -0.68820332895E+01  0.75172011723E+01 -0.25181344921E+02  0.27165618485E+02  0.00000000000E+00 0. -1.
</event>
<event>
 7    1  0.2976321E-013  0.7246188E+02  0.7816164E-02  0.1226707E+00
        -11   -1    0    0    0    0  0.00000000000E+00  0.00000000000E+00  0.45593999997E+02  0.45594000000E+02  0.51100000000E-03 0. -1.
         11   -1    0    0    0    0 -0.00000000000E+00 -0.00000000000E+00 -0.45593999997E+02  0.45594000000E+02  0.51100000000E-03 0.  1.
    9900012    2    1    2    0    0 -0.85904750704E+01  0.73014391088E+01  0.14951928059E+02  0.72461883807E+02  0.70000408407E+02 0.  0.
         12    1    1    2    0    0  0.85904750704E+01 -0.73014391088E+01 -0.14951928059E+02  0.18726116193E+02  0.00000000000E+00 0. -1.
         11    1    3    3    0    0 -0.33909366252E+01  0.11016646038E+02  0.35952326465E+02  0.37754929739E+02  0.51100000000E-03 0. -1.
        -11    1    3    3    0    0  0.81821617562E+01 -0.16534447752E+01  0.14667323538E+01  0.84754324189E+01  0.51100000000E-03 0.  1.
        -12    1    3    3    0    0 -0.13381700201E+02 -0.20617621540E+01 -0.22467130759E+02  0.26231521649E+02  0.00000000000E+00 0.  1.
</event>
<event>
 7    1  0.2976321E-013  0.7246162E+02  0.7816164E-02  0.1226708E+00
        -11   -1    0    0    0    0  0.00000000000E+00  0.00000000000E+00  0.45593999997E+02  0.45594000000E+02  0.51100000000E-03 0.  1.
         11   -1    0    0    0    0 -0.00000000000E+00 -0.00000000000E+00 -0.45593999997E+02  0.45594000000E+02  0.51100000000E-03 0. -1.
    9900012    2    1    2    0    0 -0.11377853306E+02  0.13285608134E+02  0.66868769757E+01  0.72461621465E+02  0.70000066660E+02 0.  0.
         12    1    1    2    0    0  0.11377853306E+02 -0.13285608134E+02 -0.66868769757E+01  0.18726378535E+02  0.00000000000E+00 0. -1.
         11    1    3    3    0    0  0.79673414063E+01 -0.34896237485E+01  0.34361628484E+01  0.93521771996E+01  0.51100000000E-03 0. -1.
        -11    1    3    3    0    0 -0.19375209757E+02  0.14494504167E+02  0.28710853644E+02  0.37547337075E+02  0.51100000000E-03 0.  1.
         12    1    3    3    0    0  0.30015044752E-01  0.22807277156E+01 -0.25460139517E+02  0.25562107191E+02  0.00000000000E+00 0. -1.
</event>
<event>
 7    1  0.2976321E-013  0.7246154E+02  0.7816164E-02  0.1226708E+00
        -11   -1    0    0    0    0  0.00000000000E+00  0.00000000000E+00  0.45593999997E+02  0.45594000000E+02  0.51100000000E-03 0.  1.
         11   -1    0    0    0    0 -0.00000000000E+00 -0.00000000000E+00 -0.45593999997E+02  0.45594000000E+02  0.51100000000E-03 0. -1.
    9900012    2    1    2    0    0 -0.69492683485E+00  0.12228339873E+02  0.14165632047E+02  0.72461538758E+02  0.69999958918E+02 0.  0.
         12    1    1    2    0    0  0.69492683485E+00 -0.12228339873E+02 -0.14165632047E+02  0.18726461242E+02  0.00000000000E+00 0. -1.
         11    1    3    3    0    0  0.14573562249E+02  0.27593937306E+02  0.59611919027E+01  0.31770267576E+02  0.51100000000E-03 0. -1.
        -11    1    3    3    0    0 -0.36454170089E+01  0.10684441290E+02  0.31610982429E+01  0.11723433508E+02  0.51100000000E-03 0.  1.
        -12    1    3    3    0    0 -0.11623072075E+02 -0.26050038724E+02  0.50433419015E+01  0.28967837674E+02  0.00000000000E+00 0.  1.
</event>
<event>
 7    1  0.2976321E-013  0.7246155E+02  0.7816164E-02  0.1226708E+00
        -11   -1    0    0    0    0  0.00000000000E+00  0.00000000000E+00  0.45593999997E+02  0.45594000000E+02  0.51100000000E-03 0. -1.
         11   -1    0    0    0    0 -0.00000000000E+00 -0.00000000000E+00 -0.45593999997E+02  0.45594000000E+02  0.51100000000E-03 0.  1.
    9900012    2    1    2    0    0  0.18134326128E+02 -0.33862181971E+01  0.32186731636E+01  0.72461545057E+02  0.69999967124E+02 0.  0.
         12    1    1    2    0    0 -0.18134326128E+02  0.33862181971E+01 -0.32186731636E+01  0.18726454943E+02  0.00000000000E+00 0. -1.
         11    1    3    3    0    0 -0.14032902198E+02 -0.11686762204E+02  0.74032692374E+01  0.19705612159E+02  0.51100000000E-03 0. -1.
        -11    1    3    3    0    0 -0.54403758265E+01  0.10571857252E+02  0.65579277647E+01  0.13578227857E+02  0.51100000000E-03 0.  1.
        -12    1    3    3    0    0  0.37607604152E+02 -0.22713132452E+01 -0.10742523839E+02  0.39177705042E+02  0.00000000000E+00 0.  1.
</event>
<event>
 7    1  0.2976321E-013  0.7246158E+02  0.7816164E-02  0.1226708E+00
        -11   -1    0    0    0    0  0.00000000000E+00  0.00000000000E+00  0.45593999997E+02  0.45594000000E+02  0.51100000000E-03 0. -1.
         11   -1    0    0    0    0 -0.00000000000E+00 -0.00000000000E+00 -0.45593999997E+02  0.45594000000E+02  0.51100000000E-03 0.  1.
    9900012    2    1    2    0    0  0.17324861626E+02  0.43072982173E+01 -0.56546736776E+01  0.72461575282E+02  0.70000006498E+02 0.  0.
         12    1    1    2    0    0 -0.17324861626E+02 -0.43072982173E+01  0.56546736776E+01  0.18726424718E+02  0.00000000000E+00 0. -1.
         11    1    3    3    0    0  0.38265162751E+01  0.12142563929E+02  0.74769033444E+01  0.14764422422E+02  0.51100000000E-03 0. -1.
        -11    1    3    3    0    0  0.87375933214E+01  0.22952544439E+02 -0.94988335956E+01  0.26332350317E+02  0.51100000000E-03 0.  1.
         12    1    3    3    0    0  0.47607520298E+01 -0.30787810151E+02 -0.36327434265E+01  0.31364802543E+02  0.00000000000E+00 0. -1.
</event>
<event>
 7    1  0.2976321E-013  0.7246162E+02  0.7816164E-02  0.1226708E+00
        -11   -1    0    0    0    0  0.00000000000E+00  0.00000000000E+00  0.45593999997E+02  0.45594000000E+02  0.51100000000E-03 0.  1.
         11   -1    0    0    0    0 -0.00000000000E+00 -0.00000000000E+00 -0.45593999997E+02  0.45594000000E+02  0.51100000000E-03 0. -1.
    9900012    2    1    2    0    0 -0.11553183233E+02  0.11049263831E+01  0.14696266768E+02  0.72461623895E+02  0.70000069824E+02 0.  0.
         12    1    1    2    0    0  0.11553183233E+02 -0.11049263831E+01 -0.14696266768E+02  0.18726376105E+02  0.00000000000E+00 0. -1.
         11    1    3    3    0    0 -0.75966764480E+01 -0.10139587427E+02  0.10981245874E+01  0.12717177522E+02  0.51100000000E-03 0. -1.
        -11    1    3    3    0    0 -0.21406069651E+02 -0.14400750855E+01  0.26894186933E+02  0.34403356307E+02  0.51100000000E-03 0.  1.
         12    1    3    3    0    0  0.17449562867E+02  0.12684588896E+02 -0.13296044752E+02  0.25341090066E+02  0.00000000000E+00 0. -1.
</event>
<event>
 7    1  0.2976321E-013  0.7246160E+02  0.7816164E-02  0.1226708E+00
        -11   -1    0    0    0    0  0.00000000000E+00  0.00000000000E+00  0.45593999997E+02  0.45594000000E+02  0.51100000000E-03 0.  1.
         11   -1    0    0    0    0 -0.00000000000E+00 -0.00000000000E+00 -0.45593999997E+02  0.45594000000E+02  0.51100000000E-03 0. -1.
    9900012    2    1    2    0    0  0.48378782260E+01 -0.23591525648E+01  0.17936205328E+02  0.72461598100E+02  0.70000036223E+02 0.  0.
         12    1    1    2    0    0 -0.48378782260E+01  0.23591525648E+01 -0.17936205328E+02  0.18726401900E+02  0.00000000000E+00 0. -1.
         11    1    3    3    0    0 -0.58613111447E+00  0.45302304455E+01 -0.16310529858E+01  0.48504506673E+01  0.51100000000E-03 0. -1.
        -11    1    3    3    0    0 -0.21050269201E+02  0.39941554463E+01 -0.12356689541E+02  0.24733679221E+02  0.51100000000E-03 0.  1.
        -12    1    3    3    0    0  0.26474278541E+02 -0.10883538457E+02  0.31923947855E+02  0.42877468212E+02  0.00000000000E+00 0.  1.
</event>
<event>
 7    1  0.2976321E-013  0.7246154E+02  0.7816164E-02  0.1226708E+00
        -11   -1    0    0    0    0  0.00000000000E+00  0.00000000000E+00  0.45593999997E+02  0.45594000000E+02  0.51100000000E-03 0.  1.
         11   -1    0    0    0    0 -0.00000000000E+00 -0.00000000000E+00 -0.45593999997E+02  0.45594000000E+02  0.51100000000E-03 0. -1.
    9900012    2    1    2    0    0 -0.69059398777E+01 -0.17401821324E+02  0.40588912703E+00  0.72461544464E+02  0.69999966351E+02 0.  0.
         12    1    1    2    0    0  0.69059398777E+01  0.17401821324E+02 -0.40588912703E+00  0.18726455536E+02  0.00000000000E+00 0. -1.
         11    1    3    3    0    0  0.11175033860E+02 -0.30484601652E+02  0.66973957271E+01  0.33151884252E+02  0.51100000000E-03 0. -1.
        -11    1    3    3    0    0  0.11231274149E+01  0.21723546723E+01 -0.15272141526E+02  0.15466701235E+02  0.51100000000E-03 0.  1.
        -12    1    3    3    0    0 -0.19204101153E+02  0.10910425657E+02  0.89806349264E+01  0.23842958977E+02  0.00000000000E+00 0.  1.
</event>
<event>
 7    1  0.2976321E-013  0.7246163E+02  0.7816164E-02  0.1226708E+00
        -11   -1    0    0    0    0  0.00000000000E+00  0.00000000000E+00  0.45593999997E+02  0.45594000000E+02  0.51100000000E-03 0.  1.
         11   -1    0    0    0    0 -0.00000000000E+00 -0.00000000000E+00 -0.45593999997E+02  0.45594000000E+02  0.51100000000E-03 0. -1.
    9900012    2    1    2    0    0 -0.61944244632E+01  0.17508570988E+02 -0.23991337510E+01  0.72461633688E+02  0.70000082582E+02 0.  0.
         12    1    1    2    0    0  0.61944244632E+01 -0.17508570988E+02  0.23991337510E+01  0.18726366312E+02  0.00000000000E+00 0. -1.
         11    1    3    3    0    0  0.71413852382E+01  0.56274578462E+00 -0.10993749436E+02  0.13121684071E+02  0.51100000000E-03 0. -1.
        -11    1    3    3    0    0  0.89328877288E+01  0.30968952262E+02  0.69504180726E+01  0.32972424828E+02  0.51100000000E-03 0.  1.
        -12    1    3    3    0    0 -0.22268697430E+02 -0.14023127058E+02  0.16441976123E+01  0.26367524789E+02  0.00000000000E+00 0.  1.
</event>
<event>
 7    1  0.2976321E-013  0.7246157E+02  0.7816164E-02  0.1226708E+00
        -11   -1    0    0    0    0  0.00000000000E+00  0.00000000000E+00  0.45593999997E+02  0.45594000000E+02  0.51100000000E-03 0. -1.
         11   -1    0    0    0    0 -0.00000000000E+00 -0.00000000000E+00 -0.45593999997E+02  0.45594000000E+02  0.51100000000E-03 0.  1.
    9900012    2    1    2    0    0 -0.33265042748E+01 -0.15693792975E+02 -0.96601389591E+01  0.72461573397E+02  0.70000004041E+02 0.  0.
         12    1    1    2    0    0  0.33265042748E+01  0.15693792975E+02  0.96601389591E+01  0.18726426603E+02  0.00000000000E+00 0. -1.
         11    1    3    3    0    0  0.16999405029E+02 -0.12412297785E+02 -0.18851401599E+02  0.28256331151E+02  0.51100000000E-03 0. -1.
        -11    1    3    3    0    0 -0.25141681888E+02 -0.13486063104E+02 -0.16224320897E+01  0.28576395020E+02  0.51100000000E-03 0.  1.
         12    1    3    3    0    0  0.48157725846E+01  0.10204567914E+02  0.10813694729E+02  0.15628847225E+02  0.00000000000E+00 0. -1.
</event>
<event>
 7    1  0.2976321E-013  0.7246166E+02  0.7816164E-02  0.1226708E+00
        -11   -1    0    0    0    0  0.00000000000E+00  0.00000000000E+00  0.45593999997E+02  0.45594000000E+02  0.51100000000E-03 0. -1.
         11   -1    0    0    0    0 -0.00000000000E+00 -0.00000000000E+00 -0.45593999997E+02  0.45594000000E+02  0.51100000000E-03 0.  1.
    9900012    2    1    2    0    0 -0.11487671912E+02  0.88171393710E+01  0.11872970300E+02  0.72461655552E+02  0.70000111064E+02 0.  0.
         12    1    1    2    0    0  0.11487671912E+02 -0.88171393710E+01 -0.11872970300E+02  0.18726344448E+02  0.00000000000E+00 0. -1.
         11    1    3    3    0    0  0.24540741759E+02  0.41862909359E+01  0.22339945346E+01  0.24995274948E+02  0.51100000000E-03 0. -1.
        -11    1    3    3    0    0 -0.10828437545E+02  0.10128904819E+02 -0.73822903204E+01  0.16563453237E+02  0.51100000000E-03 0.  1.
        -12    1    3    3    0    0 -0.25199976125E+02 -0.54980563837E+01  0.17021266085E+02  0.30902927367E+02  0.00000000000E+00 0.  1.
</event>
<event>
 7    1  0.2976321E-013  0.7246161E+02  0.7816164E-02  0.1226708E+00
        -11   -1    0    0    0    0  0.00000000000E+00  0.00000000000E+00  0.45593999997E+02  0.45594000000E+02  0.51100000000E-03 0.  1.
         11   -1    0    0    0    0 -0.00000000000E+00 -0.00000000000E+00 -0.45593999997E+02  0.45594000000E+02  0.51100000000E-03 0. -1.
    9900012    2    1    2    0    0  0.10596171121E+02  0.14874356225E+02 -0.41415590530E+01  0.72461606142E+02  0.70000046698E+02 0.  0.
         12    1    1    2    0    0 -0.10596171121E+02 -0.14874356225E+02  0.41415590530E+01  0.18726393858E+02  0.00000000000E+00 0. -1.
         11    1    3    3    0    0 -0.12066376716E+02 -0.10918362928E+02 -0.21530795036E+02  0.26988575939E+02  0.51100000000E-03 0. -1.
        -11    1    3    3    0    0  0.79015605347E+01 -0.33281153478E+01  0.20008150110E+00  0.85761905016E+01  0.51100000000E-03 0.  1.
        -12    1    3    3    0    0  0.14760987303E+02  0.29120834500E+02  0.17189154482E+02  0.36896839701E+02  0.00000000000E+00 0.  1.
</event>
<event>
 7    1  0.2976321E-013  0.7246168E+02  0.7816164E-02  0.1226708E+00
        -11   -1    0    0    0    0  0.00000000000E+00  0.00000000000E+00  0.45593999997E+02  0.45594000000E+02  0.51100000000E-03 0. -1.
         11   -1    0    0    0    0 -0.00000000000E+00 -0.00000000000E+00 -0.45593999997E+02  0.45594000000E+02  0.51100000000E-03 0.  1.
    9900012    2    1    2    0    0  0.97386728588E+01 -0.12492683717E+02  0.99882992561E+01  0.72461681154E+02  0.70000144415E+02 0.  0.
         12    1    1    2    0    0 -0.97386728588E+01  0.12492683717E+02 -0.99882992561E+01  0.18726318846E+02  0.00000000000E+00 0. -1.
         11    1    3    3    0    0 -0.15434145125E+01 -0.44665942851E+01 -0.46186982203E+00  0.47482540854E+01  0.51100000000E-03 0. -1.
        -11    1    3    3    0    0 -0.18529456885E+02 -0.58769780914E+01 -0.17967782895E+02  0.26471132699E+02  0.51100000000E-03 0.  1.
         12    1    3    3    0    0  0.29811544256E+02 -0.21491113405E+01  0.28417951973E+02  0.41242294369E+02  0.00000000000E+00 0. -1.
</event>
<event>
 7    1  0.2976321E-013  0.7246156E+02  0.7816164E-02  0.1226708E+00
        -11   -1    0    0    0    0  0.00000000000E+00  0.00000000000E+00  0.45593999997E+02  0.45594000000E+02  0.51100000000E-03 0. -1.
         11   -1    0    0    0    0 -0.00000000000E+00 -0.00000000000E+00 -0.45593999997E+02  0.45594000000E+02  0.51100000000E-03 0.  1.
    9900012    2    1    2    0    0  0.99463069937E+01 -0.54740456974E+01 -0.14892464970E+02  0.72461555810E+02  0.69999981131E+02 0.  0.
         12    1    1    2    0    0 -0.99463069937E+01  0.54740456974E+01  0.14892464970E+02  0.18726444190E+02  0.00000000000E+00 0. -1.
         11    1    3    3    0    0  0.80717995810E+00  0.10545083630E+01  0.57437915580E+01  0.58953090755E+01  0.51100000000E-03 0. -1.
        -11    1    3    3    0    0 -0.12148587890E+02 -0.27561562566E+02  0.16578739932E+00  0.30120680679E+02  0.51100000000E-03 0.  1.
        -12    1    3    3    0    0  0.21287714926E+02  0.21033008506E+02 -0.20802043928E+02  0.36445566056E+02  0.00000000000E+00 0.  1.
</event>
<event>
 7    1  0.2976321E-013  0.7246162E+02  0.7816164E-02  0.1226708E+00
        -11   -1    0    0    0    0  0.00000000000E+00  0.00000000000E+00  0.45593999997E+02  0.45594000000E+02  0.51100000000E-03 0.  1.
         11   -1    0    0    0    0 -0.00000000000E+00 -0.00000000000E+00 -0.45593999997E+02  0.45594000000E+02  0.51100000000E-03 0. -1.
    9900012    2    1    2    0    0  0.11230342620E+02  0.49503088253E+00  0.14977033445E+02  0.72461623369E+02  0.70000069139E+02 0.  0.
         12    1    1    2    0    0 -0.11230342620E+02 -0.49503088253E+00 -0.14977033445E+02  0.18726376631E+02  0.00000000000E+00 0. -1.
         11    1    3    3    0    0  0.29102678566E+02  0.13204629583E+02  0.40770827995E+01  0.32217243000E+02  0.51100000000E-03 0. -1.
        -11    1    3    3    0    0  0.42288520781E+01  0.53634762351E+01 -0.41281852734E+01  0.79807256021E+01  0.51100000000E-03 0.  1.
        -12    1    3    3    0    0 -0.22101188024E+02 -0.18073074936E+02  0.15028135918E+02  0.32263654766E+02  0.00000000000E+00 0.  1.
</event>
<event>
 7    1  0.2976321E-013  0.7246140E+02  0.7816164E-02  0.1226708E+00
        -11   -1    0    0    0    0  0.00000000000E+00  0.00000000000E+00  0.45593999997E+02  0.45594000000E+02  0.51100000000E-03 0. -1.
         11   -1    0    0    0    0 -0.00000000000E+00 -0.00000000000E+00 -0.45593999997E+02  0.45594000000E+02  0.51100000000E-03 0.  1.
    9900012    2    1    2    0    0 -0.14910182445E+02  0.11217416584E+02  0.15942340387E+01  0.72461399733E+02  0.69999777812E+02 0.  0.
         12    1    1    2    0    0  0.14910182445E+02 -0.11217416584E+02 -0.15942340387E+01  0.18726600267E+02  0.00000000000E+00 0. -1.
         11    1    3    3    0    0  0.95980237912E+01  0.17139719131E+02  0.78960722914E+01  0.21171678972E+02  0.51100000000E-03 0. -1.
        -11    1    3    3    0    0 -0.19774407391E+01  0.21540624912E+01 -0.22306377266E+02  0.22497215918E+02  0.51100000000E-03 0.  1.
        -12    1    3    3    0    0 -0.22530765497E+02 -0.80763650383E+01  0.16004539013E+02  0.28792504843E+02  0.00000000000E+00 0.  1.
</event>
<event>
 7    1  0.3460783E-013  0.7246145E+02  0.7816164E-02  0.1226708E+00
        -11   -1    0    0    0    0  0.00000000000E+00  0.00000000000E+00  0.45593999997E+02  0.45594000000E+02  0.51100000000E-03 0. -1.
         11   -1    0    0    0    0 -0.00000000000E+00 -0.00000000000E+00 -0.45593999997E+02  0.45594000000E+02  0.51100000000E-03 0.  1.
    9900012    2    1    2    0    0  0.15576859238E+02 -0.47898324445E+01 -0.92251036930E+01  0.72461452621E+02  0.69999846709E+02 0.  0.
         12    1    1    2    0    0 -0.15576859238E+02  0.47898324445E+01  0.92251036930E+01  0.18726547379E+02  0.00000000000E+00 0. -1.
         11    1    3    3    0    0  0.26090545792E+01  0.20823659520E+02  0.49239423008E+00  0.20992246520E+02  0.51100000000E-03 0. -1.
        -11    1    3    3    0    0  0.95313889362E+01  0.95778938345E+01 -0.87484354870E+01  0.16097159659E+02  0.51100000000E-03 0.  1.
        -12    1    3    3    0    0  0.34364157228E+01 -0.35191385799E+02 -0.96906243612E+00  0.35372046442E+02  0.00000000000E+00 0.  1.
</event>
<event>
 7    1  0.2976321E-013  0.7246165E+02  0.7816164E-02  0.1226708E+00
        -11   -1    0    0    0    0  0.00000000000E+00  0.00000000000E+00  0.45593999997E+02  0.45594000000E+02  0.51100000000E-03 0.  1.
         11   -1    0    0    0    0 -0.00000000000E+00 -0.00000000000E+00 -0.45593999997E+02  0.45594000000E+02  0.51100000000E-03 0. -1.
    9900012    2    1    2    0    0  0.46012525744E+01  0.24934023134E+01  0.17980200730E+02  0.72461649617E+02  0.70000103333E+02 0.  0.
         12    1    1    2    0    0 -0.46012525744E+01 -0.24934023134E+01 -0.17980200730E+02  0.18726350383E+02  0.00000000000E+00 0. -1.
         11    1    3    3    0    0  0.87683083193E+01 -0.15356128647E+02  0.22999354589E+01  0.17832095255E+02  0.51100000000E-03 0. -1.
        -11    1    3    3    0    0 -0.13295265830E+01  0.54408287928E+01  0.32811973701E+02  0.33286572027E+02  0.51100000000E-03 0.  1.
         12    1    3    3    0    0 -0.28375291619E+01  0.12408702168E+02 -0.17131708430E+02  0.21342982335E+02  0.00000000000E+00 0. -1.
</event>
<event>
 7    1  0.3357492E-013  0.7246152E+02  0.7816164E-02  0.1226708E+00
        -11   -1    0    0    0    0  0.00000000000E+00  0.00000000000E+00  0.45593999997E+02  0.45594000000E+02  0.51100000000E-03 0. -1.
         11   -1    0    0    0    0 -0.00000000000E+00 -0.00000000000E+00 -0.45593999997E+02  0.45594000000E+02  0.51100000000E-03 0.  1.
    9900012    2    1    2    0    0  0.37469358999E+01  0.25663149763E+01 -0.18167432333E+02  0.72461518783E+02  0.69999932897E+02 0.  0.
         12    1    1    2    0    0 -0.37469358999E+01 -0.25663149763E+01  0.18167432333E+02  0.18726481217E+02  0.00000000000E+00 0. -1.
         11    1    3    3    0    0 -0.22782715099E+02  0.28931348978E+01  0.91531566151E+01  0.24722512273E+02  0.51100000000E-03 0.  1.
        -11    1    3    3    0    0 -0.52204722854E+01  0.39850887128E+01 -0.78916848376E+01  0.10267081025E+02  0.51100000000E-03 0. -1.
        -12    1    3    3    0    0  0.31750123285E+02 -0.43119086343E+01 -0.19428904110E+02  0.37471925485E+02  0.00000000000E+00 0.  1.
</event>
<event>
 7    1  0.2976321E-013  0.7246152E+02  0.7816164E-02  0.1226708E+00
        -11   -1    0    0    0    0  0.00000000000E+00  0.00000000000E+00  0.45593999997E+02  0.45594000000E+02  0.51100000000E-03 0. -1.
         11   -1    0    0    0    0 -0.00000000000E+00 -0.00000000000E+00 -0.45593999997E+02  0.45594000000E+02  0.51100000000E-03 0.  1.
    9900012    2    1    2    0    0 -0.17392014036E+02  0.12055295645E+01  0.68370740875E+01  0.72461520463E+02  0.69999935086E+02 0.  0.
         12    1    1    2    0    0  0.17392014036E+02 -0.12055295645E+01 -0.68370740875E+01  0.18726479537E+02  0.00000000000E+00 0. -1.
         11    1    3    3    0    0  0.13657322955E+02 -0.15027486140E+02 -0.16123995092E+01  0.20370263681E+02  0.51100000000E-03 0. -1.
        -11    1    3    3    0    0 -0.44321607940E+01 -0.45188640587E+01  0.16259980753E+02  0.17448528764E+02  0.51100000000E-03 0.  1.
        -12    1    3    3    0    0 -0.26617176197E+02  0.20751879764E+02 -0.78105071566E+01  0.34642728017E+02  0.00000000000E+00 0.  1.
</event>
<event>
 7    1  0.2976321E-013  0.7246155E+02  0.7816164E-02  0.1226708E+00
        -11   -1    0    0    0    0  0.00000000000E+00  0.00000000000E+00  0.45593999997E+02  0.45594000000E+02  0.51100000000E-03 0.  1.
         11   -1    0    0    0    0 -0.00000000000E+00 -0.00000000000E+00 -0.45593999997E+02  0.45594000000E+02  0.51100000000E-03 0. -1.
    9900012    2    1    2    0    0  0.10676990622E+02  0.46978680726E+01  0.14649640894E+02  0.72461546211E+02  0.69999968627E+02 0.  0.
         12    1    1    2    0    0 -0.10676990622E+02 -0.46978680726E+01 -0.14649640894E+02  0.18726453789E+02  0.00000000000E+00 0. -1.
         11    1    3    3    0    0 -0.17436742111E+02  0.73379081032E+01 -0.11680811278E+02  0.22233448296E+02  0.51100000000E-03 0. -1.
        -11    1    3    3    0    0  0.24281690682E+02  0.35238885954E+01  0.17498960009E+01  0.24598382659E+02  0.51100000000E-03 0.  1.
        -12    1    3    3    0    0  0.38320420517E+01 -0.61639286260E+01  0.24580556171E+02  0.25629715256E+02  0.00000000000E+00 0.  1.
</event>
<event>
 7    1  0.2976321E-013  0.7246159E+02  0.7816164E-02  0.1226708E+00
        -11   -1    0    0    0    0  0.00000000000E+00  0.00000000000E+00  0.45593999997E+02  0.45594000000E+02  0.51100000000E-03 0.  1.
         11   -1    0    0    0    0 -0.00000000000E+00 -0.00000000000E+00 -0.45593999997E+02  0.45594000000E+02  0.51100000000E-03 0. -1.
    9900012    2    1    2    0    0 -0.74877575461E+01  0.69426364341E+01  0.15697502438E+02  0.72461593604E+02  0.70000030365E+02 0.  0.
         12    1    1    2    0    0  0.74877575461E+01 -0.69426364341E+01 -0.15697502438E+02  0.18726406396E+02  0.00000000000E+00 0. -1.
         11    1    3    3    0    0 -0.18534771556E+02  0.11404042811E+02 -0.13860239487E+02  0.25801088891E+02  0.51100000000E-03 0. -1.
        -11    1    3    3    0    0 -0.10015085466E+02  0.69111812555E+01  0.99883982179E+01  0.15742759048E+02  0.51100000000E-03 0.  1.
         12    1    3    3    0    0  0.21062099476E+02 -0.11372587633E+02  0.19569343708E+02  0.30917745664E+02  0.00000000000E+00 0. -1.
</event>
<event>
 7    1  0.2976321E-013  0.7246155E+02  0.7816164E-02  0.1226708E+00
        -11   -1    0    0    0    0  0.00000000000E+00  0.00000000000E+00  0.45593999997E+02  0.45594000000E+02  0.51100000000E-03 0.  1.
         11   -1    0    0    0    0 -0.00000000000E+00 -0.00000000000E+00 -0.45593999997E+02  0.45594000000E+02  0.51100000000E-03 0. -1.
    9900012    2    1    2    0    0  0.61246361266E+01  0.38139405536E+00  0.17692467266E+02  0.72461547397E+02  0.69999970172E+02 0.  0.
         12    1    1    2    0    0 -0.61246361266E+01 -0.38139405536E+00 -0.17692467266E+02  0.18726452603E+02  0.00000000000E+00 0. -1.
         11    1    3    3    0    0  0.96510003013E+01 -0.11232175377E+02 -0.22323255189E+02  0.26788641119E+02  0.51100000000E-03 0. -1.
        -11    1    3    3    0    0 -0.43835424515E+01 -0.15891908757E+01  0.14226068414E+01  0.48749135941E+01  0.51100000000E-03 0.  1.
        -12    1    3    3    0    0  0.85717827689E+00  0.13202760308E+02  0.38593115613E+02  0.40797992685E+02  0.00000000000E+00 0.  1.
</event>
<event>
 7    1  0.2976321E-013  0.7246156E+02  0.7816164E-02  0.1226708E+00
        -11   -1    0    0    0    0  0.00000000000E+00  0.00000000000E+00  0.45593999997E+02  0.45594000000E+02  0.51100000000E-03 0.  1.
         11   -1    0    0    0    0 -0.00000000000E+00 -0.00000000000E+00 -0.45593999997E+02  0.45594000000E+02  0.51100000000E-03 0. -1.
    9900012    2    1    2    0    0 -0.70565518916E+01  0.17256106268E+02  0.17638888133E+01  0.72461563289E+02  0.69999990875E+02 0.  0.
         12    1    1    2    0    0  0.70565518916E+01 -0.17256106268E+02 -0.17638888133E+01  0.18726436711E+02  0.00000000000E+00 0. -1.
         11    1    3    3    0    0 -0.18577802311E+02 -0.74806695575E+01  0.24673213262E+01  0.20178771779E+02  0.51100000000E-03 0. -1.
        -11    1    3    3    0    0 -0.14531196689E+01 -0.12546436946E+02 -0.19873052462E+01  0.12785695883E+02  0.51100000000E-03 0.  1.
         12    1    3    3    0    0  0.12974370088E+02  0.37283212772E+02  0.12838727332E+01  0.39497095627E+02  0.00000000000E+00 0. -1.
</event>
<event>
 7    1  0.2976321E-013  0.7246157E+02  0.7816164E-02  0.1226708E+00
        -11   -1    0    0    0    0  0.00000000000E+00  0.00000000000E+00  0.45593999997E+02  0.45594000000E+02  0.51100000000E-03 0. -1.
         11   -1    0    0    0    0 -0.00000000000E+00 -0.00000000000E+00 -0.45593999997E+02  0.45594000000E+02  0.51100000000E-03 0.  1.
    9900012    2    1    2    0    0  0.93253795157E+01  0.69801770312E+01 -0.14662661053E+02  0.72461569383E+02  0.69999998812E+02 0.  0.
         12    1    1    2    0    0 -0.93253795157E+01 -0.69801770312E+01  0.14662661053E+02  0.18726430617E+02  0.00000000000E+00 0. -1.
         11    1    3    3    0    0  0.20378392121E+02  0.56392023855E+01 -0.43454775448E+01  0.21586167894E+02  0.51100000000E-03 0. -1.
        -11    1    3    3    0    0 -0.13704611690E+02 -0.92434723601E+01 -0.26574150114E+02  0.31296063928E+02  0.51100000000E-03 0.  1.
         12    1    3    3    0    0  0.26515990850E+01  0.10584447006E+02  0.16256966605E+02  0.19579337561E+02  0.00000000000E+00 0. -1.
</event>
<event>
 7    1  0.2976321E-013  0.7246164E+02  0.7816164E-02  0.1226708E+00
        -11   -1    0    0    0    0  0.00000000000E+00  0.00000000000E+00  0.45593999997E+02  0.45594000000E+02  0.51100000000E-03 0. -1.
         11   -1    0    0    0    0 -0.00000000000E+00 -0.00000000000E+00 -0.45593999997E+02  0.45594000000E+02  0.51100000000E-03 0.  1.
    9900012    2    1    2    0    0 -0.14655119133E+02  0.88641291451E+01 -0.75717373893E+01  0.72461641320E+02  0.70000092524E+02 0.  0.
         12    1    1    2    0    0  0.14655119133E+02 -0.88641291451E+01  0.75717373893E+01  0.18726358680E+02  0.00000000000E+00 0. -1.
         11    1    3    3    0    0  0.15734356474E+02  0.60737367570E+01  0.30673519298E+01  0.17142604818E+02  0.51100000000E-03 0. -1.
        -11    1    3    3    0    0  0.87352133541E+00 -0.12936915212E+01 -0.21813095377E+02  0.21868877600E+02  0.51100000000E-03 0.  1.
         12    1    3    3    0    0 -0.31262996942E+02  0.40840839093E+01  0.11174006058E+02  0.33450158902E+02  0.00000000000E+00 0. -1.
</event>
<event>
 7    1  0.3543295E-013  0.7246157E+02  0.7816164E-02  0.1226708E+00
        -11   -1    0    0    0    0  0.00000000000E+00  0.00000000000E+00  0.45593999997E+02  0.45594000000E+02  0.51100000000E-03 0. -1.
         11   -1    0    0    0    0 -0.00000000000E+00 -0.00000000000E+00 -0.45593999997E+02  0.45594000000E+02  0.51100000000E-03 0.  1.
    9900012    2    1    2    0    0 -0.12838331669E+02  0.10111439743E+02 -0.91441357517E+01  0.72461569684E+02  0.69999999206E+02 0.  0.
         12    1    1    2    0    0  0.12838331669E+02 -0.10111439743E+02  0.91441357517E+01  0.18726430316E+02  0.00000000000E+00 0. -1.
         11    1    3    3    0    0 -0.14201299172E+02 -0.10440011796E+02  0.15650783487E+02  0.23571545738E+02  0.51100000000E-03 0. -1.
        -11    1    3    3    0    0 -0.15765750510E+02  0.14714320197E+02 -0.51325050868E+01  0.22167830673E+02  0.51100000000E-03 0.  1.
        -12    1    3    3    0    0  0.17128718013E+02  0.58371313422E+01 -0.19662414152E+02  0.26722193274E+02  0.00000000000E+00 0.  1.
</event>
<event>
 7    1  0.2976321E-013  0.7246158E+02  0.7816164E-02  0.1226708E+00
        -11   -1    0    0    0    0  0.00000000000E+00  0.00000000000E+00  0.45593999997E+02  0.45594000000E+02  0.51100000000E-03 0.  1.
         11   -1    0    0    0    0 -0.00000000000E+00 -0.00000000000E+00 -0.45593999997E+02  0.45594000000E+02  0.51100000000E-03 0. -1.
    9900012    2    1    2    0    0  0.45427503171E+01 -0.18064782814E+02 -0.19250125797E+01  0.72461584646E+02  0.70000018696E+02 0.  0.
         12    1    1    2    0    0 -0.45427503171E+01  0.18064782814E+02  0.19250125797E+01  0.18726415354E+02  0.00000000000E+00 0. -1.
         11    1    3    3    0    0  0.14341777153E+02 -0.80991464215E+01 -0.82776679646E+01  0.18433733530E+02  0.51100000000E-03 0. -1.
        -11    1    3    3    0    0 -0.57991282896E+01 -0.22526486036E+02  0.23054630244E+02  0.32750395998E+02  0.51100000000E-03 0.  1.
        -12    1    3    3    0    0 -0.39998985458E+01  0.12560849643E+02 -0.16701974860E+02  0.21277455119E+02  0.00000000000E+00 0.  1.
</event>
<event>
 7    1  0.3696867E-013  0.7246154E+02  0.7816164E-02  0.1226708E+00
        -11   -1    0    0    0    0  0.00000000000E+00  0.00000000000E+00  0.45593999997E+02  0.45594000000E+02  0.51100000000E-03 0.  1.
         11   -1    0    0    0    0 -0.00000000000E+00 -0.00000000000E+00 -0.45593999997E+02  0.45594000000E+02  0.51100000000E-03 0. -1.
    9900012    2    1    2    0    0  0.20520021517E+01  0.17022271808E+02  0.75307198650E+01  0.72461542994E+02  0.69999964436E+02 0.  0.
         12    1    1    2    0    0 -0.20520021517E+01 -0.17022271808E+02 -0.75307198650E+01  0.18726457006E+02  0.00000000000E+00 0. -1.
         11    1    3    3    0    0 -0.26412206612E+02  0.45756179019E+01 -0.36640312418E+00  0.26808117965E+02  0.51100000000E-03 0. -1.
        -11    1    3    3    0    0  0.51122178444E+01  0.14419430340E+02 -0.80689940733E+01  0.17296340891E+02  0.51100000000E-03 0.  1.
        -12    1    3    3    0    0  0.23351990919E+02 -0.19727764338E+01  0.15966117063E+02  0.28357084138E+02  0.00000000000E+00 0.  1.
</event>
<event>
 7    1  0.2976321E-013  0.7246158E+02  0.7816164E-02  0.1226708E+00
        -11   -1    0    0    0    0  0.00000000000E+00  0.00000000000E+00  0.45593999997E+02  0.45594000000E+02  0.51100000000E-03 0.  1.
         11   -1    0    0    0    0 -0.00000000000E+00 -0.00000000000E+00 -0.45593999997E+02  0.45594000000E+02  0.51100000000E-03 0. -1.
    9900012    2    1    2    0    0 -0.12522460953E+02  0.13752980399E+02  0.21731272035E+01  0.72461575354E+02  0.70000006592E+02 0.  0.
         12    1    1    2    0    0  0.12522460953E+02 -0.13752980399E+02 -0.21731272035E+01  0.18726424646E+02  0.00000000000E+00 0. -1.
         11    1    3    3    0    0  0.10442875525E+02  0.93111054705E+01  0.29813309818E+02  0.32933019553E+02  0.51100000000E-03 0. -1.
        -11    1    3    3    0    0  0.68680324723E+00 -0.23918385042E+01 -0.69075894657E+01  0.73421647093E+01  0.51100000000E-03 0.  1.
        -12    1    3    3    0    0 -0.23652139725E+02  0.68337134327E+01 -0.20732593149E+02  0.32186391092E+02  0.00000000000E+00 0.  1.
</event>
<event>
 7    1  0.2976321E-013  0.7246161E+02  0.7816164E-02  0.1226708E+00
        -11   -1    0    0    0    0  0.00000000000E+00  0.00000000000E+00  0.45593999997E+02  0.45594000000E+02  0.51100000000E-03 0. -1.
         11   -1    0    0    0    0 -0.00000000000E+00 -0.00000000000E+00 -0.45593999997E+02  0.45594000000E+02  0.51100000000E-03 0.  1.
    9900012    2    1    2    0    0  0.40910866305E+01 -0.17716399207E+02 -0.44799444500E+01  0.72461609719E+02  0.70000051358E+02 0.  0.
         12    1    1    2    0    0 -0.40910866305E+01  0.17716399207E+02  0.44799444500E+01  0.18726390281E+02  0.00000000000E+00 0. -1.
         11    1    3    3    0    0  0.23389533892E+02  0.52568269084E+01 -0.90255974649E+01  0.25615736075E+02  0.51100000000E-03 0. -1.
        -11    1    3    3    0    0  0.61152106473E+01 -0.18047831621E+02  0.81201712461E+01  0.20713696165E+02  0.51100000000E-03 0.  1.
        -12    1    3    3    0    0 -0.25413657909E+02 -0.49253944948E+01 -0.35745182313E+01  0.26132177479E+02  0.00000000000E+00 0.  1.
</event>
<event>
 7    1  0.2976321E-013  0.7246156E+02  0.7816164E-02  0.1226708E+00
        -11   -1    0    0    0    0  0.00000000000E+00  0.00000000000E+00  0.45593999997E+02  0.45594000000E+02  0.51100000000E-03 0. -1.
         11   -1    0    0    0    0 -0.00000000000E+00 -0.00000000000E+00 -0.45593999997E+02  0.45594000000E+02  0.51100000000E-03 0.  1.
    9900012    2    1    2    0    0  0.90340204303E+01  0.49520120971E+01 -0.15637893748E+02  0.72461556936E+02  0.69999982598E+02 0.  0.
         12    1    1    2    0    0 -0.90340204303E+01 -0.49520120971E+01  0.15637893748E+02  0.18726443064E+02  0.00000000000E+00 0. -1.
         11    1    3    3    0    0  0.16669037224E+02 -0.21979251043E+02  0.13437391360E+02  0.30683998521E+02  0.51100000000E-03 0. -1.
        -11    1    3    3    0    0  0.18370162417E+00  0.11414482820E+02 -0.60138259506E+01  0.12903110755E+02  0.51100000000E-03 0.  1.
        -12    1    3    3    0    0 -0.78187184182E+01  0.15516780321E+02 -0.23061459157E+02  0.28874447660E+02  0.00000000000E+00 0.  1.
</event>
<event>
 7    1  0.2976321E-013  0.7246158E+02  0.7816164E-02  0.1226708E+00
        -11   -1    0    0    0    0  0.00000000000E+00  0.00000000000E+00  0.45593999997E+02  0.45594000000E+02  0.51100000000E-03 0.  1.
         11   -1    0    0    0    0 -0.00000000000E+00 -0.00000000000E+00 -0.45593999997E+02  0.45594000000E+02  0.51100000000E-03 0. -1.
    9900012    2    1    2    0    0  0.17028385608E+02  0.14637323312E+01  0.76531360563E+01  0.72461576950E+02  0.70000008671E+02 0.  0.
         12    1    1    2    0    0 -0.17028385608E+02 -0.14637323312E+01 -0.76531360563E+01  0.18726423050E+02  0.00000000000E+00 0. -1.
         11    1    3    3    0    0  0.38856718312E+02  0.86541194116E+01  0.90777053220E+01  0.40830663416E+02  0.51100000000E-03 0. -1.
        -11    1    3    3    0    0 -0.11890078599E+02  0.52965590973E+01  0.56303833282E+01  0.14181985900E+02  0.51100000000E-03 0.  1.
        -12    1    3    3    0    0 -0.99382541056E+01 -0.12486946178E+02 -0.70549525940E+01  0.17448927635E+02  0.00000000000E+00 0.  1.
</event>
<event>
 7    1  0.2976321E-013  0.7246160E+02  0.7816164E-02  0.1226708E+00
        -11   -1    0    0    0    0  0.00000000000E+00  0.00000000000E+00  0.45593999997E+02  0.45594000000E+02  0.51100000000E-03 0. -1.
         11   -1    0    0    0    0 -0.00000000000E+00 -0.00000000000E+00 -0.45593999997E+02  0.45594000000E+02  0.51100000000E-03 0.  1.
    9900012    2    1    2    0    0  0.38709398510E+01  0.95625114975E+00 -0.18296980466E+02  0.72461599231E+02  0.70000037695E+02 0.  0.
         12    1    1    2    0    0 -0.38709398510E+01 -0.95625114975E+00  0.18296980466E+02  0.18726400769E+02  0.00000000000E+00 0. -1.
         11    1    3    3    0    0  0.81489304570E+01  0.19944473978E+02  0.59656520744E+01  0.22355672989E+02  0.51100000000E-03 0. -1.
        -11    1    3    3    0    0 -0.16546258645E+02 -0.19222185884E+02 -0.29771791520E+01  0.25536928188E+02  0.51100000000E-03 0.  1.
        -12    1    3    3    0    0  0.12268268039E+02  0.23396305564E+00 -0.21285453388E+02  0.24568998053E+02  0.00000000000E+00 0.  1.
</event>
<event>
 7    1  0.2976321E-013  0.7246162E+02  0.7816164E-02  0.1226708E+00
        -11   -1    0    0    0    0  0.00000000000E+00  0.00000000000E+00  0.45593999997E+02  0.45594000000E+02  0.51100000000E-03 0.  1.
         11   -1    0    0    0    0 -0.00000000000E+00 -0.00000000000E+00 -0.45593999997E+02  0.45594000000E+02  0.51100000000E-03 0. -1.
    9900012    2    1    2    0    0 -0.45630231597E+01 -0.11709016255E+02  0.13883620912E+02  0.72461623638E+02  0.70000069490E+02 0.  0.
         12    1    1    2    0    0  0.45630231597E+01  0.11709016255E+02 -0.13883620912E+02  0.18726376362E+02  0.00000000000E+00 0. -1.
         11    1    3    3    0    0 -0.23942396730E+02 -0.11139640082E-01  0.10809818212E+02  0.26269576611E+02  0.51100000000E-03 0. -1.
        -11    1    3    3    0    0 -0.71933665216E+01 -0.17466811155E+02  0.84046516790E+00  0.18908738609E+02  0.51100000000E-03 0.  1.
        -12    1    3    3    0    0  0.26572740092E+02  0.57689345400E+01  0.22333375326E+01  0.27283308419E+02  0.00000000000E+00 0.  1.
</event>
<event>
 7    1  0.2976321E-013  0.7246164E+02  0.7816164E-02  0.1226708E+00
        -11   -1    0    0    0    0  0.00000000000E+00  0.00000000000E+00  0.45593999997E+02  0.45594000000E+02  0.51100000000E-03 0.  1.
         11   -1    0    0    0    0 -0.00000000000E+00 -0.00000000000E+00 -0.45593999997E+02  0.45594000000E+02  0.51100000000E-03 0. -1.
    9900012    2    1    2    0    0 -0.12690605301E+02  0.69814459825E+01  0.11869485566E+02  0.72461635203E+02  0.70000084556E+02 0.  0.
         12    1    1    2    0    0  0.12690605301E+02 -0.69814459825E+01 -0.11869485566E+02  0.18726364797E+02  0.00000000000E+00 0. -1.
         11    1    3    3    0    0  0.28598275848E+00 -0.27474046884E+01  0.57054109922E+01  0.63389063340E+01  0.51100000000E-03 0. -1.
        -11    1    3    3    0    0 -0.72878509121E+01  0.26086945277E+02  0.27529039375E+02  0.38619807016E+02  0.51100000000E-03 0.  1.
         12    1    3    3    0    0 -0.56887371472E+01 -0.16358094606E+02 -0.21364964802E+02  0.27502921853E+02  0.00000000000E+00 0. -1.
</event>
<event>
 7    1  0.2976321E-013  0.7246156E+02  0.7816164E-02  0.1226708E+00
        -11   -1    0    0    0    0  0.00000000000E+00  0.00000000000E+00  0.45593999997E+02  0.45594000000E+02  0.51100000000E-03 0. -1.
         11   -1    0    0    0    0 -0.00000000000E+00 -0.00000000000E+00 -0.45593999997E+02  0.45594000000E+02  0.51100000000E-03 0.  1.
    9900012    2    1    2    0    0  0.83425438930E+01 -0.11040423329E+02 -0.12617073726E+02  0.72461560528E+02  0.69999987277E+02 0.  0.
         12    1    1    2    0    0 -0.83425438930E+01  0.11040423329E+02  0.12617073726E+02  0.18726439472E+02  0.00000000000E+00 0. -1.
         11    1    3    3    0    0 -0.65954650291E+01  0.29976445652E+01 -0.67105398603E+01  0.98750887270E+01  0.51100000000E-03 0. -1.
        -11    1    3    3    0    0  0.35549703362E+02 -0.18980030608E+02 -0.86403410948E+01  0.41215027181E+02  0.51100000000E-03 0.  1.
         12    1    3    3    0    0 -0.20611694440E+02  0.49419627138E+01  0.27338072287E+01  0.21371444620E+02  0.00000000000E+00 0. -1.
</event>
<event>
 7    1  0.2976321E-013  0.7246163E+02  0.7816164E-02  0.1226708E+00
        -11   -1    0    0    0    0  0.00000000000E+00  0.00000000000E+00  0.45593999997E+02  0.45594000000E+02  0.51100000000E-03 0. -1.
         11   -1    0    0    0    0 -0.00000000000E+00 -0.00000000000E+00 -0.45593999997E+02  0.45594000000E+02  0.51100000000E-03 0.  1.
    9900012    2    1    2    0    0  0.56029770628E+01 -0.12708309291E+01 -0.17823255004E+02  0.72461634038E+02  0.70000083037E+02 0.  0.
         12    1    1    2    0    0 -0.56029770628E+01  0.12708309291E+01  0.17823255004E+02  0.18726365962E+02  0.00000000000E+00 0. -1.
         11    1    3    3    0    0  0.90615387554E+01  0.75621469215E+01 -0.71305005521E+01  0.13789183771E+02  0.51100000000E-03 0. -1.
        -11    1    3    3    0    0  0.11766390836E+02 -0.20050071588E+02 -0.25608735354E+02  0.34587001181E+02  0.51100000000E-03 0.  1.
         12    1    3    3    0    0 -0.15224952529E+02  0.11217093737E+02  0.14915980902E+02  0.24085449086E+02  0.00000000000E+00 0. -1.
</event>
<event>
 7    1  0.2976321E-013  0.7246159E+02  0.7816164E-02  0.1226708E+00
        -11   -1    0    0    0    0  0.00000000000E+00  0.00000000000E+00  0.45593999997E+02  0.45594000000E+02  0.51100000000E-03 0.  1.
         11   -1    0    0    0    0 -0.00000000000E+00 -0.00000000000E+00 -0.45593999997E+02  0.45594000000E+02  0.51100000000E-03 0. -1.
    9900012    2    1    2    0    0  0.16666403580E+02  0.22961782671E+01  0.82241773009E+01  0.72461587230E+02  0.70000022062E+02 0.  0.
         12    1    1    2    0    0 -0.16666403580E+02 -0.22961782671E+01 -0.82241773009E+01  0.18726412770E+02  0.00000000000E+00 0. -1.
         11    1    3    3    0    0  0.11917002370E+01  0.50329720514E+00 -0.10753010696E+02  0.10830544622E+02  0.51100000000E-03 0. -1.
        -11    1    3    3    0    0 -0.12351236860E+02  0.49835515843E+01 -0.13350414114E+02  0.18857953114E+02  0.51100000000E-03 0.  1.
        -12    1    3    3    0    0  0.27825940204E+02 -0.31906705223E+01  0.32327602111E+02  0.42773089494E+02  0.00000000000E+00 0.  1.
</event>
<event>
 7    1  0.2976321E-013  0.7246155E+02  0.7816164E-02  0.1226708E+00
        -11   -1    0    0    0    0  0.00000000000E+00  0.00000000000E+00  0.45593999997E+02  0.45594000000E+02  0.51100000000E-03 0. -1.
         11   -1    0    0    0    0 -0.00000000000E+00 -0.00000000000E+00 -0.45593999997E+02  0.45594000000E+02  0.51100000000E-03 0.  1.
    9900012    2    1    2    0    0 -0.22874410990E+01  0.15532260661E+02  0.10207661522E+02  0.72461551811E+02  0.69999975923E+02 0.  0.
         12    1    1    2    0    0  0.22874410990E+01 -0.15532260661E+02 -0.10207661522E+02  0.18726448189E+02  0.00000000000E+00 0. -1.
         11    1    3    3    0    0 -0.32078306431E+01  0.94145581771E+01  0.13593141869E+02  0.16843324768E+02  0.51100000000E-03 0. -1.
        -11    1    3    3    0    0 -0.23562836986E+02  0.16479616143E+02 -0.39668122929E+01  0.29026206006E+02  0.51100000000E-03 0.  1.
         12    1    3    3    0    0  0.24483226530E+02 -0.10361913660E+02  0.58133194548E+00  0.26592021037E+02  0.00000000000E+00 0. -1.
</event>
<event>
 7    1  0.2976321E-013  0.7246167E+02  0.7816164E-02  0.1226708E+00
        -11   -1    0    0    0    0  0.00000000000E+00  0.00000000000E+00  0.45593999997E+02  0.45594000000E+02  0.51100000000E-03 0.  1.
         11   -1    0    0    0    0 -0.00000000000E+00 -0.00000000000E+00 -0.45593999997E+02  0.45594000000E+02  0.51100000000E-03 0. -1.
    9900012    2    1    2    0    0 -0.39509601504E+00 -0.14672377705E+02  0.11629295183E+02  0.72461674284E+02  0.70000135466E+02 0.  0.
         12    1    1    2    0    0  0.39509601504E+00  0.14672377705E+02 -0.11629295183E+02  0.18726325716E+02  0.00000000000E+00 0. -1.
         11    1    3    3    0    0 -0.67002122428E-01  0.37244000345E+01 -0.66228610976E+01  0.75985481692E+01  0.51100000000E-03 0. -1.
        -11    1    3    3    0    0  0.18898711498E+02  0.10384535045E+02  0.21053678687E+02  0.30137306630E+02  0.51100000000E-03 0.  1.
         12    1    3    3    0    0 -0.19226805391E+02 -0.28781312784E+02 -0.28015224066E+01  0.34725819485E+02  0.00000000000E+00 0. -1.
</event>
<event>
 7    1  0.2976321E-013  0.7246155E+02  0.7816164E-02  0.1226708E+00
        -11   -1    0    0    0    0  0.00000000000E+00  0.00000000000E+00  0.45593999997E+02  0.45594000000E+02  0.51100000000E-03 0.  1.
         11   -1    0    0    0    0 -0.00000000000E+00 -0.00000000000E+00 -0.45593999997E+02  0.45594000000E+02  0.51100000000E-03 0. -1.
    9900012    2    1    2    0    0  0.18416197213E+02 -0.33029007581E+01  0.78376251674E+00  0.72461554612E+02  0.69999979570E+02 0.  0.
         12    1    1    2    0    0 -0.18416197213E+02  0.33029007581E+01 -0.78376251674E+00  0.18726445388E+02  0.00000000000E+00 0. -1.
         11    1    3    3    0    0  0.82588558780E+01 -0.10285227369E+01  0.11642437706E+02  0.14311286296E+02  0.51100000000E-03 0. -1.
        -11    1    3    3    0    0 -0.18780495468E-01 -0.19697329805E+02  0.15422671243E+02  0.25016873159E+02  0.51100000000E-03 0.  1.
         12    1    3    3    0    0  0.10176121830E+02  0.17422951783E+02 -0.26281346432E+02  0.33133395157E+02  0.00000000000E+00 0. -1.
</event>
<event>
 7    1  0.2976321E-013  0.7246136E+02  0.7816164E-02  0.1226709E+00
        -11   -1    0    0    0    0  0.00000000000E+00  0.00000000000E+00  0.45593999997E+02  0.45594000000E+02  0.51100000000E-03 0. -1.
         11   -1    0    0    0    0 -0.00000000000E+00 -0.00000000000E+00 -0.45593999997E+02  0.45594000000E+02  0.51100000000E-03 0.  1.
    9900012    2    1    2    0    0 -0.31757771592E+01 -0.17746651036E+02 -0.50653685275E+01  0.72461357431E+02  0.69999722706E+02 0.  0.
         12    1    1    2    0    0  0.31757771592E+01  0.17746651036E+02  0.50653685275E+01  0.18726642569E+02  0.00000000000E+00 0. -1.
         11    1    3    3    0    0  0.16318517656E+02 -0.20290047472E+01 -0.81195206177E+01  0.18339506375E+02  0.51100000000E-03 0. -1.
        -11    1    3    3    0    0  0.18213570477E+01  0.13462923184E+02 -0.86870887803E+01  0.16125543522E+02  0.51100000000E-03 0.  1.
         12    1    3    3    0    0 -0.21315651863E+02 -0.29180569473E+02  0.11741240871E+02  0.37996307535E+02  0.00000000000E+00 0. -1.
</event>
<event>
 7    1  0.2976321E-013  0.7246150E+02  0.7816164E-02  0.1226708E+00
        -11   -1    0    0    0    0  0.00000000000E+00  0.00000000000E+00  0.45593999997E+02  0.45594000000E+02  0.51100000000E-03 0.  1.
         11   -1    0    0    0    0 -0.00000000000E+00 -0.00000000000E+00 -0.45593999997E+02  0.45594000000E+02  0.51100000000E-03 0. -1.
    9900012    2    1    2    0    0 -0.12071269563E+02 -0.14216662563E+02  0.16890563782E+01  0.72461495928E+02  0.69999903124E+02 0.  0.
         12    1    1    2    0    0  0.12071269563E+02  0.14216662563E+02 -0.16890563782E+01  0.18726504072E+02  0.00000000000E+00 0. -1.
         11    1    3    3    0    0 -0.17408323474E+02 -0.26520733501E+01  0.17034065688E+02  0.24499849252E+02  0.51100000000E-03 0. -1.
        -11    1    3    3    0    0  0.30131940872E+01 -0.24439075451E+02  0.36542715341E+01  0.24893803410E+02  0.51100000000E-03 0.  1.
         12    1    3    3    0    0  0.23238598236E+01  0.12874486238E+02 -0.18999280844E+02  0.23067843266E+02  0.00000000000E+00 0. -1.
</event>
<event>
 7    1  0.2976321E-013  0.7246174E+02  0.7816164E-02  0.1226708E+00
        -11   -1    0    0    0    0  0.00000000000E+00  0.00000000000E+00  0.45593999997E+02  0.45594000000E+02  0.51100000000E-03 0.  1.
         11   -1    0    0    0    0 -0.00000000000E+00 -0.00000000000E+00 -0.45593999997E+02  0.45594000000E+02  0.51100000000E-03 0. -1.
    9900012    2    1    2    0    0 -0.28093450241E+01 -0.94458176850E+01  0.15923472604E+02  0.72461738468E+02  0.70000219077E+02 0.  0.
         12    1    1    2    0    0  0.28093450241E+01  0.94458176850E+01 -0.15923472604E+02  0.18726261532E+02  0.00000000000E+00 0. -1.
         11    1    3    3    0    0  0.84920897137E+01  0.18106513513E+02  0.68010430304E+01  0.21123816082E+02  0.51100000000E-03 0. -1.
        -11    1    3    3    0    0  0.11453932702E+02 -0.18053663916E-01 -0.55424229245E+01  0.12724439179E+02  0.51100000000E-03 0.  1.
        -12    1    3    3    0    0 -0.22755367440E+02 -0.27534277534E+02  0.14664852498E+02  0.38613483208E+02  0.00000000000E+00 0.  1.
</event>
<event>
 7    1  0.2976321E-013  0.7246155E+02  0.7816164E-02  0.1226708E+00
        -11   -1    0    0    0    0  0.00000000000E+00  0.00000000000E+00  0.45593999997E+02  0.45594000000E+02  0.51100000000E-03 0.  1.
         11   -1    0    0    0    0 -0.00000000000E+00 -0.00000000000E+00 -0.45593999997E+02  0.45594000000E+02  0.51100000000E-03 0. -1.
    9900012    2    1    2    0    0  0.85035638162E+01 -0.14958235802E+02  0.73905720050E+01  0.72461548910E+02  0.69999972142E+02 0.  0.
         12    1    1    2    0    0 -0.85035638162E+01  0.14958235802E+02 -0.73905720050E+01  0.18726451090E+02  0.00000000000E+00 0. -1.
         11    1    3    3    0    0 -0.55501359754E+01 -0.85063617186E+01  0.12058006073E+02  0.15765713107E+02  0.51100000000E-03 0. -1.
        -11    1    3    3    0    0 -0.28064999242E+01 -0.27310339891E+02  0.55237471451E+01  0.28004336978E+02  0.51100000000E-03 0.  1.
         12    1    3    3    0    0  0.16860199716E+02  0.20858465808E+02 -0.10191181213E+02  0.28691498825E+02  0.00000000000E+00 0. -1.
</event>
<event>
 7    1  0.2976321E-013  0.7246155E+02  0.7816164E-02  0.1226708E+00
        -11   -1    0    0    0    0  0.00000000000E+00  0.00000000000E+00  0.45593999997E+02  0.45594000000E+02  0.51100000000E-03 0.  1.
         11   -1    0    0    0    0 -0.00000000000E+00 -0.00000000000E+00 -0.45593999997E+02  0.45594000000E+02  0.51100000000E-03 0. -1.
    9900012    2    1    2    0    0  0.15470330693E-01 -0.46451253502E+01  0.18141182530E+02  0.72461549924E+02  0.69999973464E+02 0.  0.
         12    1    1    2    0    0 -0.15470330693E-01  0.46451253502E+01 -0.18141182530E+02  0.18726450076E+02  0.00000000000E+00 0. -1.
         11    1    3    3    0    0 -0.17771527127E+00  0.29007586768E+01  0.27981537702E+00  0.29196370537E+01  0.51100000000E-03 0. -1.
        -11    1    3    3    0    0  0.95112555698E+01  0.13183119417E+02  0.36624661964E+02  0.40070244376E+02  0.51100000000E-03 0.  1.
         12    1    3    3    0    0 -0.93180699678E+01 -0.20729003444E+02 -0.18763294811E+02  0.29471668495E+02  0.00000000000E+00 0. -1.
</event>
<event>
 7    1  0.2976321E-013  0.7246157E+02  0.7816164E-02  0.1226708E+00
        -11   -1    0    0    0    0  0.00000000000E+00  0.00000000000E+00  0.45593999997E+02  0.45594000000E+02  0.51100000000E-03 0.  1.
         11   -1    0    0    0    0 -0.00000000000E+00 -0.00000000000E+00 -0.45593999997E+02  0.45594000000E+02  0.51100000000E-03 0. -1.
    9900012    2    1    2    0    0  0.83359995471E+01  0.92452415901E+01  0.13989844012E+02  0.72461571724E+02  0.70000001862E+02 0.  0.
         12    1    1    2    0    0 -0.83359995471E+01 -0.92452415901E+01 -0.13989844012E+02  0.18726428276E+02  0.00000000000E+00 0. -1.
         11    1    3    3    0    0  0.64034018445E+01 -0.66096999680E+01  0.17808995272E+01  0.93735421392E+01  0.51100000000E-03 0. -1.
        -11    1    3    3    0    0  0.27230823570E+02  0.17592025941E+02  0.17994948376E+02  0.37078501807E+02  0.51100000000E-03 0.  1.
         12    1    3    3    0    0 -0.25298225867E+02 -0.17370843826E+01 -0.57860038912E+01  0.26009527777E+02  0.00000000000E+00 0. -1.
</event>
<event>
 7    1  0.2976321E-013  0.7246150E+02  0.7816164E-02  0.1226708E+00
        -11   -1    0    0    0    0  0.00000000000E+00  0.00000000000E+00  0.45593999997E+02  0.45594000000E+02  0.51100000000E-03 0. -1.
         11   -1    0    0    0    0 -0.00000000000E+00 -0.00000000000E+00 -0.45593999997E+02  0.45594000000E+02  0.51100000000E-03 0.  1.
    9900012    2    1    2    0    0  0.16676016847E+02  0.48945069857E+01  0.69739493680E+01  0.72461502562E+02  0.69999911766E+02 0.  0.
         12    1    1    2    0    0 -0.16676016847E+02 -0.48945069857E+01 -0.69739493680E+01  0.18726497438E+02  0.00000000000E+00 0. -1.
         11    1    3    3    0    0 -0.93931659260E+01 -0.95792943878E+01  0.44720723058E+01  0.14141919178E+02  0.51100000000E-03 0. -1.
        -11    1    3    3    0    0  0.10964154567E+02 -0.14922115521E+02  0.14120929059E+02  0.23286967487E+02  0.51100000000E-03 0.  1.
        -12    1    3    3    0    0  0.15105028206E+02  0.29395916895E+02 -0.11619051997E+02  0.35032615896E+02  0.00000000000E+00 0.  1.
</event>
<event>
 7    1  0.2976321E-013  0.7246157E+02  0.7816164E-02  0.1226708E+00
        -11   -1    0    0    0    0  0.00000000000E+00  0.00000000000E+00  0.45593999997E+02  0.45594000000E+02  0.51100000000E-03 0. -1.
         11   -1    0    0    0    0 -0.00000000000E+00 -0.00000000000E+00 -0.45593999997E+02  0.45594000000E+02  0.51100000000E-03 0.  1.
    9900012    2    1    2    0    0  0.76005397769E+01  0.93888325382E+01 -0.14309458986E+02  0.72461574879E+02  0.70000005972E+02 0.  0.
         12    1    1    2    0    0 -0.76005397769E+01 -0.93888325382E+01  0.14309458986E+02  0.18726425121E+02  0.00000000000E+00 0. -1.
         11    1    3    3    0    0 -0.86497606176E+01  0.25258391632E+02  0.86974013293E+01  0.28079342882E+02  0.51100000000E-03 0. -1.
        -11    1    3    3    0    0 -0.76257555427E+01 -0.17454272368E+01  0.75024854108E+00  0.78588508683E+01  0.51100000000E-03 0.  1.
        -12    1    3    3    0    0  0.23876055937E+02 -0.14124131857E+02 -0.23757108857E+02  0.36523381128E+02  0.00000000000E+00 0.  1.
</event>
<event>
 7    1  0.2976321E-013  0.7246157E+02  0.7816164E-02  0.1226708E+00
        -11   -1    0    0    0    0  0.00000000000E+00  0.00000000000E+00  0.45593999997E+02  0.45594000000E+02  0.51100000000E-03 0.  1.
         11   -1    0    0    0    0 -0.00000000000E+00 -0.00000000000E+00 -0.45593999997E+02  0.45594000000E+02  0.51100000000E-03 0. -1.
    9900012    2    1    2    0    0 -0.77322825507E+01 -0.24266759981E+01  0.16882004122E+02  0.72461574473E+02  0.70000005444E+02 0.  0.
         12    1    1    2    0    0  0.77322825507E+01  0.24266759981E+01 -0.16882004122E+02  0.18726425527E+02  0.00000000000E+00 0. -1.
         11    1    3    3    0    0 -0.27396140223E+02 -0.55636142024E+01  0.83422612487E+01  0.29173543239E+02  0.51100000000E-03 0. -1.
        -11    1    3    3    0    0 -0.72483150283E+01  0.86066529657E+01 -0.54106449705E+01  0.12485496597E+02  0.51100000000E-03 0.  1.
         12    1    3    3    0    0  0.26912172701E+02 -0.54697147614E+01  0.13950387844E+02  0.30802534637E+02  0.00000000000E+00 0. -1.
</event>
<event>
 7    1  0.2976321E-013  0.7246213E+02  0.7816164E-02  0.1226707E+00
        -11   -1    0    0    0    0  0.00000000000E+00  0.00000000000E+00  0.45593999997E+02  0.45594000000E+02  0.51100000000E-03 0.  1.
         11   -1    0    0    0    0 -0.00000000000E+00 -0.00000000000E+00 -0.45593999997E+02  0.45594000000E+02  0.51100000000E-03 0. -1.
    9900012    2    1    2    0    0 -0.30430796541E+01  0.10354879765E+02  0.15302756618E+02  0.72462129424E+02  0.70000728366E+02 0.  0.
         12    1    1    2    0    0  0.30430796541E+01 -0.10354879765E+02 -0.15302756618E+02  0.18725870576E+02  0.00000000000E+00 0. -1.
         11    1    3    3    0    0 -0.15132753236E+02  0.43223111973E+01  0.37126328562E+02  0.40324271442E+02  0.51100000000E-03 0.  1.
        -11    1    3    3    0    0 -0.33812292180E+01 -0.28911051715E+01 -0.93463899443E+01  0.10351145125E+02  0.51100000000E-03 0. -1.
        -12    1    3    3    0    0  0.15470902800E+02  0.89236737393E+01 -0.12477182000E+02  0.21786712857E+02  0.00000000000E+00 0.  1.
</event>
<event>
 7    1  0.2976321E-013  0.7246157E+02  0.7816164E-02  0.1226708E+00
        -11   -1    0    0    0    0  0.00000000000E+00  0.00000000000E+00  0.45593999997E+02  0.45594000000E+02  0.51100000000E-03 0.  1.
         11   -1    0    0    0    0 -0.00000000000E+00 -0.00000000000E+00 -0.45593999997E+02  0.45594000000E+02  0.51100000000E-03 0. -1.
    9900012    2    1    2    0    0 -0.66875181416E+01 -0.10651135782E+02  0.13874780177E+02  0.72461571688E+02  0.70000001816E+02 0.  0.
         12    1    1    2    0    0  0.66875181416E+01  0.10651135782E+02 -0.13874780177E+02  0.18726428312E+02  0.00000000000E+00 0. -1.
         11    1    3    3    0    0 -0.16273180639E+02  0.60380296999E+01  0.76564794219E+01  0.18970922175E+02  0.51100000000E-03 0. -1.
        -11    1    3    3    0    0  0.11316213963E+02  0.13345726706E+02 -0.91089175267E+01  0.19726568342E+02  0.51100000000E-03 0.  1.
         12    1    3    3    0    0 -0.17305514658E+01 -0.30034892188E+02  0.15327218282E+02  0.33764081172E+02  0.00000000000E+00 0. -1.
</event>
<event>
 7    1  0.2976321E-013  0.7246153E+02  0.7816164E-02  0.1226708E+00
        -11   -1    0    0    0    0  0.00000000000E+00  0.00000000000E+00  0.45593999997E+02  0.45594000000E+02  0.51100000000E-03 0. -1.
         11   -1    0    0    0    0 -0.00000000000E+00 -0.00000000000E+00 -0.45593999997E+02  0.45594000000E+02  0.51100000000E-03 0.  1.
    9900012    2    1    2    0    0 -0.15407726144E+02 -0.45832663592E+01 -0.96060640144E+01  0.72461526192E+02  0.69999942548E+02 0.  0.
         12    1    1    2    0    0  0.15407726144E+02  0.45832663592E+01  0.96060640144E+01  0.18726473808E+02  0.00000000000E+00 0. -1.
         11    1    3    3    0    0  0.14726984607E+02 -0.38243216092E+01  0.93270326264E+01  0.17846653727E+02  0.51100000000E-03 0. -1.
        -11    1    3    3    0    0 -0.27018295335E+02  0.15084445649E+02 -0.22272720962E+02  0.38126144346E+02  0.51100000000E-03 0.  1.
         12    1    3    3    0    0 -0.31164154156E+01 -0.15843390399E+02  0.33396243211E+01  0.16488728119E+02  0.00000000000E+00 0. -1.
</event>
<event>
 7    1  0.2976321E-013  0.7246160E+02  0.7816164E-02  0.1226708E+00
        -11   -1    0    0    0    0  0.00000000000E+00  0.00000000000E+00  0.45593999997E+02  0.45594000000E+02  0.51100000000E-03 0.  1.
         11   -1    0    0    0    0 -0.00000000000E+00 -0.00000000000E+00 -0.45593999997E+02  0.45594000000E+02  0.51100000000E-03 0. -1.
    9900012    2    1    2    0    0  0.13163645693E+02 -0.73173514991E+01  0.11128918703E+02  0.72461600656E+02  0.70000039552E+02 0.  0.
         12    1    1    2    0    0 -0.13163645693E+02  0.73173514991E+01 -0.11128918703E+02  0.18726399344E+02  0.00000000000E+00 0. -1.
         11    1    3    3    0    0 -0.11996076277E+02  0.10555259655E+02 -0.36471886621E+01  0.16389671681E+02  0.51100000000E-03 0. -1.
        -11    1    3    3    0    0  0.83822170970E+01  0.11368796074E+02 -0.71749220387E+01  0.15842682669E+02  0.51100000000E-03 0.  1.
        -12    1    3    3    0    0  0.16777504873E+02 -0.29241407228E+02  0.21951029404E+02  0.40229246306E+02  0.00000000000E+00 0.  1.
</event>
<event>
 7    1  0.2976321E-013  0.7246159E+02  0.7816164E-02  0.1226708E+00
        -11   -1    0    0    0    0  0.00000000000E+00  0.00000000000E+00  0.45593999997E+02  0.45594000000E+02  0.51100000000E-03 0. -1.
         11   -1    0    0    0    0 -0.00000000000E+00 -0.00000000000E+00 -0.45593999997E+02  0.45594000000E+02  0.51100000000E-03 0.  1.
    9900012    2    1    2    0    0 -0.11401051632E+02 -0.14236697813E+02 -0.42439319773E+01  0.72461588129E+02  0.70000023233E+02 0.  0.
         12    1    1    2    0    0  0.11401051632E+02  0.14236697813E+02  0.42439319773E+01  0.18726411871E+02  0.00000000000E+00 0. -1.
         11    1    3    3    0    0 -0.46340907238E+00 -0.36887317050E+02 -0.10290596957E+02  0.38298633045E+02  0.51100000000E-03 0. -1.
        -11    1    3    3    0    0 -0.10715236566E+02  0.35364209104E+01 -0.47117032860E+01  0.12227948136E+02  0.51100000000E-03 0.  1.
        -12    1    3    3    0    0 -0.22240599370E+00  0.19114198326E+02  0.10758368266E+02  0.21935006948E+02  0.00000000000E+00 0.  1.
</event>
<event>
 7    1  0.2976321E-013  0.7246157E+02  0.7816164E-02  0.1226708E+00
        -11   -1    0    0    0    0  0.00000000000E+00  0.00000000000E+00  0.45593999997E+02  0.45594000000E+02  0.51100000000E-03 0.  1.
         11   -1    0    0    0    0 -0.00000000000E+00 -0.00000000000E+00 -0.45593999997E+02  0.45594000000E+02  0.51100000000E-03 0. -1.
    9900012    2    1    2    0    0  0.18492769851E+01 -0.86290544608E+01  0.16516624573E+02  0.72461566983E+02  0.69999995686E+02 0.  0.
         12    1    1    2    0    0 -0.18492769851E+01  0.86290544608E+01 -0.16516624573E+02  0.18726433017E+02  0.00000000000E+00 0. -1.
         11    1    3    3    0    0 -0.76340244240E+01  0.42040041526E+01 -0.97571846572E+01  0.13082608017E+02  0.51100000000E-03 0. -1.
        -11    1    3    3    0    0 -0.48682888958E+00  0.18084512787E+02  0.82083339425E+00  0.18109676221E+02  0.51100000000E-03 0.  1.
        -12    1    3    3    0    0  0.99701302986E+01 -0.30917571400E+02  0.25452975836E+02  0.41269282746E+02  0.00000000000E+00 0.  1.
</event>
<event>
 7    1  0.2976321E-013  0.7246153E+02  0.7816164E-02  0.1226708E+00
        -11   -1    0    0    0    0  0.00000000000E+00  0.00000000000E+00  0.45593999997E+02  0.45594000000E+02  0.51100000000E-03 0. -1.
         11   -1    0    0    0    0 -0.00000000000E+00 -0.00000000000E+00 -0.45593999997E+02  0.45594000000E+02  0.51100000000E-03 0.  1.
    9900012    2    1    2    0    0  0.84814542906E+01 -0.15447614411E+02 -0.63337911423E+01  0.72461527611E+02  0.69999944397E+02 0.  0.
         12    1    1    2    0    0 -0.84814542906E+01  0.15447614411E+02  0.63337911423E+01  0.18726472389E+02  0.00000000000E+00 0. -1.
         11    1    3    3    0    0 -0.16188006811E+02 -0.20147219847E+02  0.44238088172E+01  0.26220833640E+02  0.51100000000E-03 0. -1.
        -11    1    3    3    0    0  0.13160266770E+02 -0.13848950674E+02  0.44756448622E+01  0.19621861620E+02  0.51100000000E-03 0.  1.
        -12    1    3    3    0    0  0.11509194331E+02  0.18548556110E+02 -0.15233244822E+02  0.26618832351E+02  0.00000000000E+00 0.  1.
</event>
<event>
 7    1  0.2976321E-013  0.7246177E+02  0.7816164E-02  0.1226707E+00
        -11   -1    0    0    0    0  0.00000000000E+00  0.00000000000E+00  0.45593999997E+02  0.45594000000E+02  0.51100000000E-03 0.  1.
         11   -1    0    0    0    0 -0.00000000000E+00 -0.00000000000E+00 -0.45593999997E+02  0.45594000000E+02  0.51100000000E-03 0. -1.
    9900012    2    1    2    0    0 -0.73897638595E+01  0.17858509780E+01  0.17113558186E+02  0.72461768468E+02  0.70000258157E+02 0.  0.
         12    1    1    2    0    0  0.73897638595E+01 -0.17858509780E+01 -0.17113558186E+02  0.18726231532E+02  0.00000000000E+00 0. -1.
         11    1    3    3    0    0 -0.12419839709E+02 -0.98888878776E+00  0.13293854934E+02  0.18219684374E+02  0.51100000000E-03 0. -1.
        -11    1    3    3    0    0  0.22605988651E+02  0.44130711355E+01  0.19843491817E+02  0.30401810596E+02  0.51100000000E-03 0.  1.
         12    1    3    3    0    0 -0.17575912802E+02 -0.16383313698E+01 -0.16023788565E+02  0.23840273498E+02  0.00000000000E+00 0. -1.
</event>
<event>
 7    1  0.2976321E-013  0.7246156E+02  0.7816164E-02  0.1226708E+00
        -11   -1    0    0    0    0  0.00000000000E+00  0.00000000000E+00  0.45593999997E+02  0.45594000000E+02  0.51100000000E-03 0.  1.
         11   -1    0    0    0    0 -0.00000000000E+00 -0.00000000000E+00 -0.45593999997E+02  0.45594000000E+02  0.51100000000E-03 0. -1.
    9900012    2    1    2    0    0  0.11815796378E+02  0.14325760359E+02 -0.24164525131E+01  0.72461556220E+02  0.69999981665E+02 0.  0.
         12    1    1    2    0    0 -0.11815796378E+02 -0.14325760359E+02  0.24164525131E+01  0.18726443780E+02  0.00000000000E+00 0. -1.
         11    1    3    3    0    0 -0.14201524556E+02  0.75167225099E+00 -0.19709065999E+02  0.24304229955E+02  0.51100000000E-03 0. -1.
        -11    1    3    3    0    0  0.12293880579E+00  0.17204188333E+02  0.13214044057E+02  0.21693551363E+02  0.51100000000E-03 0.  1.
        -12    1    3    3    0    0  0.25894382128E+02 -0.36301002248E+01  0.40785694292E+01  0.26463774901E+02  0.00000000000E+00 0.  1.
</event>
<event>
 7    1  0.2976321E-013  0.7246157E+02  0.7816164E-02  0.1226708E+00
        -11   -1    0    0    0    0  0.00000000000E+00  0.00000000000E+00  0.45593999997E+02  0.45594000000E+02  0.51100000000E-03 0. -1.
         11   -1    0    0    0    0 -0.00000000000E+00 -0.00000000000E+00 -0.45593999997E+02  0.45594000000E+02  0.51100000000E-03 0.  1.
    9900012    2    1    2    0    0 -0.13501725887E+02 -0.12803902792E+02 -0.21077248354E+01  0.72461573950E+02  0.70000004762E+02 0.  0.
         12    1    1    2    0    0  0.13501725887E+02  0.12803902792E+02  0.21077248354E+01  0.18726426050E+02  0.00000000000E+00 0. -1.
         11    1    3    3    0    0 -0.58949319082E+01 -0.50447071551E+01 -0.14836327450E+01  0.78993961077E+01  0.51100000000E-03 0. -1.
        -11    1    3    3    0    0 -0.19807287452E+02  0.22905390788E+01  0.26502914062E+02  0.33165941258E+02  0.51100000000E-03 0.  1.
        -12    1    3    3    0    0  0.12200493474E+02 -0.10049734715E+02 -0.27127006153E+02  0.31396236584E+02  0.00000000000E+00 0.  1.
</event>
<event>
 7    1  0.2976321E-013  0.7246169E+02  0.7816164E-02  0.1226708E+00
        -11   -1    0    0    0    0  0.00000000000E+00  0.00000000000E+00  0.45593999997E+02  0.45594000000E+02  0.51100000000E-03 0.  1.
         11   -1    0    0    0    0 -0.00000000000E+00 -0.00000000000E+00 -0.45593999997E+02  0.45594000000E+02  0.51100000000E-03 0. -1.
    9900012    2    1    2    0    0  0.12621480748E+02 -0.81217481792E+01  0.11198671708E+02  0.72461686487E+02  0.70000151363E+02 0.  0.
         12    1    1    2    0    0 -0.12621480748E+02  0.81217481792E+01 -0.11198671708E+02  0.18726313513E+02  0.00000000000E+00 0. -1.
         11    1    3    3    0    0 -0.15459844549E+02 -0.22152542265E-01 -0.12978904714E+02  0.20185619932E+02  0.51100000000E-03 0. -1.
        -11    1    3    3    0    0  0.52631905464E+01  0.13485692570E+02  0.42871703177E+01  0.15097844496E+02  0.51100000000E-03 0.  1.
        -12    1    3    3    0    0  0.22818134751E+02 -0.21585288207E+02  0.19890406104E+02  0.37178222059E+02  0.00000000000E+00 0.  1.
</event>
<event>
 7    1  0.2976321E-013  0.7246147E+02  0.7816164E-02  0.1226708E+00
        -11   -1    0    0    0    0  0.00000000000E+00  0.00000000000E+00  0.45593999997E+02  0.45594000000E+02  0.51100000000E-03 0.  1.
         11   -1    0    0    0    0 -0.00000000000E+00 -0.00000000000E+00 -0.45593999997E+02  0.45594000000E+02  0.51100000000E-03 0. -1.
    9900012    2    1    2    0    0  0.39016283350E+01 -0.89875456172E+00  0.18293504304E+02  0.72461474344E+02  0.69999875007E+02 0.  0.
         12    1    1    2    0    0 -0.39016283350E+01  0.89875456172E+00 -0.18293504304E+02  0.18726525656E+02  0.00000000000E+00 0. -1.
         11    1    3    3    0    0 -0.14127985897E+02  0.11058508764E+02  0.17813810352E+02  0.25282848753E+02  0.51100000000E-03 0. -1.
        -11    1    3    3    0    0  0.26679408008E+02 -0.86180812369E+01  0.13561306786E+02  0.31144360290E+02  0.51100000000E-03 0.  1.
         12    1    3    3    0    0 -0.86497937766E+01 -0.33391820887E+01 -0.13081612834E+02  0.16034265301E+02  0.00000000000E+00 0. -1.
</event>
<event>
 7    1  0.2976321E-013  0.7246154E+02  0.7816164E-02  0.1226708E+00
        -11   -1    0    0    0    0  0.00000000000E+00  0.00000000000E+00  0.45593999997E+02  0.45594000000E+02  0.51100000000E-03 0. -1.
         11   -1    0    0    0    0 -0.00000000000E+00 -0.00000000000E+00 -0.45593999997E+02  0.45594000000E+02  0.51100000000E-03 0.  1.
    9900012    2    1    2    0    0 -0.44554132575E+01  0.15733856066E+02 -0.91255245754E+01  0.72461544575E+02  0.69999966496E+02 0.  0.
         12    1    1    2    0    0  0.44554132575E+01 -0.15733856066E+02  0.91255245754E+01  0.18726455425E+02  0.00000000000E+00 0. -1.
         11    1    3    3    0    0  0.54864354373E+01  0.26475887175E+02 -0.41238397283E+01  0.27351044402E+02  0.51100000000E-03 0. -1.
        -11    1    3    3    0    0 -0.51974563993E+01  0.11904648412E+02 -0.15053427837E+02  0.19883156106E+02  0.51100000000E-03 0.  1.
         12    1    3    3    0    0 -0.47443922954E+01 -0.22646679521E+02  0.10051742990E+02  0.25227344067E+02  0.00000000000E+00 0. -1.
</event>
<event>
 7    1  0.2976321E-013  0.7246126E+02  0.7816164E-02  0.1226709E+00
        -11   -1    0    0    0    0  0.00000000000E+00  0.00000000000E+00  0.45593999997E+02  0.45594000000E+02  0.51100000000E-03 0. -1.
         11   -1    0    0    0    0 -0.00000000000E+00 -0.00000000000E+00 -0.45593999997E+02  0.45594000000E+02  0.51100000000E-03 0.  1.
    9900012    2    1    2    0    0  0.77447945947E+01 -0.16577599913E+02  0.39865116127E+01  0.72461256102E+02  0.69999590704E+02 0.  0.
         12    1    1    2    0    0 -0.77447945947E+01  0.16577599913E+02 -0.39865116127E+01  0.18726743898E+02  0.00000000000E+00 0. -1.
         11    1    3    3    0    0 -0.20151172722E+02 -0.11503562241E+02  0.45095117833E+01  0.23637626849E+02  0.51100000000E-03 0. -1.
        -11    1    3    3    0    0 -0.37552668749E+01 -0.11851092754E+02 -0.90187081000E+01  0.15358630304E+02  0.51100000000E-03 0.  1.
        -12    1    3    3    0    0  0.31651234191E+02  0.67770550813E+01  0.84957079294E+01  0.33464998948E+02  0.00000000000E+00 0.  1.
</event>
<event>
 7    1  0.2976321E-013  0.7246167E+02  0.7816164E-02  0.1226708E+00
        -11   -1    0    0    0    0  0.00000000000E+00  0.00000000000E+00  0.45593999997E+02  0.45594000000E+02  0.51100000000E-03 0.  1.
         11   -1    0    0    0    0 -0.00000000000E+00 -0.00000000000E+00 -0.45593999997E+02  0.45594000000E+02  0.51100000000E-03 0. -1.
    9900012    2    1    2    0    0 -0.96808765803E+01  0.29443303752E+01  0.15757127868E+02  0.72461667434E+02  0.70000126542E+02 0.  0.
         12    1    1    2    0    0  0.96808765803E+01 -0.29443303752E+01 -0.15757127868E+02  0.18726332566E+02  0.00000000000E+00 0. -1.
         11    1    3    3    0    0 -0.14820845592E+02 -0.68738701902E+01 -0.94944972517E+01  0.18895846998E+02  0.51100000000E-03 0. -1.
        -11    1    3    3    0    0 -0.43678663928E+01  0.23906118781E+02  0.14848381244E+01  0.24347187035E+02  0.51100000000E-03 0.  1.
        -12    1    3    3    0    0  0.95078354040E+01 -0.14087918216E+02  0.23766786996E+02  0.29218633401E+02  0.00000000000E+00 0.  1.
</event>
<event>
 7    1  0.2976321E-013  0.7246156E+02  0.7816164E-02  0.1226708E+00
        -11   -1    0    0    0    0  0.00000000000E+00  0.00000000000E+00  0.45593999997E+02  0.45594000000E+02  0.51100000000E-03 0.  1.
         11   -1    0    0    0    0 -0.00000000000E+00 -0.00000000000E+00 -0.45593999997E+02  0.45594000000E+02  0.51100000000E-03 0. -1.
    9900012    2    1    2    0    0 -0.43130425589E+01  0.13113017202E+02  0.12654088633E+02  0.72461561060E+02  0.69999987970E+02 0.  0.
         12    1    1    2    0    0  0.43130425589E+01 -0.13113017202E+02 -0.12654088633E+02  0.18726438940E+02  0.00000000000E+00 0. -1.
         11    1    3    3    0    0  0.26821561256E+02  0.12449471344E+01 -0.26325338262E+01  0.26979182274E+02  0.51100000000E-03 0. -1.
        -11    1    3    3    0    0  0.30768219999E+01 -0.40282461468E+01  0.24850971210E+01  0.56452908340E+01  0.51100000000E-03 0.  1.
        -12    1    3    3    0    0 -0.34211425815E+02  0.15896316214E+02  0.12801525339E+02  0.39837087951E+02  0.00000000000E+00 0.  1.
</event>
<event>
 7    1  0.3925723E-013  0.7246155E+02  0.7816164E-02  0.1226708E+00
        -11   -1    0    0    0    0  0.00000000000E+00  0.00000000000E+00  0.45593999997E+02  0.45594000000E+02  0.51100000000E-03 0. -1.
         11   -1    0    0    0    0 -0.00000000000E+00 -0.00000000000E+00 -0.45593999997E+02  0.45594000000E+02  0.51100000000E-03 0.  1.
    9900012    2    1    2    0    0  0.19590626412E+01  0.45315134769E+00 -0.18618182367E+02  0.72461548461E+02  0.69999971558E+02 0.  0.
         12    1    1    2    0    0 -0.19590626412E+01 -0.45315134769E+00  0.18618182367E+02  0.18726451539E+02  0.00000000000E+00 0. -1.
         11    1    3    3    0    0 -0.10068029648E+02 -0.17237735029E+02  0.38542769014E+01  0.20331261166E+02  0.51100000000E-03 0. -1.
        -11    1    3    3    0    0  0.14302705223E+02 -0.11113449532E+02 -0.77437942984E+01  0.19698794065E+02  0.51100000000E-03 0.  1.
        -12    1    3    3    0    0 -0.22756129339E+01  0.28804335908E+02 -0.14728664970E+02  0.32431493230E+02  0.00000000000E+00 0.  1.
</event>
<event>
 7    1  0.2976321E-013  0.7246139E+02  0.7816164E-02  0.1226708E+00
        -11   -1    0    0    0    0  0.00000000000E+00  0.00000000000E+00  0.45593999997E+02  0.45594000000E+02  0.51100000000E-03 0.  1.
         11   -1    0    0    0    0 -0.00000000000E+00 -0.00000000000E+00 -0.45593999997E+02  0.45594000000E+02  0.51100000000E-03 0. -1.
    9900012    2    1    2    0    0  0.10580629861E+02  0.11288033259E+02  0.10550656897E+02  0.72461393685E+02  0.69999769933E+02 0.  0.
         12    1    1    2    0    0 -0.10580629861E+02 -0.11288033259E+02 -0.10550656897E+02  0.18726606315E+02  0.00000000000E+00 0. -1.
         11    1    3    3    0    0  0.12639409946E+01  0.16615107343E+02 -0.95556476974E+01  0.19208585113E+02  0.51100000000E-03 0. -1.
        -11    1    3    3    0    0  0.23950351011E+02  0.22765206856E+01  0.26293509670E+02  0.35639171020E+02  0.51100000000E-03 0.  1.
         12    1    3    3    0    0 -0.14633662144E+02 -0.76035947697E+01 -0.61872050755E+01  0.17613637552E+02  0.00000000000E+00 0. -1.
</event>
<event>
 7    1  0.2976321E-013  0.7246160E+02  0.7816164E-02  0.1226708E+00
        -11   -1    0    0    0    0  0.00000000000E+00  0.00000000000E+00  0.45593999997E+02  0.45594000000E+02  0.51100000000E-03 0.  1.
         11   -1    0    0    0    0 -0.00000000000E+00 -0.00000000000E+00 -0.45593999997E+02  0.45594000000E+02  0.51100000000E-03 0. -1.
    9900012    2    1    2    0    0  0.35033602695E+01  0.18236201355E+02  0.24177485581E+01  0.72461599355E+02  0.70000037857E+02 0.  0.
         12    1    1    2    0    0 -0.35033602695E+01 -0.18236201355E+02 -0.24177485581E+01  0.18726400645E+02  0.00000000000E+00 0. -1.
         11    1    3    3    0    0 -0.11153681329E+02 -0.13234894022E+02 -0.22374655750E+02  0.28287669525E+02  0.51100000000E-03 0. -1.
        -11    1    3    3    0    0  0.45265348881E+01  0.51004963787E+01  0.36731861787E+00  0.68293121638E+01  0.51100000000E-03 0.  1.
        -12    1    3    3    0    0  0.10130506710E+02  0.26370598998E+02  0.24425085690E+02  0.37344617667E+02  0.00000000000E+00 0.  1.
</event>
<event>
 7    1  0.3362561E-013  0.7246158E+02  0.7816164E-02  0.1226708E+00
        -11   -1    0    0    0    0  0.00000000000E+00  0.00000000000E+00  0.45593999997E+02  0.45594000000E+02  0.51100000000E-03 0.  1.
         11   -1    0    0    0    0 -0.00000000000E+00 -0.00000000000E+00 -0.45593999997E+02  0.45594000000E+02  0.51100000000E-03 0. -1.
    9900012    2    1    2    0    0  0.10094867281E+02  0.12504492862E+02  0.96130106289E+01  0.72461583886E+02  0.70000017705E+02 0.  0.
         12    1    1    2    0    0 -0.10094867281E+02 -0.12504492862E+02 -0.96130106289E+01  0.18726416114E+02  0.00000000000E+00 0. -1.
         11    1    3    3    0    0  0.36734756122E+01  0.13485818528E+02 -0.21734589659E+02  0.25840938690E+02  0.51100000000E-03 0. -1.
        -11    1    3    3    0    0  0.81030073218E+01 -0.25415941951E+01 -0.52284571006E+01  0.99727224279E+01  0.51100000000E-03 0.  1.
        -12    1    3    3    0    0 -0.16816156535E+01  0.15602685287E+01  0.36576057389E+02  0.36647922768E+02  0.00000000000E+00 0.  1.
</event>
<event>
 7    1  0.2976321E-013  0.7246166E+02  0.7816164E-02  0.1226708E+00
        -11   -1    0    0    0    0  0.00000000000E+00  0.00000000000E+00  0.45593999997E+02  0.45594000000E+02  0.51100000000E-03 0. -1.
         11   -1    0    0    0    0 -0.00000000000E+00 -0.00000000000E+00 -0.45593999997E+02  0.45594000000E+02  0.51100000000E-03 0.  1.
    9900012    2    1    2    0    0 -0.12142719837E+02 -0.29198369389E+00 -0.14252896193E+02  0.72461656273E+02  0.70000112003E+02 0.  0.
         12    1    1    2    0    0  0.12142719837E+02  0.29198369389E+00  0.14252896193E+02  0.18726343727E+02  0.00000000000E+00 0. -1.
         11    1    3    3    0    0 -0.82480561994E+01 -0.84778153059E+01 -0.20852265893E+02  0.23973334698E+02  0.51100000000E-03 0. -1.
        -11    1    3    3    0    0  0.14885395796E+02  0.87487439783E-01 -0.13293635817E+02  0.19957540318E+02  0.51100000000E-03 0.  1.
         12    1    3    3    0    0 -0.18780059433E+02  0.80983441722E+01  0.19893005517E+02  0.28530781257E+02  0.00000000000E+00 0. -1.
</event>
<event>
 7    1  0.2976321E-013  0.7246158E+02  0.7816164E-02  0.1226708E+00
        -11   -1    0    0    0    0  0.00000000000E+00  0.00000000000E+00  0.45593999997E+02  0.45594000000E+02  0.51100000000E-03 0. -1.
         11   -1    0    0    0    0 -0.00000000000E+00 -0.00000000000E+00 -0.45593999997E+02  0.45594000000E+02  0.51100000000E-03 0.  1.
    9900012    2    1    2    0    0 -0.81174373139E+01 -0.61547264515E+01 -0.15713226531E+02  0.72461576576E+02  0.70000008183E+02 0.  0.
         12    1    1    2    0    0  0.81174373139E+01  0.61547264515E+01  0.15713226531E+02  0.18726423424E+02  0.00000000000E+00 0. -1.
         11    1    3    3    0    0 -0.23094174282E+02 -0.48670060760E+01 -0.58762892184E+01  0.24321994350E+02  0.51100000000E-03 0. -1.
        -11    1    3    3    0    0 -0.14528205740E+02  0.19525454938E+01  0.42804947903E+01  0.15271012797E+02  0.51100000000E-03 0.  1.
        -12    1    3    3    0    0  0.29504942709E+02 -0.32402658693E+01 -0.14117432103E+02  0.32868569429E+02  0.00000000000E+00 0.  1.
</event>
<event>
 7    1  0.2976321E-013  0.7246152E+02  0.7816164E-02  0.1226708E+00
        -11   -1    0    0    0    0  0.00000000000E+00  0.00000000000E+00  0.45593999997E+02  0.45594000000E+02  0.51100000000E-03 0. -1.
         11   -1    0    0    0    0 -0.00000000000E+00 -0.00000000000E+00 -0.45593999997E+02  0.45594000000E+02  0.51100000000E-03 0.  1.
    9900012    2    1    2    0    0 -0.18175572280E+02 -0.44751168327E+01 -0.55043223176E+00  0.72461519444E+02  0.69999933758E+02 0.  0.
         12    1    1    2    0    0  0.18175572280E+02  0.44751168327E+01  0.55043223176E+00  0.18726480556E+02  0.00000000000E+00 0. -1.
         11    1    3    3    0    0 -0.41888890336E+00  0.64996071481E+01  0.19430408241E+02  0.20492953073E+02  0.51100000000E-03 0. -1.
        -11    1    3    3    0    0  0.36468527821E+01 -0.16306416782E+02  0.61207591392E+01  0.17795012115E+02  0.51100000000E-03 0.  1.
        -12    1    3    3    0    0 -0.21403536158E+02  0.53316928014E+01 -0.26101599611E+02  0.34173554256E+02  0.00000000000E+00 0.  1.
</event>
<event>
 7    1  0.2976321E-013  0.7246157E+02  0.7816164E-02  0.1226708E+00
        -11   -1    0    0    0    0  0.00000000000E+00  0.00000000000E+00  0.45593999997E+02  0.45594000000E+02  0.51100000000E-03 0.  1.
         11   -1    0    0    0    0 -0.00000000000E+00 -0.00000000000E+00 -0.45593999997E+02  0.45594000000E+02  0.51100000000E-03 0. -1.
    9900012    2    1    2    0    0  0.13102273981E+02  0.34174260277E+01  0.12935647260E+02  0.72461565364E+02  0.69999993577E+02 0.  0.
         12    1    1    2    0    0 -0.13102273981E+02 -0.34174260277E+01 -0.12935647260E+02  0.18726434636E+02  0.00000000000E+00 0. -1.
         11    1    3    3    0    0  0.79046519600E+01 -0.41583609628E+01  0.35470748449E+01  0.96102668392E+01  0.51100000000E-03 0. -1.
        -11    1    3    3    0    0  0.31034794948E+02  0.81469869653E+01  0.16454270169E+02  0.36059324746E+02  0.51100000000E-03 0.  1.
         12    1    3    3    0    0 -0.25837172927E+02 -0.57119997484E+00 -0.70656977532E+01  0.26791973779E+02  0.00000000000E+00 0. -1.
</event>
<event>
 7    1  0.2976321E-013  0.7246155E+02  0.7816164E-02  0.1226708E+00
        -11   -1    0    0    0    0  0.00000000000E+00  0.00000000000E+00  0.45593999997E+02  0.45594000000E+02  0.51100000000E-03 0.  1.
         11   -1    0    0    0    0 -0.00000000000E+00 -0.00000000000E+00 -0.45593999997E+02  0.45594000000E+02  0.51100000000E-03 0. -1.
    9900012    2    1    2    0    0 -0.99108298183E+01 -0.15765769873E+02 -0.19738117268E+01  0.72461548651E+02  0.69999971806E+02 0.  0.
         12    1    1    2    0    0  0.99108298183E+01  0.15765769873E+02  0.19738117268E+01  0.18726451349E+02  0.00000000000E+00 0. -1.
         11    1    3    3    0    0 -0.11624931465E+02  0.97087200377E+01  0.58489039157E+01  0.16236007933E+02  0.51100000000E-03 0.  1.
        -11    1    3    3    0    0  0.81340260539E+01 -0.24084479031E+02  0.16978306259E+02  0.30569386545E+02  0.51100000000E-03 0. -1.
         12    1    3    3    0    0 -0.64199244074E+01 -0.13900108799E+01 -0.24801021901E+02  0.25656154174E+02  0.00000000000E+00 0. -1.
</event>
<event>
 7    1  0.2976321E-013  0.7246153E+02  0.7816164E-02  0.1226708E+00
        -11   -1    0    0    0    0  0.00000000000E+00  0.00000000000E+00  0.45593999997E+02  0.45594000000E+02  0.51100000000E-03 0.  1.
         11   -1    0    0    0    0 -0.00000000000E+00 -0.00000000000E+00 -0.45593999997E+02  0.45594000000E+02  0.51100000000E-03 0. -1.
    9900012    2    1    2    0    0  0.11079569331E+02  0.42203575612E+01  0.14495258893E+02  0.72461526630E+02  0.69999943118E+02 0.  0.
         12    1    1    2    0    0 -0.11079569331E+02 -0.42203575612E+01 -0.14495258893E+02  0.18726473370E+02  0.00000000000E+00 0. -1.
         11    1    3    3    0    0 -0.70643397313E+01 -0.58160557551E+01  0.16952834880E+02  0.19264734909E+02  0.51100000000E-03 0. -1.
        -11    1    3    3    0    0  0.18884390291E+02  0.15214193982E+02  0.19190887123E+02  0.30925427144E+02  0.51100000000E-03 0.  1.
         12    1    3    3    0    0 -0.74048122873E+00 -0.51777806655E+01 -0.21648463110E+02  0.22271364577E+02  0.00000000000E+00 0. -1.
</event>
<event>
 7    1  0.2976321E-013  0.7246160E+02  0.7816164E-02  0.1226708E+00
        -11   -1    0    0    0    0  0.00000000000E+00  0.00000000000E+00  0.45593999997E+02  0.45594000000E+02  0.51100000000E-03 0.  1.
         11   -1    0    0    0    0 -0.00000000000E+00 -0.00000000000E+00 -0.45593999997E+02  0.45594000000E+02  0.51100000000E-03 0. -1.
    9900012    2    1    2    0    0  0.30257833202E+01 -0.12339196427E+02  0.13757435718E+02  0.72461596963E+02  0.70000034741E+02 0.  0.
         12    1    1    2    0    0 -0.30257833202E+01  0.12339196427E+02 -0.13757435718E+02  0.18726403037E+02  0.00000000000E+00 0. -1.
         11    1    3    3    0    0 -0.64793178510E+01 -0.10115855913E+02  0.73478257114E+00  0.12035447908E+02  0.51100000000E-03 0.  1.
        -11    1    3    3    0    0  0.23587046989E+00 -0.26412168889E+02 -0.74106854333E+01  0.27433128862E+02  0.51100000000E-03 0. -1.
        -12    1    3    3    0    0  0.92692307013E+01  0.24188828375E+02  0.20433338580E+02  0.32993020193E+02  0.00000000000E+00 0.  1.
</event>
<event>
 7    1  0.2976321E-013  0.7246139E+02  0.7816164E-02  0.1226709E+00
        -11   -1    0    0    0    0  0.00000000000E+00  0.00000000000E+00  0.45593999997E+02  0.45594000000E+02  0.51100000000E-03 0.  1.
         11   -1    0    0    0    0 -0.00000000000E+00 -0.00000000000E+00 -0.45593999997E+02  0.45594000000E+02  0.51100000000E-03 0. -1.
    9900012    2    1    2    0    0  0.19802858994E-01 -0.13283299142E+02  0.13199987866E+02  0.72461385038E+02  0.69999758669E+02 0.  0.
         12    1    1    2    0    0 -0.19802858994E-01  0.13283299142E+02 -0.13199987866E+02  0.18726614962E+02  0.00000000000E+00 0. -1.
         11    1    3    3    0    0  0.47417748527E+01  0.93965488464E+00 -0.73312881809E+01  0.87815241677E+01  0.51100000000E-03 0. -1.
        -11    1    3    3    0    0  0.45759440458E+01  0.19974495085E+01  0.37860086377E+02  0.38187893489E+02  0.51100000000E-03 0.  1.
         12    1    3    3    0    0 -0.92979160395E+01 -0.16220403535E+02 -0.17328810330E+02  0.25491967381E+02  0.00000000000E+00 0. -1.
</event>
<event>
 7    1  0.2976321E-013  0.7246155E+02  0.7816164E-02  0.1226708E+00
        -11   -1    0    0    0    0  0.00000000000E+00  0.00000000000E+00  0.45593999997E+02  0.45594000000E+02  0.51100000000E-03 0.  1.
         11   -1    0    0    0    0 -0.00000000000E+00 -0.00000000000E+00 -0.45593999997E+02  0.45594000000E+02  0.51100000000E-03 0. -1.
    9900012    2    1    2    0    0  0.79554215031E+01 -0.72758743232E+01  0.15311854675E+02  0.72461548867E+02  0.69999972087E+02 0.  0.
         12    1    1    2    0    0 -0.79554215031E+01  0.72758743232E+01 -0.15311854675E+02  0.18726451133E+02  0.00000000000E+00 0. -1.
         11    1    3    3    0    0  0.66151368676E+01 -0.31998145830E+02 -0.46657565645E+01  0.33006221488E+02  0.51100000000E-03 0. -1.
        -11    1    3    3    0    0  0.46051485590E+00 -0.17714322639E+01 -0.35614640898E+01  0.40042568502E+01  0.51100000000E-03 0.  1.
        -12    1    3    3    0    0  0.87976977957E+00  0.26493703770E+02  0.23539075329E+02  0.35451070529E+02  0.00000000000E+00 0.  1.
</event>
<event>
 7    1  0.2976321E-013  0.7246159E+02  0.7816164E-02  0.1226708E+00
        -11   -1    0    0    0    0  0.00000000000E+00  0.00000000000E+00  0.45593999997E+02  0.45594000000E+02  0.51100000000E-03 0.  1.
         11   -1    0    0    0    0 -0.00000000000E+00 -0.00000000000E+00 -0.45593999997E+02  0.45594000000E+02  0.51100000000E-03 0. -1.
    9900012    2    1    2    0    0 -0.15607045561E+01  0.10925711891E+02  0.15128499914E+02  0.72461588472E+02  0.70000023680E+02 0.  0.
         12    1    1    2    0    0  0.15607045561E+01 -0.10925711891E+02 -0.15128499914E+02  0.18726411528E+02  0.00000000000E+00 0. -1.
         11    1    3    3    0    0 -0.23054416701E+02  0.58064515549E+01 -0.62078412017E+01  0.24571493681E+02  0.51100000000E-03 0. -1.
        -11    1    3    3    0    0  0.13942633015E+01  0.85673520072E+01  0.25621312916E+02  0.27051712818E+02  0.51100000000E-03 0.  1.
        -12    1    3    3    0    0  0.20099448843E+02 -0.34480916707E+01 -0.42849717999E+01  0.20838381974E+02  0.00000000000E+00 0.  1.
</event>
<event>
 7    1  0.2976321E-013  0.7246157E+02  0.7816164E-02  0.1226708E+00
        -11   -1    0    0    0    0  0.00000000000E+00  0.00000000000E+00  0.45593999997E+02  0.45594000000E+02  0.51100000000E-03 0.  1.
         11   -1    0    0    0    0 -0.00000000000E+00 -0.00000000000E+00 -0.45593999997E+02  0.45594000000E+02  0.51100000000E-03 0. -1.
    9900012    2    1    2    0    0  0.76973689273E+01 -0.38677364029E+01  0.16627391317E+02  0.72461574412E+02  0.70000005364E+02 0.  0.
         12    1    1    2    0    0 -0.76973689273E+01  0.38677364029E+01 -0.16627391317E+02  0.18726425588E+02  0.00000000000E+00 0. -1.
         11    1    3    3    0    0  0.13184759012E+02  0.81159683317E+01 -0.45864618714E+00  0.15489259787E+02  0.51100000000E-03 0. -1.
        -11    1    3    3    0    0 -0.96874638120E+01  0.19930678925E+02  0.69965435290E+01  0.23238557165E+02  0.51100000000E-03 0.  1.
         12    1    3    3    0    0  0.42000737271E+01 -0.31914383659E+02  0.10089493975E+02  0.33733757460E+02  0.00000000000E+00 0. -1.
</event>
<event>
 7    1  0.2976321E-013  0.7246162E+02  0.7816164E-02  0.1226708E+00
        -11   -1    0    0    0    0  0.00000000000E+00  0.00000000000E+00  0.45593999997E+02  0.45594000000E+02  0.51100000000E-03 0.  1.
         11   -1    0    0    0    0 -0.00000000000E+00 -0.00000000000E+00 -0.45593999997E+02  0.45594000000E+02  0.51100000000E-03 0. -1.
    9900012    2    1    2    0    0 -0.85271216300E+01 -0.13244809675E+02  0.10126230063E+02  0.72461619626E+02  0.70000064264E+02 0.  0.
         12    1    1    2    0    0  0.85271216300E+01  0.13244809675E+02 -0.10126230063E+02  0.18726380374E+02  0.00000000000E+00 0. -1.
         11    1    3    3    0    0 -0.51234377709E+01 -0.16098976628E+01 -0.16512122990E+01  0.56185307149E+01  0.51100000000E-03 0. -1.
        -11    1    3    3    0    0 -0.23509398696E+02 -0.21158187245E+01  0.29939443349E+02  0.38125303726E+02  0.51100000000E-03 0.  1.
         12    1    3    3    0    0  0.20105714837E+02 -0.95190932874E+01 -0.18162000987E+02  0.28717785186E+02  0.00000000000E+00 0. -1.
</event>
<event>
 7    1  0.2976321E-013  0.7246157E+02  0.7816164E-02  0.1226708E+00
        -11   -1    0    0    0    0  0.00000000000E+00  0.00000000000E+00  0.45593999997E+02  0.45594000000E+02  0.51100000000E-03 0.  1.
         11   -1    0    0    0    0 -0.00000000000E+00 -0.00000000000E+00 -0.45593999997E+02  0.45594000000E+02  0.51100000000E-03 0. -1.
    9900012    2    1    2    0    0  0.12623883498E+02  0.57544292553E+01  0.12577892801E+02  0.72461567400E+02  0.69999996229E+02 0.  0.
         12    1    1    2    0    0 -0.12623883498E+02 -0.57544292553E+01 -0.12577892801E+02  0.18726432600E+02  0.00000000000E+00 0. -1.
         11    1    3    3    0    0  0.16258892615E+02 -0.17550837528E+01  0.19147816486E+02  0.25180762190E+02  0.51100000000E-03 0. -1.
        -11    1    3    3    0    0 -0.13342010939E+02  0.63096008519E+01  0.16551358731E+02  0.22175838088E+02  0.51100000000E-03 0.  1.
         12    1    3    3    0    0  0.97070018225E+01  0.11999121562E+01 -0.23121282416E+02  0.25104967121E+02  0.00000000000E+00 0. -1.
</event>
<event>
 7    1  0.2976321E-013  0.7246159E+02  0.7816164E-02  0.1226708E+00
        -11   -1    0    0    0    0  0.00000000000E+00  0.00000000000E+00  0.45593999997E+02  0.45594000000E+02  0.51100000000E-03 0.  1.
         11   -1    0    0    0    0 -0.00000000000E+00 -0.00000000000E+00 -0.45593999997E+02  0.45594000000E+02  0.51100000000E-03 0. -1.
    9900012    2    1    2    0    0  0.31135857208E+01 -0.16019067845E+02  0.91854946557E+01  0.72461594505E+02  0.70000031539E+02 0.  0.
         12    1    1    2    0    0 -0.31135857208E+01  0.16019067845E+02 -0.91854946557E+01  0.18726405495E+02  0.00000000000E+00 0. -1.
         11    1    3    3    0    0  0.99508150191E+01 -0.18086604193E+01 -0.11112621167E+01  0.10174717481E+02  0.51100000000E-03 0. -1.
        -11    1    3    3    0    0  0.16767503044E+02  0.13241666263E+02  0.14525694730E+02  0.25835763805E+02  0.51100000000E-03 0.  1.
         12    1    3    3    0    0 -0.23604732342E+02 -0.27452073689E+02 -0.42289379573E+01  0.36451113220E+02  0.00000000000E+00 0. -1.
</event>
<event>
 7    1  0.2976321E-013  0.7246157E+02  0.7816164E-02  0.1226708E+00
        -11   -1    0    0    0    0  0.00000000000E+00  0.00000000000E+00  0.45593999997E+02  0.45594000000E+02  0.51100000000E-03 0.  1.
         11   -1    0    0    0    0 -0.00000000000E+00 -0.00000000000E+00 -0.45593999997E+02  0.45594000000E+02  0.51100000000E-03 0. -1.
    9900012    2    1    2    0    0  0.49261157666E+01 -0.17304004193E+02 -0.51946015451E+01  0.72461573142E+02  0.70000003710E+02 0.  0.
         12    1    1    2    0    0 -0.49261157666E+01  0.17304004193E+02  0.51946015451E+01  0.18726426858E+02  0.00000000000E+00 0. -1.
         11    1    3    3    0    0 -0.35106057861E+01  0.25353642330E+02  0.40718850913E+01  0.25917403049E+02  0.51100000000E-03 0.  1.
        -11    1    3    3    0    0  0.64987905275E+01 -0.14381497123E+02  0.22692752036E+01  0.15944006649E+02  0.51100000000E-03 0. -1.
        -12    1    3    3    0    0  0.19379310252E+01 -0.28276149400E+02 -0.11535761840E+02  0.30600163444E+02  0.00000000000E+00 0.  1.
</event>
<event>
 7    1  0.2976321E-013  0.7246154E+02  0.7816164E-02  0.1226708E+00
        -11   -1    0    0    0    0  0.00000000000E+00  0.00000000000E+00  0.45593999997E+02  0.45594000000E+02  0.51100000000E-03 0. -1.
         11   -1    0    0    0    0 -0.00000000000E+00 -0.00000000000E+00 -0.45593999997E+02  0.45594000000E+02  0.51100000000E-03 0.  1.
    9900012    2    1    2    0    0  0.18235933977E+02 -0.41006818410E+01 -0.11469884777E+01  0.72461535781E+02  0.69999955040E+02 0.  0.
         12    1    1    2    0    0 -0.18235933977E+02  0.41006818410E+01  0.11469884777E+01  0.18726464219E+02  0.00000000000E+00 0. -1.
         11    1    3    3    0    0  0.31998631024E+01 -0.80290828989E+01  0.79407278362E+01  0.11737139980E+02  0.51100000000E-03 0. -1.
        -11    1    3    3    0    0  0.20132590672E+01 -0.67000914416E+01  0.23249440884E+02  0.24279228552E+02  0.51100000000E-03 0.  1.
        -12    1    3    3    0    0  0.13022811808E+02  0.10628492500E+02 -0.32337157198E+02  0.36445167249E+02  0.00000000000E+00 0.  1.
</event>
<event>
 7    1  0.2976321E-013  0.7246102E+02  0.7816164E-02  0.1226709E+00
        -11   -1    0    0    0    0  0.00000000000E+00  0.00000000000E+00  0.45593999997E+02  0.45594000000E+02  0.51100000000E-03 0.  1.
         11   -1    0    0    0    0 -0.00000000000E+00 -0.00000000000E+00 -0.45593999997E+02  0.45594000000E+02  0.51100000000E-03 0. -1.
    9900012    2    1    2    0    0  0.32905893135E+01 -0.88146350480E+01  0.16191791284E+02  0.72461017487E+02  0.69999279862E+02 0.  0.
         12    1    1    2    0    0 -0.32905893135E+01  0.88146350480E+01 -0.16191791284E+02  0.18726982513E+02  0.00000000000E+00 0. -1.
         11    1    3    3    0    0 -0.30289549042E+01  0.80026413829E+01  0.81113636276E+01  0.11790295038E+02  0.51100000000E-03 0. -1.
        -11    1    3    3    0    0  0.97607208944E+01 -0.30395372595E+02  0.23648143484E+02  0.39728894247E+02  0.51100000000E-03 0.  1.
         12    1    3    3    0    0 -0.34411766767E+01  0.13578096165E+02 -0.15567715827E+02  0.20941828202E+02  0.00000000000E+00 0. -1.
</event>
<event>
 7    1  0.2976321E-013  0.7246173E+02  0.7816164E-02  0.1226708E+00
        -11   -1    0    0    0    0  0.00000000000E+00  0.00000000000E+00  0.45593999997E+02  0.45594000000E+02  0.51100000000E-03 0. -1.
         11   -1    0    0    0    0 -0.00000000000E+00 -0.00000000000E+00 -0.45593999997E+02  0.45594000000E+02  0.51100000000E-03 0.  1.
    9900012    2    1    2    0    0  0.78346482790E+01 -0.16648106480E+02  0.34831263407E+01  0.72461726155E+02  0.70000203037E+02 0.  0.
         12    1    1    2    0    0 -0.78346482790E+01  0.16648106480E+02 -0.34831263407E+01  0.18726273845E+02  0.00000000000E+00 0. -1.
         11    1    3    3    0    0  0.17319236543E+02 -0.14188624287E+02  0.28169972770E+02  0.35983612655E+02  0.51100000000E-03 0. -1.
        -11    1    3    3    0    0  0.48888114168E+00 -0.67795201803E+01  0.24660703092E+01  0.72306570709E+01  0.51100000000E-03 0.  1.
        -12    1    3    3    0    0 -0.99734694058E+01  0.43200379874E+01 -0.27152916738E+02  0.29247456429E+02  0.00000000000E+00 0.  1.
</event>
<event>
 7    1  0.2976321E-013  0.7246158E+02  0.7816164E-02  0.1226708E+00
        -11   -1    0    0    0    0  0.00000000000E+00  0.00000000000E+00  0.45593999997E+02  0.45594000000E+02  0.51100000000E-03 0. -1.
         11   -1    0    0    0    0 -0.00000000000E+00 -0.00000000000E+00 -0.45593999997E+02  0.45594000000E+02  0.51100000000E-03 0.  1.
    9900012    2    1    2    0    0 -0.17687819239E+02 -0.30615992323E+00 -0.61421595150E+01  0.72461579978E+02  0.70000012615E+02 0.  0.
         12    1    1    2    0    0  0.17687819239E+02  0.30615992323E+00  0.61421595150E+01  0.18726420022E+02  0.00000000000E+00 0. -1.
         11    1    3    3    0    0 -0.19180566054E+02  0.49124411532E+01 -0.62962448174E+01  0.20776642926E+02  0.51100000000E-03 0. -1.
        -11    1    3    3    0    0 -0.13250684128E+02  0.18991007716E+02 -0.20880473606E+01  0.23250783772E+02  0.51100000000E-03 0.  1.
         12    1    3    3    0    0  0.14743430943E+02 -0.24209608793E+02  0.22421326630E+01  0.28434153280E+02  0.00000000000E+00 0. -1.
</event>
<event>
 7    1  0.2976321E-013  0.7246155E+02  0.7816164E-02  0.1226708E+00
        -11   -1    0    0    0    0  0.00000000000E+00  0.00000000000E+00  0.45593999997E+02  0.45594000000E+02  0.51100000000E-03 0.  1.
         11   -1    0    0    0    0 -0.00000000000E+00 -0.00000000000E+00 -0.45593999997E+02  0.45594000000E+02  0.51100000000E-03 0. -1.
    9900012    2    1    2    0    0 -0.60545761158E+01  0.13710813807E+02  0.11226562314E+02  0.72461547891E+02  0.69999970816E+02 0.  0.
         12    1    1    2    0    0  0.60545761158E+01 -0.13710813807E+02 -0.11226562314E+02  0.18726452109E+02  0.00000000000E+00 0. -1.
         11    1    3    3    0    0  0.11737819771E+01 -0.57622122305E+01  0.33431545501E+01  0.67644317224E+01  0.51100000000E-03 0. -1.
        -11    1    3    3    0    0  0.18071740101E+02  0.30062312634E+02  0.13706527045E+02  0.37658987176E+02  0.51100000000E-03 0.  1.
         12    1    3    3    0    0 -0.25300098194E+02 -0.10589286597E+02 -0.58231192808E+01  0.28038128993E+02  0.00000000000E+00 0. -1.
</event>
<event>
 7    1  0.2976321E-013  0.7246159E+02  0.7816164E-02  0.1226708E+00
        -11   -1    0    0    0    0  0.00000000000E+00  0.00000000000E+00  0.45593999997E+02  0.45594000000E+02  0.51100000000E-03 0.  1.
         11   -1    0    0    0    0 -0.00000000000E+00 -0.00000000000E+00 -0.45593999997E+02  0.45594000000E+02  0.51100000000E-03 0. -1.
    9900012    2    1    2    0    0  0.17797314647E+02 -0.32843451641E+01  0.48111536993E+01  0.72461587324E+02  0.70000022184E+02 0.  0.
         12    1    1    2    0    0 -0.17797314647E+02  0.32843451641E+01 -0.48111536993E+01  0.18726412676E+02  0.00000000000E+00 0. -1.
         11    1    3    3    0    0  0.12810891415E+02 -0.16569948879E+02  0.61976988094E+01  0.21842472742E+02  0.51100000000E-03 0. -1.
        -11    1    3    3    0    0  0.16609642644E+01 -0.17055084614E+02  0.76807197417E+01  0.18778396350E+02  0.51100000000E-03 0.  1.
         12    1    3    3    0    0  0.33254589678E+01  0.30340688329E+02 -0.90672648517E+01  0.31840718231E+02  0.00000000000E+00 0. -1.
</event>
<event>
 7    1  0.2976321E-013  0.7246158E+02  0.7816164E-02  0.1226708E+00
        -11   -1    0    0    0    0  0.00000000000E+00  0.00000000000E+00  0.45593999997E+02  0.45594000000E+02  0.51100000000E-03 0.  1.
         11   -1    0    0    0    0 -0.00000000000E+00 -0.00000000000E+00 -0.45593999997E+02  0.45594000000E+02  0.51100000000E-03 0. -1.
    9900012    2    1    2    0    0  0.81147373540E+01 -0.98321952182E+01  0.13717066580E+02  0.72461576404E+02  0.70000007959E+02 0.  0.
         12    1    1    2    0    0 -0.81147373540E+01  0.98321952182E+01 -0.13717066580E+02  0.18726423596E+02  0.00000000000E+00 0. -1.
         11    1    3    3    0    0 -0.16855935163E+02  0.91743337463E+01 -0.82998800305E+01  0.20908824900E+02  0.51100000000E-03 0. -1.
        -11    1    3    3    0    0 -0.30991272676E+01 -0.24885421688E+01 -0.69234583547E+01  0.79832141269E+01  0.51100000000E-03 0.  1.
        -12    1    3    3    0    0  0.28069799785E+02 -0.16517986796E+02  0.28940404965E+02  0.43569537377E+02  0.00000000000E+00 0.  1.
</event>
<event>
 7    1  0.3135745E-013  0.7246151E+02  0.7816164E-02  0.1226708E+00
        -11   -1    0    0    0    0  0.00000000000E+00  0.00000000000E+00  0.45593999997E+02  0.45594000000E+02  0.51100000000E-03 0. -1.
         11   -1    0    0    0    0 -0.00000000000E+00 -0.00000000000E+00 -0.45593999997E+02  0.45594000000E+02  0.51100000000E-03 0.  1.
    9900012    2    1    2    0    0 -0.94808554783E+01  0.91325965007E+01 -0.13318797113E+02  0.72461513517E+02  0.69999926037E+02 0.  0.
         12    1    1    2    0    0  0.94808554783E+01 -0.91325965007E+01  0.13318797113E+02  0.18726486483E+02  0.00000000000E+00 0. -1.
         11    1    3    3    0    0 -0.30350533861E+02  0.65439633783E+01 -0.34678035533E+01  0.31241063107E+02  0.51100000000E-03 0. -1.
        -11    1    3    3    0    0  0.14778143863E+01 -0.13970293947E+01  0.11747117131E+02  0.11921844976E+02  0.51100000000E-03 0.  1.
        -12    1    3    3    0    0  0.19391863996E+02  0.39856625171E+01 -0.21598110691E+02  0.29298605434E+02  0.00000000000E+00 0.  1.
</event>
<event>
 7    1  0.2976321E-013  0.7246153E+02  0.7816164E-02  0.1226708E+00
        -11   -1    0    0    0    0  0.00000000000E+00  0.00000000000E+00  0.45593999997E+02  0.45594000000E+02  0.51100000000E-03 0.  1.
         11   -1    0    0    0    0 -0.00000000000E+00 -0.00000000000E+00 -0.45593999997E+02  0.45594000000E+02  0.51100000000E-03 0. -1.
    9900012    2    1    2    0    0  0.80715027217E+01 -0.26818566265E+01  0.16683495611E+02  0.72461533784E+02  0.69999952438E+02 0.  0.
         12    1    1    2    0    0 -0.80715027217E+01  0.26818566265E+01 -0.16683495611E+02  0.18726466216E+02  0.00000000000E+00 0. -1.
         11    1    3    3    0    0  0.18022632672E+02  0.21177482792E+02  0.13336574971E+02  0.30840967852E+02  0.51100000000E-03 0. -1.
        -11    1    3    3    0    0 -0.12876338257E+02 -0.54449817341E+01  0.14298118999E+02  0.19997102794E+02  0.51100000000E-03 0.  1.
        -12    1    3    3    0    0  0.29252083068E+01 -0.18414357684E+02 -0.10951198359E+02  0.21623463138E+02  0.00000000000E+00 0.  1.
</event>
<event>
 7    1  0.2976321E-013  0.7246107E+02  0.7816164E-02  0.1226709E+00
        -11   -1    0    0    0    0  0.00000000000E+00  0.00000000000E+00  0.45593999997E+02  0.45594000000E+02  0.51100000000E-03 0.  1.
         11   -1    0    0    0    0 -0.00000000000E+00 -0.00000000000E+00 -0.45593999997E+02  0.45594000000E+02  0.51100000000E-03 0. -1.
    9900012    2    1    2    0    0 -0.30322986508E+01  0.20403005213E+01  0.18366823740E+02  0.72461070843E+02  0.69999349369E+02 0.  0.
         12    1    1    2    0    0  0.30322986508E+01 -0.20403005213E+01 -0.18366823740E+02  0.18726929157E+02  0.00000000000E+00 0. -1.
         11    1    3    3    0    0  0.52302378975E+01  0.26387328587E+00 -0.12558391699E+02  0.13606550624E+02  0.51100000000E-03 0. -1.
        -11    1    3    3    0    0  0.18391329786E+02  0.20199789495E+01  0.25740345492E+02  0.31699948148E+02  0.51100000000E-03 0.  1.
         12    1    3    3    0    0 -0.26653866334E+02 -0.24355171402E+00  0.51848699469E+01  0.27154572071E+02  0.00000000000E+00 0. -1.
</event>
<event>
 7    1  0.2976321E-013  0.7246156E+02  0.7816164E-02  0.1226708E+00
        -11   -1    0    0    0    0  0.00000000000E+00  0.00000000000E+00  0.45593999997E+02  0.45594000000E+02  0.51100000000E-03 0.  1.
         11   -1    0    0    0    0 -0.00000000000E+00 -0.00000000000E+00 -0.45593999997E+02  0.45594000000E+02  0.51100000000E-03 0. -1.
    9900012    2    1    2    0    0  0.94562511698E+01  0.42623383428E+01  0.15591390229E+02  0.72461557102E+02  0.69999982814E+02 0.  0.
         12    1    1    2    0    0 -0.94562511698E+01 -0.42623383428E+01 -0.15591390229E+02  0.18726442898E+02  0.00000000000E+00 0. -1.
         11    1    3    3    0    0 -0.20882655582E+01  0.12939356702E+01 -0.79402138075E+01  0.83115653237E+01  0.51100000000E-03 0. -1.
        -11    1    3    3    0    0  0.76199103006E+01  0.21038629290E+01 -0.19442655864E+02  0.20988238123E+02  0.51100000000E-03 0.  1.
        -12    1    3    3    0    0  0.39246064273E+01  0.86453974350E+00  0.42974259901E+02  0.43161753655E+02  0.00000000000E+00 0.  1.
</event>
<event>
 7    1  0.2976321E-013  0.7246156E+02  0.7816164E-02  0.1226708E+00
        -11   -1    0    0    0    0  0.00000000000E+00  0.00000000000E+00  0.45593999997E+02  0.45594000000E+02  0.51100000000E-03 0.  1.
         11   -1    0    0    0    0 -0.00000000000E+00 -0.00000000000E+00 -0.45593999997E+02  0.45594000000E+02  0.51100000000E-03 0. -1.
    9900012    2    1    2    0    0 -0.11322501316E+02 -0.12642339877E+02  0.79152878427E+01  0.72461559461E+02  0.69999985888E+02 0.  0.
         12    1    1    2    0    0  0.11322501316E+02  0.12642339877E+02 -0.79152878427E+01  0.18726440539E+02  0.00000000000E+00 0. -1.
         11    1    3    3    0    0 -0.10754905142E+01 -0.25202055201E+02 -0.10927339291E+02  0.27490125690E+02  0.51100000000E-03 0. -1.
        -11    1    3    3    0    0 -0.12100025123E+02  0.51913663157E+01 -0.91058308240E+01  0.16008655392E+02  0.51100000000E-03 0.  1.
        -12    1    3    3    0    0  0.18530143217E+01  0.73683490086E+01  0.27948457958E+02  0.28962778379E+02  0.00000000000E+00 0.  1.
</event>
<event>
 7    1  0.2976321E-013  0.7246160E+02  0.7816164E-02  0.1226708E+00
        -11   -1    0    0    0    0  0.00000000000E+00  0.00000000000E+00  0.45593999997E+02  0.45594000000E+02  0.51100000000E-03 0.  1.
         11   -1    0    0    0    0 -0.00000000000E+00 -0.00000000000E+00 -0.45593999997E+02  0.45594000000E+02  0.51100000000E-03 0. -1.
    9900012    2    1    2    0    0 -0.22838346295E+01  0.14642784324E+02  0.11447754688E+02  0.72461598297E+02  0.70000036479E+02 0.  0.
         12    1    1    2    0    0  0.22838346295E+01 -0.14642784324E+02 -0.11447754688E+02  0.18726401703E+02  0.00000000000E+00 0. -1.
         11    1    3    3    0    0 -0.46214712413E+00  0.93282134784E+01  0.83520791202E+01  0.12529420280E+02  0.51100000000E-03 0. -1.
        -11    1    3    3    0    0 -0.27535995176E+02  0.24772898062E+01  0.15000104651E+02  0.31454270536E+02  0.51100000000E-03 0.  1.
        -12    1    3    3    0    0  0.25714307671E+02  0.28372810389E+01 -0.11904429083E+02  0.28477907481E+02  0.00000000000E+00 0.  1.
</event>
<event>
 7    1  0.2976321E-013  0.7246165E+02  0.7816164E-02  0.1226708E+00
        -11   -1    0    0    0    0  0.00000000000E+00  0.00000000000E+00  0.45593999997E+02  0.45594000000E+02  0.51100000000E-03 0. -1.
         11   -1    0    0    0    0 -0.00000000000E+00 -0.00000000000E+00 -0.45593999997E+02  0.45594000000E+02  0.51100000000E-03 0.  1.
    9900012    2    1    2    0    0 -0.10317719803E+02 -0.10058062465E+02 -0.11960604595E+02  0.72461654260E+02  0.70000109381E+02 0.  0.
         12    1    1    2    0    0  0.10317719803E+02  0.10058062465E+02  0.11960604595E+02  0.18726345740E+02  0.00000000000E+00 0. -1.
         11    1    3    3    0    0  0.17249765973E+01 -0.17087485599E+02 -0.13607926024E+02  0.21911945584E+02  0.51100000000E-03 0. -1.
        -11    1    3    3    0    0 -0.27280773798E+02 -0.78507670072E+01 -0.35978149903E+01  0.28615021136E+02  0.51100000000E-03 0.  1.
        -12    1    3    3    0    0  0.15238077398E+02  0.14880190140E+02  0.52451364195E+01  0.21934687540E+02  0.00000000000E+00 0.  1.
</event>
<event>
 7    1  0.2976321E-013  0.7246157E+02  0.7816164E-02  0.1226708E+00
        -11   -1    0    0    0    0  0.00000000000E+00  0.00000000000E+00  0.45593999997E+02  0.45594000000E+02  0.51100000000E-03 0. -1.
         11   -1    0    0    0    0 -0.00000000000E+00 -0.00000000000E+00 -0.45593999997E+02  0.45594000000E+02  0.51100000000E-03 0.  1.
    9900012    2    1    2    0    0  0.32499445973E+01  0.13920207525E+02 -0.12097312807E+02  0.72461566955E+02  0.69999995650E+02 0.  0.
         12    1    1    2    0    0 -0.32499445973E+01 -0.13920207525E+02  0.12097312807E+02  0.18726433045E+02  0.00000000000E+00 0. -1.
         11    1    3    3    0    0 -0.16867980414E+02 -0.32602874240E+01 -0.74608869633E+01  0.18730271538E+02  0.51100000000E-03 0. -1.
        -11    1    3    3    0    0 -0.11814014645E+02  0.15547416644E+02 -0.89278776171E+01  0.21470913006E+02  0.51100000000E-03 0.  1.
        -12    1    3    3    0    0  0.31931939656E+02  0.16330783057E+01  0.42914517738E+01  0.32260382411E+02  0.00000000000E+00 0.  1.
</event>
<event>
 7    1  0.2976321E-013  0.7246200E+02  0.7816164E-02  0.1226707E+00
        -11   -1    0    0    0    0  0.00000000000E+00  0.00000000000E+00  0.45593999997E+02  0.45594000000E+02  0.51100000000E-03 0. -1.
         11   -1    0    0    0    0 -0.00000000000E+00 -0.00000000000E+00 -0.45593999997E+02  0.45594000000E+02  0.51100000000E-03 0.  1.
    9900012    2    1    2    0    0  0.64172214577E+01  0.15760094440E+02 -0.78167533106E+01  0.72462003623E+02  0.70000564489E+02 0.  0.
         12    1    1    2    0    0 -0.64172214577E+01 -0.15760094440E+02  0.78167533106E+01  0.18725996377E+02  0.00000000000E+00 0. -1.
         11    1    3    3    0    0  0.45898319264E+01 -0.83965339256E+01  0.58162467071E+01  0.11198083099E+02  0.51100000000E-03 0. -1.
        -11    1    3    3    0    0  0.81182738651E+01 -0.15894491763E+02  0.16791316740E+01  0.17926536821E+02  0.51100000000E-03 0.  1.
         12    1    3    3    0    0 -0.62908843337E+01  0.40051120129E+02 -0.15312131692E+02  0.43337383703E+02  0.00000000000E+00 0. -1.
</event>
<event>
 7    1  0.2976321E-013  0.7246158E+02  0.7816164E-02  0.1226708E+00
        -11   -1    0    0    0    0  0.00000000000E+00  0.00000000000E+00  0.45593999997E+02  0.45594000000E+02  0.51100000000E-03 0. -1.
         11   -1    0    0    0    0 -0.00000000000E+00 -0.00000000000E+00 -0.45593999997E+02  0.45594000000E+02  0.51100000000E-03 0.  1.
    9900012    2    1    2    0    0  0.16589990990E+02 -0.78883263845E+01  0.36366700021E+01  0.72461578481E+02  0.70000010665E+02 0.  0.
         12    1    1    2    0    0 -0.16589990990E+02  0.78883263845E+01 -0.36366700021E+01  0.18726421519E+02  0.00000000000E+00 0. -1.
         11    1    3    3    0    0  0.12019724174E+02 -0.47836899398E+01 -0.31749847717E+01  0.13320585093E+02  0.51100000000E-03 0. -1.
        -11    1    3    3    0    0  0.16581221458E+02 -0.38296971840E+01 -0.22060592707E+02  0.27861680430E+02  0.51100000000E-03 0.  1.
         12    1    3    3    0    0 -0.12010954642E+02  0.72506073937E+00  0.28872247481E+02  0.31279312957E+02  0.00000000000E+00 0. -1.
</event>
<event>
 7    1  0.2976321E-013  0.7246160E+02  0.7816164E-02  0.1226708E+00
        -11   -1    0    0    0    0  0.00000000000E+00  0.00000000000E+00  0.45593999997E+02  0.45594000000E+02  0.51100000000E-03 0.  1.
         11   -1    0    0    0    0 -0.00000000000E+00 -0.00000000000E+00 -0.45593999997E+02  0.45594000000E+02  0.51100000000E-03 0. -1.
    9900012    2    1    2    0    0 -0.18431343967E+01  0.11346916798E+02  0.14782703087E+02  0.72461602167E+02  0.70000041521E+02 0.  0.
         12    1    1    2    0    0  0.18431343967E+01 -0.11346916798E+02 -0.14782703087E+02  0.18726397833E+02  0.00000000000E+00 0. -1.
         11    1    3    3    0    0  0.84619953387E+01 -0.15508972735E+02  0.26358718897E+01  0.17862850313E+02  0.51100000000E-03 0. -1.
        -11    1    3    3    0    0  0.11902642556E+02  0.11214734321E+02 -0.10329133882E+02  0.19342548248E+02  0.51100000000E-03 0.  1.
        -12    1    3    3    0    0 -0.22207772291E+02  0.15641155212E+02  0.22475965079E+02  0.35256203607E+02  0.00000000000E+00 0.  1.
</event>
<event>
 7    1  0.2976321E-013  0.7246157E+02  0.7816164E-02  0.1226708E+00
        -11   -1    0    0    0    0  0.00000000000E+00  0.00000000000E+00  0.45593999997E+02  0.45594000000E+02  0.51100000000E-03 0. -1.
         11   -1    0    0    0    0 -0.00000000000E+00 -0.00000000000E+00 -0.45593999997E+02  0.45594000000E+02  0.51100000000E-03 0.  1.
    9900012    2    1    2    0    0 -0.17331620213E+02 -0.24867608600E+01 -0.66415454470E+01  0.72461570423E+02  0.70000000168E+02 0.  0.
         12    1    1    2    0    0  0.17331620213E+02  0.24867608600E+01  0.66415454470E+01  0.18726429577E+02  0.00000000000E+00 0. -1.
         11    1    3    3    0    0  0.15728532182E+02 -0.73049897947E+01 -0.22526034770E+01  0.17487819281E+02  0.51100000000E-03 0. -1.
        -11    1    3    3    0    0 -0.47404907414E+01  0.20109336141E+02 -0.88606482809E+01  0.22480407930E+02  0.51100000000E-03 0.  1.
         12    1    3    3    0    0 -0.28319661654E+02 -0.15291107206E+02  0.44717063109E+01  0.32493343212E+02  0.00000000000E+00 0. -1.
</event>
<event>
 7    1  0.2976321E-013  0.7246154E+02  0.7816164E-02  0.1226708E+00
        -11   -1    0    0    0    0  0.00000000000E+00  0.00000000000E+00  0.45593999997E+02  0.45594000000E+02  0.51100000000E-03 0. -1.
         11   -1    0    0    0    0 -0.00000000000E+00 -0.00000000000E+00 -0.45593999997E+02  0.45594000000E+02  0.51100000000E-03 0.  1.
    9900012    2    1    2    0    0 -0.15651626041E+02  0.97458270432E+01  0.32750363649E+01  0.72461537288E+02  0.69999957004E+02 0.  0.
         12    1    1    2    0    0  0.15651626041E+02 -0.97458270432E+01 -0.32750363649E+01  0.18726462712E+02  0.00000000000E+00 0. -1.
         11    1    3    3    0    0 -0.28080693376E+02  0.65957076622E+00  0.25791902536E+02  0.38133746351E+02  0.51100000000E-03 0. -1.
        -11    1    3    3    0    0  0.10839805334E+02  0.44671370338E+01 -0.45651543511E+00  0.11733077156E+02  0.51100000000E-03 0.  1.
        -12    1    3    3    0    0  0.15892620007E+01  0.46191192432E+01 -0.22060350736E+02  0.22594713781E+02  0.00000000000E+00 0.  1.
</event>
<event>
 7    1  0.2976321E-013  0.7246156E+02  0.7816164E-02  0.1226708E+00
        -11   -1    0    0    0    0  0.00000000000E+00  0.00000000000E+00  0.45593999997E+02  0.45594000000E+02  0.51100000000E-03 0. -1.
         11   -1    0    0    0    0 -0.00000000000E+00 -0.00000000000E+00 -0.45593999997E+02  0.45594000000E+02  0.51100000000E-03 0.  1.
    9900012    2    1    2    0    0  0.35566422049E+01 -0.38910628517E+01 -0.17969126288E+02  0.72461559509E+02  0.69999985950E+02 0.  0.
         12    1    1    2    0    0 -0.35566422049E+01  0.38910628517E+01  0.17969126288E+02  0.18726440491E+02  0.00000000000E+00 0. -1.
         11    1    3    3    0    0 -0.18225411115E+01 -0.20642371246E+02  0.15490104605E+02  0.25872233914E+02  0.51100000000E-03 0. -1.
        -11    1    3    3    0    0 -0.11994552159E+01  0.46249936202E+01  0.42755798881E+01  0.64116957541E+01  0.51100000000E-03 0.  1.
        -12    1    3    3    0    0  0.65786385323E+01  0.12126314774E+02 -0.37734810781E+02  0.40177629841E+02  0.00000000000E+00 0.  1.
</event>
<event>
 7    1  0.2976321E-013  0.7246153E+02  0.7816164E-02  0.1226708E+00
        -11   -1    0    0    0    0  0.00000000000E+00  0.00000000000E+00  0.45593999997E+02  0.45594000000E+02  0.51100000000E-03 0.  1.
         11   -1    0    0    0    0 -0.00000000000E+00 -0.00000000000E+00 -0.45593999997E+02  0.45594000000E+02  0.51100000000E-03 0. -1.
    9900012    2    1    2    0    0  0.71638061792E+01 -0.76339014665E+01  0.15526884214E+02  0.72461529324E+02  0.69999946629E+02 0.  0.
         12    1    1    2    0    0 -0.71638061792E+01  0.76339014665E+01 -0.15526884214E+02  0.18726470676E+02  0.00000000000E+00 0. -1.
         11    1    3    3    0    0 -0.10227715275E+02 -0.22862158371E+02 -0.47426502854E+01  0.25490727277E+02  0.51100000000E-03 0. -1.
        -11    1    3    3    0    0  0.71091399341E+01 -0.81254334269E+01  0.18465365296E+02  0.21390003617E+02  0.51100000000E-03 0.  1.
        -12    1    3    3    0    0  0.10282381520E+02  0.23353690331E+02  0.18041692037E+01  0.25580798430E+02  0.00000000000E+00 0.  1.
</event>
<event>
 7    1  0.2976321E-013  0.7246151E+02  0.7816164E-02  0.1226708E+00
        -11   -1    0    0    0    0  0.00000000000E+00  0.00000000000E+00  0.45593999997E+02  0.45594000000E+02  0.51100000000E-03 0. -1.
         11   -1    0    0    0    0 -0.00000000000E+00 -0.00000000000E+00 -0.45593999997E+02  0.45594000000E+02  0.51100000000E-03 0.  1.
    9900012    2    1    2    0    0 -0.86568264930E-01  0.16690473379E+02 -0.84912970643E+01  0.72461507496E+02  0.69999918194E+02 0.  0.
         12    1    1    2    0    0  0.86568264930E-01 -0.16690473379E+02  0.84912970643E+01  0.18726492504E+02  0.00000000000E+00 0. -1.
         11    1    3    3    0    0  0.18963224327E+02  0.23664402021E+02 -0.26804478906E+01  0.30443268567E+02  0.51100000000E-03 0. -1.
        -11    1    3    3    0    0 -0.83178460188E+00  0.93248100892E+01  0.93682113343E+01  0.13244143335E+02  0.51100000000E-03 0.  1.
        -12    1    3    3    0    0 -0.18218007990E+02 -0.16298738731E+02 -0.15179060508E+02  0.28774095594E+02  0.00000000000E+00 0.  1.
</event>
<event>
 7    1  0.2976321E-013  0.7246159E+02  0.7816164E-02  0.1226708E+00
        -11   -1    0    0    0    0  0.00000000000E+00  0.00000000000E+00  0.45593999997E+02  0.45594000000E+02  0.51100000000E-03 0.  1.
         11   -1    0    0    0    0 -0.00000000000E+00 -0.00000000000E+00 -0.45593999997E+02  0.45594000000E+02  0.51100000000E-03 0. -1.
    9900012    2    1    2    0    0  0.64020723143E+01 -0.15323734981E+02  0.86530281957E+01  0.72461594028E+02  0.70000030917E+02 0.  0.
         12    1    1    2    0    0 -0.64020723143E+01  0.15323734981E+02 -0.86530281957E+01  0.18726405972E+02  0.00000000000E+00 0. -1.
         11    1    3    3    0    0  0.63789048104E+01  0.40100672787E+01 -0.10355127365E+02  0.12806237901E+02  0.51100000000E-03 0. -1.
        -11    1    3    3    0    0  0.46142976300E+01  0.15502144885E+02  0.18419855394E+02  0.24513247676E+02  0.51100000000E-03 0.  1.
        -12    1    3    3    0    0 -0.45911301261E+01 -0.34835947144E+02  0.58830016746E+00  0.35142108451E+02  0.00000000000E+00 0.  1.
</event>
<event>
 7    1  0.2976321E-013  0.7246152E+02  0.7816164E-02  0.1226708E+00
        -11   -1    0    0    0    0  0.00000000000E+00  0.00000000000E+00  0.45593999997E+02  0.45594000000E+02  0.51100000000E-03 0.  1.
         11   -1    0    0    0    0 -0.00000000000E+00 -0.00000000000E+00 -0.45593999997E+02  0.45594000000E+02  0.51100000000E-03 0. -1.
    9900012    2    1    2    0    0  0.57850016212E+01  0.12649591990E+02  0.12538041930E+02  0.72461523644E+02  0.69999939229E+02 0.  0.
         12    1    1    2    0    0 -0.57850016212E+01 -0.12649591990E+02 -0.12538041930E+02  0.18726476356E+02  0.00000000000E+00 0. -1.
         11    1    3    3    0    0 -0.31700826138E+01 -0.14802227869E+02 -0.95444468405E+01  0.17895581561E+02  0.51100000000E-03 0. -1.
        -11    1    3    3    0    0  0.15435861841E+01  0.65143436240E+01  0.30188890460E+02  0.30922296788E+02  0.51100000000E-03 0.  1.
        -12    1    3    3    0    0  0.74114980509E+01  0.20937476235E+02 -0.81064016893E+01  0.23643645295E+02  0.00000000000E+00 0.  1.
</event>
<event>
 7    1  0.2976321E-013  0.7246157E+02  0.7816164E-02  0.1226708E+00
        -11   -1    0    0    0    0  0.00000000000E+00  0.00000000000E+00  0.45593999997E+02  0.45594000000E+02  0.51100000000E-03 0.  1.
         11   -1    0    0    0    0 -0.00000000000E+00 -0.00000000000E+00 -0.45593999997E+02  0.45594000000E+02  0.51100000000E-03 0. -1.
    9900012    2    1    2    0    0  0.13990670790E+02  0.49271684359E+01  0.11430813419E+02  0.72461565386E+02  0.69999993606E+02 0.  0.
         12    1    1    2    0    0 -0.13990670790E+02 -0.49271684359E+01 -0.11430813419E+02  0.18726434614E+02  0.00000000000E+00 0. -1.
         11    1    3    3    0    0  0.11197103852E+01  0.23242471773E+02  0.24519485998E+02  0.33803423486E+02  0.51100000000E-03 0. -1.
        -11    1    3    3    0    0 -0.74151213264E+01 -0.92139609632E+01  0.17088869135E+01  0.11949953793E+02  0.51100000000E-03 0.  1.
        -12    1    3    3    0    0  0.20286081731E+02 -0.91013423739E+01 -0.14797559493E+02  0.26708188107E+02  0.00000000000E+00 0.  1.
</event>
<event>
 7    1  0.2976321E-013  0.7246158E+02  0.7816164E-02  0.1226708E+00
        -11   -1    0    0    0    0  0.00000000000E+00  0.00000000000E+00  0.45593999997E+02  0.45594000000E+02  0.51100000000E-03 0. -1.
         11   -1    0    0    0    0 -0.00000000000E+00 -0.00000000000E+00 -0.45593999997E+02  0.45594000000E+02  0.51100000000E-03 0.  1.
    9900012    2    1    2    0    0 -0.97233512672E+01 -0.91707911857E+01 -0.13116095739E+02  0.72461576469E+02  0.70000008043E+02 0.  0.
         12    1    1    2    0    0  0.97233512672E+01  0.91707911857E+01  0.13116095739E+02  0.18726423531E+02  0.00000000000E+00 0. -1.
         11    1    3    3    0    0  0.11989860196E+02 -0.16284737913E+02 -0.21533858448E+01  0.20336826382E+02  0.51100000000E-03 0. -1.
        -11    1    3    3    0    0  0.41949718394E+01  0.16987248785E+02  0.72629803800E+01  0.18945059891E+02  0.51100000000E-03 0.  1.
         12    1    3    3    0    0 -0.25908183302E+02 -0.98733020573E+01 -0.18225690274E+02  0.33179690196E+02  0.00000000000E+00 0. -1.
</event>
<event>
 7    1  0.2976321E-013  0.7246156E+02  0.7816164E-02  0.1226708E+00
        -11   -1    0    0    0    0  0.00000000000E+00  0.00000000000E+00  0.45593999997E+02  0.45594000000E+02  0.51100000000E-03 0.  1.
         11   -1    0    0    0    0 -0.00000000000E+00 -0.00000000000E+00 -0.45593999997E+02  0.45594000000E+02  0.51100000000E-03 0. -1.
    9900012    2    1    2    0    0  0.14229214338E+01 -0.10825905359E+02  0.15213627841E+02  0.72461564025E+02  0.69999991833E+02 0.  0.
         12    1    1    2    0    0 -0.14229214338E+01  0.10825905359E+02 -0.15213627841E+02  0.18726435975E+02  0.00000000000E+00 0. -1.
         11    1    3    3    0    0  0.16261958901E+02 -0.13952241301E+02  0.10771959071E+02  0.23982315299E+02  0.51100000000E-03 0. -1.
        -11    1    3    3    0    0  0.10720664647E+02  0.68945477709E+01  0.15762978199E+02  0.20271628484E+02  0.51100000000E-03 0.  1.
         12    1    3    3    0    0 -0.25559702114E+02 -0.37682118284E+01 -0.11321309429E+02  0.28207620242E+02  0.00000000000E+00 0. -1.
</event>
<event>
 7    1  0.2976321E-013  0.7246181E+02  0.7816164E-02  0.1226707E+00
        -11   -1    0    0    0    0  0.00000000000E+00  0.00000000000E+00  0.45593999997E+02  0.45594000000E+02  0.51100000000E-03 0.  1.
         11   -1    0    0    0    0 -0.00000000000E+00 -0.00000000000E+00 -0.45593999997E+02  0.45594000000E+02  0.51100000000E-03 0. -1.
    9900012    2    1    2    0    0  0.10592298515E+02 -0.13563118204E+02  0.73834310008E+01  0.72461814681E+02  0.70000318359E+02 0.  0.
         12    1    1    2    0    0 -0.10592298515E+02  0.13563118204E+02 -0.73834310008E+01  0.18726185319E+02  0.00000000000E+00 0. -1.
         11    1    3    3    0    0  0.10136894987E+01  0.80924561731E+01  0.35138759009E+01  0.88804694370E+01  0.51100000000E-03 0. -1.
        -11    1    3    3    0    0 -0.19755353792E+02 -0.25535275535E+02 -0.50481145082E+01  0.32677327927E+02  0.51100000000E-03 0.  1.
         12    1    3    3    0    0  0.29333962808E+02  0.38797011580E+01  0.89176696080E+01  0.30904017318E+02  0.00000000000E+00 0. -1.
</event>
<event>
 7    1  0.2976321E-013  0.7246165E+02  0.7816164E-02  0.1226708E+00
        -11   -1    0    0    0    0  0.00000000000E+00  0.00000000000E+00  0.45593999997E+02  0.45594000000E+02  0.51100000000E-03 0.  1.
         11   -1    0    0    0    0 -0.00000000000E+00 -0.00000000000E+00 -0.45593999997E+02  0.45594000000E+02  0.51100000000E-03 0. -1.
    9900012    2    1    2    0    0 -0.13784807568E+02 -0.26578432010E+01  0.12393189997E+02  0.72461649355E+02  0.70000102992E+02 0.  0.
         12    1    1    2    0    0  0.13784807568E+02  0.26578432010E+01 -0.12393189997E+02  0.18726350645E+02  0.00000000000E+00 0. -1.
         11    1    3    3    0    0 -0.63510409503E+00  0.13728401223E+02 -0.13514774858E+02  0.19274892920E+02  0.51100000000E-03 0. -1.
        -11    1    3    3    0    0  0.13511969172E+02 -0.40016852281E+01  0.17777741915E+02  0.22685565971E+02  0.51100000000E-03 0.  1.
        -12    1    3    3    0    0 -0.26661672645E+02 -0.12384559195E+02  0.81302229405E+01  0.30501190464E+02  0.00000000000E+00 0.  1.
</event>
<event>
 7    1  0.2976321E-013  0.7246164E+02  0.7816164E-02  0.1226708E+00
        -11   -1    0    0    0    0  0.00000000000E+00  0.00000000000E+00  0.45593999997E+02  0.45594000000E+02  0.51100000000E-03 0.  1.
         11   -1    0    0    0    0 -0.00000000000E+00 -0.00000000000E+00 -0.45593999997E+02  0.45594000000E+02  0.51100000000E-03 0. -1.
    9900012    2    1    2    0    0 -0.17894628070E+02  0.54868267767E+01 -0.59475358206E+00  0.72461635867E+02  0.70000085420E+02 0.  0.
         12    1    1    2    0    0  0.17894628070E+02 -0.54868267767E+01  0.59475358206E+00  0.18726364133E+02  0.00000000000E+00 0. -1.
         11    1    3    3    0    0  0.16524305097E+01 -0.18764552884E+02 -0.63559339508E+01  0.19880565087E+02  0.51100000000E-03 0. -1.
        -11    1    3    3    0    0 -0.18564239414E+02  0.34468892168E+02 -0.27501910188E+01  0.39246643974E+02  0.51100000000E-03 0.  1.
         12    1    3    3    0    0 -0.98281916575E+00 -0.10217512507E+02  0.85113713875E+01  0.13334426806E+02  0.00000000000E+00 0. -1.
</event>
<event>
 7    1  0.2976321E-013  0.7246143E+02  0.7816164E-02  0.1226708E+00
        -11   -1    0    0    0    0  0.00000000000E+00  0.00000000000E+00  0.45593999997E+02  0.45594000000E+02  0.51100000000E-03 0.  1.
         11   -1    0    0    0    0 -0.00000000000E+00 -0.00000000000E+00 -0.45593999997E+02  0.45594000000E+02  0.51100000000E-03 0. -1.
    9900012    2    1    2    0    0 -0.18487020745E+02 -0.25923288978E+01 -0.14812652877E+01  0.72461434592E+02  0.69999823222E+02 0.  0.
         12    1    1    2    0    0  0.18487020745E+02  0.25923288978E+01  0.14812652877E+01  0.18726565408E+02  0.00000000000E+00 0. -1.
         11    1    3    3    0    0 -0.16546408191E+02  0.69035696285E+01 -0.21790201282E+01  0.18060759303E+02  0.51100000000E-03 0. -1.
        -11    1    3    3    0    0 -0.25771861565E+02 -0.15161177306E+02  0.32094618538E+00  0.29902393760E+02  0.51100000000E-03 0.  1.
         12    1    3    3    0    0  0.23831249011E+02  0.56652787799E+01  0.37680865512E+00  0.24498281529E+02  0.00000000000E+00 0. -1.
</event>
<event>
 7    1  0.2976321E-013  0.7246156E+02  0.7816164E-02  0.1226708E+00
        -11   -1    0    0    0    0  0.00000000000E+00  0.00000000000E+00  0.45593999997E+02  0.45594000000E+02  0.51100000000E-03 0.  1.
         11   -1    0    0    0    0 -0.00000000000E+00 -0.00000000000E+00 -0.45593999997E+02  0.45594000000E+02  0.51100000000E-03 0. -1.
    9900012    2    1    2    0    0  0.84625998091E+01 -0.42849035963E+00  0.16699716428E+02  0.72461555375E+02  0.69999980565E+02 0.  0.
         12    1    1    2    0    0 -0.84625998091E+01  0.42849035963E+00 -0.16699716428E+02  0.18726444625E+02  0.00000000000E+00 0. -1.
         11    1    3    3    0    0 -0.50779472862E+01 -0.11827467202E+02 -0.18312455625E+02  0.22383488565E+02  0.51100000000E-03 0. -1.
        -11    1    3    3    0    0  0.96789762556E+01 -0.96918274678E+01  0.90974500901E+01  0.16443165736E+02  0.51100000000E-03 0.  1.
         12    1    3    3    0    0  0.38615708397E+01  0.21090804311E+02  0.25914721963E+02  0.33634901074E+02  0.00000000000E+00 0. -1.
</event>
<event>
 7    1  0.2976321E-013  0.7246155E+02  0.7816164E-02  0.1226708E+00
        -11   -1    0    0    0    0  0.00000000000E+00  0.00000000000E+00  0.45593999997E+02  0.45594000000E+02  0.51100000000E-03 0.  1.
         11   -1    0    0    0    0 -0.00000000000E+00 -0.00000000000E+00 -0.45593999997E+02  0.45594000000E+02  0.51100000000E-03 0. -1.
    9900012    2    1    2    0    0  0.10849746512E+02 -0.15020868671E+02 -0.27085627810E+01  0.72461553265E+02  0.69999977815E+02 0.  0.
         12    1    1    2    0    0 -0.10849746512E+02  0.15020868671E+02  0.27085627810E+01  0.18726446735E+02  0.00000000000E+00 0. -1.
         11    1    3    3    0    0  0.11704358485E+02  0.20804966323E+00 -0.19807337846E+02  0.23007953516E+02  0.51100000000E-03 0. -1.
        -11    1    3    3    0    0 -0.11500539513E+01 -0.23316252411E+01 -0.14809559048E+02  0.15036028060E+02  0.51100000000E-03 0.  1.
        -12    1    3    3    0    0  0.29544197885E+00 -0.12897293093E+02  0.31908334113E+02  0.34417571689E+02  0.00000000000E+00 0.  1.
</event>
<event>
 7    1  0.3210528E-013  0.7246153E+02  0.7816164E-02  0.1226708E+00
        -11   -1    0    0    0    0  0.00000000000E+00  0.00000000000E+00  0.45593999997E+02  0.45594000000E+02  0.51100000000E-03 0. -1.
         11   -1    0    0    0    0 -0.00000000000E+00 -0.00000000000E+00 -0.45593999997E+02  0.45594000000E+02  0.51100000000E-03 0.  1.
    9900012    2    1    2    0    0  0.14571023911E+02 -0.16713220030E+00 -0.11761717409E+02  0.72461530300E+02  0.69999947900E+02 0.  0.
         12    1    1    2    0    0 -0.14571023911E+02  0.16713220030E+00  0.11761717409E+02  0.18726469700E+02  0.00000000000E+00 0. -1.
         11    1    3    3    0    0  0.60566339107E+01  0.13243751196E+02  0.13430404655E+02  0.19810490391E+02  0.51100000000E-03 0. -1.
        -11    1    3    3    0    0 -0.20162392150E+01 -0.20483975777E+02  0.38675728935E+01  0.20943175608E+02  0.51100000000E-03 0.  1.
        -12    1    3    3    0    0  0.10530629216E+02  0.70730923811E+01 -0.29059694958E+02  0.31707864301E+02  0.00000000000E+00 0.  1.
</event>
<event>
 7    1  0.2976321E-013  0.7246157E+02  0.7816164E-02  0.1226708E+00
        -11   -1    0    0    0    0  0.00000000000E+00  0.00000000000E+00  0.45593999997E+02  0.45594000000E+02  0.51100000000E-03 0.  1.
         11   -1    0    0    0    0 -0.00000000000E+00 -0.00000000000E+00 -0.45593999997E+02  0.45594000000E+02  0.51100000000E-03 0. -1.
    9900012    2    1    2    0    0  0.47846011703E+01 -0.17450912408E+02  0.48220773487E+01  0.72461569956E+02  0.69999999560E+02 0.  0.
         12    1    1    2    0    0 -0.47846011703E+01  0.17450912408E+02 -0.48220773487E+01  0.18726430044E+02  0.00000000000E+00 0. -1.
         11    1    3    3    0    0  0.56314543087E+01 -0.29992041181E+01  0.26429243163E+02  0.27188479130E+02  0.51100000000E-03 0. -1.
        -11    1    3    3    0    0  0.13059924869E+02 -0.13190011498E+02  0.11236914870E+01  0.18595717887E+02  0.51100000000E-03 0.  1.
        -12    1    3    3    0    0 -0.13906778008E+02 -0.12616967919E+01 -0.22730857301E+02  0.26677372940E+02  0.00000000000E+00 0.  1.
</event>
<event>
 7    1  0.2976321E-013  0.7246157E+02  0.7816164E-02  0.1226708E+00
        -11   -1    0    0    0    0  0.00000000000E+00  0.00000000000E+00  0.45593999997E+02  0.45594000000E+02  0.51100000000E-03 0. -1.
         11   -1    0    0    0    0 -0.00000000000E+00 -0.00000000000E+00 -0.45593999997E+02  0.45594000000E+02  0.51100000000E-03 0.  1.
    9900012    2    1    2    0    0 -0.15140493868E+02 -0.10503622621E+02 -0.33344454689E+01  0.72461570300E+02  0.70000000007E+02 0.  0.
         12    1    1    2    0    0  0.15140493868E+02  0.10503622621E+02  0.33344454689E+01  0.18726429700E+02  0.00000000000E+00 0. -1.
         11    1    3    3    0    0 -0.40553240951E+01 -0.30455147459E+02  0.16991473336E+01  0.30770907725E+02  0.51100000000E-03 0. -1.
        -11    1    3    3    0    0 -0.15552510212E+02  0.49702153550E+01  0.10691866546E+02  0.19516649945E+02  0.51100000000E-03 0.  1.
        -12    1    3    3    0    0  0.44673404397E+01  0.14981309483E+02 -0.15725459348E+02  0.22174012630E+02  0.00000000000E+00 0.  1.
</event>
<event>
 7    1  0.2976321E-013  0.7246159E+02  0.7816164E-02  0.1226708E+00
        -11   -1    0    0    0    0  0.00000000000E+00  0.00000000000E+00  0.45593999997E+02  0.45594000000E+02  0.51100000000E-03 0.  1.
         11   -1    0    0    0    0 -0.00000000000E+00 -0.00000000000E+00 -0.45593999997E+02  0.45594000000E+02  0.51100000000E-03 0. -1.
    9900012    2    1    2    0    0 -0.86495116035E+00 -0.18038353815E+02 -0.49546015292E+01  0.72461590168E+02  0.70000025889E+02 0.  0.
         12    1    1    2    0    0  0.86495116035E+00  0.18038353815E+02  0.49546015292E+01  0.18726409832E+02  0.00000000000E+00 0. -1.
         11    1    3    3    0    0  0.26446614606E+02  0.98110379220E+01  0.12319434191E+01  0.28234687427E+02  0.51100000000E-03 0. -1.
        -11    1    3    3    0    0 -0.44982077554E+01  0.28113950683E+01  0.83641939035E+00  0.53700477557E+01  0.51100000000E-03 0.  1.
        -12    1    3    3    0    0 -0.22813358011E+02 -0.30660786806E+02 -0.70229643386E+01  0.38856854986E+02  0.00000000000E+00 0.  1.
</event>
<event>
 7    1  0.2976321E-013  0.7246154E+02  0.7816164E-02  0.1226708E+00
        -11   -1    0    0    0    0  0.00000000000E+00  0.00000000000E+00  0.45593999997E+02  0.45594000000E+02  0.51100000000E-03 0. -1.
         11   -1    0    0    0    0 -0.00000000000E+00 -0.00000000000E+00 -0.45593999997E+02  0.45594000000E+02  0.51100000000E-03 0.  1.
    9900012    2    1    2    0    0  0.36618925684E+01 -0.11836365052E+02 -0.14041766905E+02  0.72461542443E+02  0.69999963718E+02 0.  0.
         12    1    1    2    0    0 -0.36618925684E+01  0.11836365052E+02  0.14041766905E+02  0.18726457557E+02  0.00000000000E+00 0. -1.
         11    1    3    3    0    0 -0.12082495505E+02  0.95145503599E+01 -0.29279976456E+01  0.15655239910E+02  0.51100000000E-03 0. -1.
        -11    1    3    3    0    0 -0.58753895271E+01 -0.30991382947E+02 -0.10068934502E+02  0.33111470238E+02  0.51100000000E-03 0.  1.
         12    1    3    3    0    0  0.21619777600E+02  0.96404675351E+01 -0.10448347575E+01  0.23694832294E+02  0.00000000000E+00 0. -1.
</event>
<event>
 7    1  0.2976321E-013  0.7246158E+02  0.7816164E-02  0.1226708E+00
        -11   -1    0    0    0    0  0.00000000000E+00  0.00000000000E+00  0.45593999997E+02  0.45594000000E+02  0.51100000000E-03 0.  1.
         11   -1    0    0    0    0 -0.00000000000E+00 -0.00000000000E+00 -0.45593999997E+02  0.45594000000E+02  0.51100000000E-03 0. -1.
    9900012    2    1    2    0    0  0.13968822086E+02 -0.11809290328E+02  0.40114072259E+01  0.72461582391E+02  0.70000015758E+02 0.  0.
         12    1    1    2    0    0 -0.13968822086E+02  0.11809290328E+02 -0.40114072259E+01  0.18726417609E+02  0.00000000000E+00 0. -1.
         11    1    3    3    0    0 -0.53519290291E+01 -0.96223998350E+01 -0.60869459328E+01  0.12581122127E+02  0.51100000000E-03 0. -1.
        -11    1    3    3    0    0  0.12023842293E+02 -0.28740828602E+02  0.85122937795E+01  0.32296550247E+02  0.51100000000E-03 0.  1.
         12    1    3    3    0    0  0.72969088224E+01  0.26553938109E+02  0.15860593792E+01  0.27583910017E+02  0.00000000000E+00 0. -1.
</event>
<event>
 7    1  0.2976321E-013  0.7246169E+02  0.7816164E-02  0.1226708E+00
        -11   -1    0    0    0    0  0.00000000000E+00  0.00000000000E+00  0.45593999997E+02  0.45594000000E+02  0.51100000000E-03 0.  1.
         11   -1    0    0    0    0 -0.00000000000E+00 -0.00000000000E+00 -0.45593999997E+02  0.45594000000E+02  0.51100000000E-03 0. -1.
    9900012    2    1    2    0    0 -0.44602540682E+01  0.17721126615E+02  0.40917816160E+01  0.72461685049E+02  0.70000149489E+02 0.  0.
         12    1    1    2    0    0  0.44602540682E+01 -0.17721126615E+02 -0.40917816160E+01  0.18726314951E+02  0.00000000000E+00 0. -1.
         11    1    3    3    0    0  0.10879930418E+02  0.25711185640E+01 -0.15068186372E+02  0.18762563188E+02  0.51100000000E-03 0. -1.
        -11    1    3    3    0    0  0.11506062095E+01 -0.53015692564E+01 -0.11864127374E+02  0.13045614199E+02  0.51100000000E-03 0.  1.
        -12    1    3    3    0    0 -0.16490790696E+02  0.20451577307E+02  0.31024095362E+02  0.40653507662E+02  0.00000000000E+00 0.  1.
</event>
<event>
 7    1  0.2976321E-013  0.7246159E+02  0.7816164E-02  0.1226708E+00
        -11   -1    0    0    0    0  0.00000000000E+00  0.00000000000E+00  0.45593999997E+02  0.45594000000E+02  0.51100000000E-03 0. -1.
         11   -1    0    0    0    0 -0.00000000000E+00 -0.00000000000E+00 -0.45593999997E+02  0.45594000000E+02  0.51100000000E-03 0.  1.
    9900012    2    1    2    0    0 -0.10478948618E+02  0.14202051056E+02  0.62587265939E+01  0.72461594127E+02  0.70000031046E+02 0.  0.
         12    1    1    2    0    0  0.10478948618E+02 -0.14202051056E+02 -0.62587265939E+01  0.18726405873E+02  0.00000000000E+00 0. -1.
         11    1    3    3    0    0 -0.16618410841E+02 -0.19641051943E+02  0.39137993359E+01  0.26024225748E+02  0.51100000000E-03 0. -1.
        -11    1    3    3    0    0  0.27225172632E+01 -0.27335876817E+01  0.83646177679E+01  0.92114837310E+01  0.51100000000E-03 0.  1.
        -12    1    3    3    0    0  0.34169449595E+01  0.36576690680E+02 -0.60196905099E+01  0.37225884648E+02  0.00000000000E+00 0.  1.
</event>
<event>
 7    1  0.2976321E-013  0.7246177E+02  0.7816164E-02  0.1226707E+00
        -11   -1    0    0    0    0  0.00000000000E+00  0.00000000000E+00  0.45593999997E+02  0.45594000000E+02  0.51100000000E-03 0.  1.
         11   -1    0    0    0    0 -0.00000000000E+00 -0.00000000000E+00 -0.45593999997E+02  0.45594000000E+02  0.51100000000E-03 0. -1.
    9900012    2    1    2    0    0  0.11773109314E+02  0.89984079040E+01  0.11449635773E+02  0.72461772215E+02  0.70000263038E+02 0.  0.
         12    1    1    2    0    0 -0.11773109314E+02 -0.89984079040E+01 -0.11449635773E+02  0.18726227785E+02  0.00000000000E+00 0. -1.
         11    1    3    3    0    0 -0.12667365239E+02 -0.22792742100E+02  0.74793719239E+01  0.27127702431E+02  0.51100000000E-03 0. -1.
        -11    1    3    3    0    0  0.77706863696E+00  0.11837459124E+02  0.77211413977E+01  0.14154338519E+02  0.51100000000E-03 0.  1.
        -12    1    3    3    0    0  0.23663405916E+02  0.19953690881E+02 -0.37508775482E+01  0.31179731264E+02  0.00000000000E+00 0.  1.
</event>
<event>
 7    1  0.2976321E-013  0.7246193E+02  0.7816164E-02  0.1226707E+00
        -11   -1    0    0    0    0  0.00000000000E+00  0.00000000000E+00  0.45593999997E+02  0.45594000000E+02  0.51100000000E-03 0. -1.
         11   -1    0    0    0    0 -0.00000000000E+00 -0.00000000000E+00 -0.45593999997E+02  0.45594000000E+02  0.51100000000E-03 0.  1.
    9900012    2    1    2    0    0  0.73920670510E+01 -0.61533448818E+01 -0.16067340101E+02  0.72461929231E+02  0.70000467580E+02 0.  0.
         12    1    1    2    0    0 -0.73920670510E+01  0.61533448818E+01  0.16067340101E+02  0.18726070769E+02  0.00000000000E+00 0. -1.
         11    1    3    3    0    0  0.38336367876E+01  0.11374756468E+02 -0.94497418483E+01  0.15276762648E+02  0.51100000000E-03 0. -1.
        -11    1    3    3    0    0 -0.23893731553E+01  0.18236231470E+02 -0.97101277789E+01  0.20797976441E+02  0.51100000000E-03 0.  1.
         12    1    3    3    0    0  0.59478034187E+01 -0.35764332820E+02  0.30925295263E+01  0.36387190142E+02  0.00000000000E+00 0. -1.
</event>
<event>
 7    1  0.2976321E-013  0.7246145E+02  0.7816164E-02  0.1226708E+00
        -11   -1    0    0    0    0  0.00000000000E+00  0.00000000000E+00  0.45593999997E+02  0.45594000000E+02  0.51100000000E-03 0.  1.
         11   -1    0    0    0    0 -0.00000000000E+00 -0.00000000000E+00 -0.45593999997E+02  0.45594000000E+02  0.51100000000E-03 0. -1.
    9900012    2    1    2    0    0 -0.94428845234E+01  0.28472295502E+01  0.15918822860E+02  0.72461449183E+02  0.69999842230E+02 0.  0.
         12    1    1    2    0    0  0.94428845234E+01 -0.28472295502E+01 -0.15918822860E+02  0.18726550817E+02  0.00000000000E+00 0. -1.
         11    1    3    3    0    0  0.11642506538E+02  0.89424921669E+01  0.13216866009E+02  0.19753523028E+02  0.51100000000E-03 0. -1.
        -11    1    3    3    0    0  0.12755011547E+02 -0.37031270479E+01  0.11601548198E+02  0.17635174803E+02  0.51100000000E-03 0.  1.
        -12    1    3    3    0    0 -0.33840402609E+02 -0.23921355689E+01 -0.88995913463E+01  0.35072751353E+02  0.00000000000E+00 0.  1.
</event>
<event>
 7    1  0.2976321E-013  0.7246156E+02  0.7816164E-02  0.1226708E+00
        -11   -1    0    0    0    0  0.00000000000E+00  0.00000000000E+00  0.45593999997E+02  0.45594000000E+02  0.51100000000E-03 0.  1.
         11   -1    0    0    0    0 -0.00000000000E+00 -0.00000000000E+00 -0.45593999997E+02  0.45594000000E+02  0.51100000000E-03 0. -1.
    9900012    2    1    2    0    0 -0.35247872523E+01  0.10098662261E+02  0.15371161345E+02  0.72461555978E+02  0.69999981350E+02 0.  0.
         12    1    1    2    0    0  0.35247872523E+01 -0.10098662261E+02 -0.15371161345E+02  0.18726444022E+02  0.00000000000E+00 0. -1.
         11    1    3    3    0    0 -0.39348656952E+00  0.83916189715E+01 -0.24667951879E+02  0.26059200886E+02  0.51100000000E-03 0. -1.
        -11    1    3    3    0    0 -0.74772747151E+01 -0.71023843994E+01  0.84854655296E+01  0.13355022532E+02  0.51100000000E-03 0.  1.
        -12    1    3    3    0    0  0.43459740324E+01  0.88094276887E+01  0.31553647694E+02  0.33047332560E+02  0.00000000000E+00 0.  1.
</event>
<event>
 7    1  0.2976321E-013  0.7246159E+02  0.7816164E-02  0.1226708E+00
        -11   -1    0    0    0    0  0.00000000000E+00  0.00000000000E+00  0.45593999997E+02  0.45594000000E+02  0.51100000000E-03 0.  1.
         11   -1    0    0    0    0 -0.00000000000E+00 -0.00000000000E+00 -0.45593999997E+02  0.45594000000E+02  0.51100000000E-03 0. -1.
    9900012    2    1    2    0    0 -0.38737961855E+01 -0.14722028531E+02 -0.10905692712E+02  0.72461586716E+02  0.70000021392E+02 0.  0.
         12    1    1    2    0    0  0.38737961855E+01  0.14722028531E+02  0.10905692712E+02  0.18726413284E+02  0.00000000000E+00 0. -1.
         11    1    3    3    0    0 -0.14831003995E+01  0.98821684313E+01  0.96139930993E+01  0.13866712057E+02  0.51100000000E-03 0. -1.
        -11    1    3    3    0    0 -0.42321684798E+01 -0.55405034501E+01  0.15947105314E+02  0.17404556779E+02  0.51100000000E-03 0.  1.
         12    1    3    3    0    0  0.18414726939E+01 -0.19063693513E+02 -0.36466791125E+02  0.41190317879E+02  0.00000000000E+00 0. -1.
</event>
<event>
 7    1  0.2976321E-013  0.7246161E+02  0.7816164E-02  0.1226708E+00
        -11   -1    0    0    0    0  0.00000000000E+00  0.00000000000E+00  0.45593999997E+02  0.45594000000E+02  0.51100000000E-03 0.  1.
         11   -1    0    0    0    0 -0.00000000000E+00 -0.00000000000E+00 -0.45593999997E+02  0.45594000000E+02  0.51100000000E-03 0. -1.
    9900012    2    1    2    0    0  0.18177694847E+02  0.18886631569E+01 -0.40843745442E+01  0.72461608092E+02  0.70000049238E+02 0.  0.
         12    1    1    2    0    0 -0.18177694847E+02 -0.18886631569E+01  0.40843745442E+01  0.18726391908E+02  0.00000000000E+00 0. -1.
         11    1    3    3    0    0  0.20217693255E+02 -0.89382736404E+01  0.88771591398E+01  0.23821247047E+02  0.51100000000E-03 0. -1.
        -11    1    3    3    0    0  0.14276286937E+02 -0.11864130502E+02 -0.22029432883E+01  0.18692857477E+02  0.51100000000E-03 0.  1.
         12    1    3    3    0    0 -0.16316285345E+02  0.22691067299E+02 -0.10758590396E+02  0.29947503568E+02  0.00000000000E+00 0. -1.
</event>
<event>
 7    1  0.2976321E-013  0.7246158E+02  0.7816164E-02  0.1226708E+00
        -11   -1    0    0    0    0  0.00000000000E+00  0.00000000000E+00  0.45593999997E+02  0.45594000000E+02  0.51100000000E-03 0. -1.
         11   -1    0    0    0    0 -0.00000000000E+00 -0.00000000000E+00 -0.45593999997E+02  0.45594000000E+02  0.51100000000E-03 0.  1.
    9900012    2    1    2    0    0 -0.12413709296E+01  0.73418395583E+01 -0.17182411486E+02  0.72461578176E+02  0.70000010267E+02 0.  0.
         12    1    1    2    0    0  0.12413709296E+01 -0.73418395583E+01  0.17182411486E+02  0.18726421824E+02  0.00000000000E+00 0. -1.
         11    1    3    3    0    0 -0.51074453317E+00  0.45705013540E+01 -0.10486027716E+01  0.47169810937E+01  0.51100000000E-03 0. -1.
        -11    1    3    3    0    0 -0.20210784650E+02  0.26119615172E+02 -0.17363475702E+02  0.37312201779E+02  0.51100000000E-03 0.  1.
         12    1    3    3    0    0  0.19480158253E+02 -0.23348276968E+02  0.12296669884E+01  0.30432395302E+02  0.00000000000E+00 0. -1.
</event>
<event>
 7    1  0.2976321E-013  0.7246159E+02  0.7816164E-02  0.1226708E+00
        -11   -1    0    0    0    0  0.00000000000E+00  0.00000000000E+00  0.45593999997E+02  0.45594000000E+02  0.51100000000E-03 0.  1.
         11   -1    0    0    0    0 -0.00000000000E+00 -0.00000000000E+00 -0.45593999997E+02  0.45594000000E+02  0.51100000000E-03 0. -1.
    9900012    2    1    2    0    0  0.18467882728E+02  0.25280335695E+00  0.30905751458E+01  0.72461594666E+02  0.70000031748E+02 0.  0.
         12    1    1    2    0    0 -0.18467882728E+02 -0.25280335695E+00 -0.30905751458E+01  0.18726405334E+02  0.00000000000E+00 0. -1.
         11    1    3    3    0    0 -0.23837924536E+02 -0.91808046435E+01 -0.52827003653E+01  0.26085259123E+02  0.51100000000E-03 0. -1.
        -11    1    3    3    0    0  0.79430292437E+01 -0.28913798813E+01 -0.14386949168E+01  0.85744757571E+01  0.51100000000E-03 0.  1.
        -12    1    3    3    0    0  0.34362778021E+02  0.12324987882E+02  0.98119704278E+01  0.37801859786E+02  0.00000000000E+00 0.  1.
</event>
<event>
 7    1  0.2976321E-013  0.7246149E+02  0.7816164E-02  0.1226708E+00
        -11   -1    0    0    0    0  0.00000000000E+00  0.00000000000E+00  0.45593999997E+02  0.45594000000E+02  0.51100000000E-03 0. -1.
         11   -1    0    0    0    0 -0.00000000000E+00 -0.00000000000E+00 -0.45593999997E+02  0.45594000000E+02  0.51100000000E-03 0.  1.
    9900012    2    1    2    0    0 -0.11852504932E+02 -0.14309508424E+02 -0.23319889084E+01  0.72461492670E+02  0.69999898880E+02 0.  0.
         12    1    1    2    0    0  0.11852504932E+02  0.14309508424E+02  0.23319889084E+01  0.18726507330E+02  0.00000000000E+00 0. -1.
         11    1    3    3    0    0 -0.17700005564E+02  0.22759944324E+02  0.14863593930E+01  0.28870651657E+02  0.51100000000E-03 0. -1.
        -11    1    3    3    0    0 -0.18138655050E+01 -0.48450987447E+01  0.70376222362E+01  0.87345988412E+01  0.51100000000E-03 0.  1.
        -12    1    3    3    0    0  0.76613661371E+01 -0.32224354004E+02 -0.10855970538E+02  0.34856242172E+02  0.00000000000E+00 0.  1.
</event>
<event>
 7    1  0.2976321E-013  0.7246166E+02  0.7816164E-02  0.1226708E+00
        -11   -1    0    0    0    0  0.00000000000E+00  0.00000000000E+00  0.45593999997E+02  0.45594000000E+02  0.51100000000E-03 0. -1.
         11   -1    0    0    0    0 -0.00000000000E+00 -0.00000000000E+00 -0.45593999997E+02  0.45594000000E+02  0.51100000000E-03 0.  1.
    9900012    2    1    2    0    0  0.18221406584E+02  0.27131065686E+01 -0.33608295335E+01  0.72461660787E+02  0.70000117884E+02 0.  0.
         12    1    1    2    0    0 -0.18221406584E+02 -0.27131065686E+01  0.33608295335E+01  0.18726339213E+02  0.00000000000E+00 0. -1.
         11    1    3    3    0    0  0.81742197651E+01  0.12550281007E+02  0.37191564350E+01  0.15432418701E+02  0.51100000000E-03 0. -1.
        -11    1    3    3    0    0  0.25186507892E+02 -0.69624559294E+01 -0.23044433209E+02  0.34840807605E+02  0.51100000000E-03 0.  1.
         12    1    3    3    0    0 -0.15139321072E+02 -0.28747185088E+01  0.15964447241E+02  0.22188434482E+02  0.00000000000E+00 0. -1.
</event>
<event>
 7    1  0.2976321E-013  0.7246156E+02  0.7816164E-02  0.1226708E+00
        -11   -1    0    0    0    0  0.00000000000E+00  0.00000000000E+00  0.45593999997E+02  0.45594000000E+02  0.51100000000E-03 0.  1.
         11   -1    0    0    0    0 -0.00000000000E+00 -0.00000000000E+00 -0.45593999997E+02  0.45594000000E+02  0.51100000000E-03 0. -1.
    9900012    2    1    2    0    0 -0.96839254298E+01 -0.79529865956E+01  0.13915857626E+02  0.72461561444E+02  0.69999988471E+02 0.  0.
         12    1    1    2    0    0  0.96839254298E+01  0.79529865956E+01 -0.13915857626E+02  0.18726438556E+02  0.00000000000E+00 0. -1.
         11    1    3    3    0    0  0.18019221456E+01  0.16932080481E+02  0.45367024199E+01  0.17621689532E+02  0.51100000000E-03 0. -1.
        -11    1    3    3    0    0  0.19674647501E+00  0.83562252083E+01  0.16861647478E+02  0.18819680253E+02  0.51100000000E-03 0.  1.
        -12    1    3    3    0    0 -0.11682594050E+02 -0.33241292285E+02 -0.74824922716E+01  0.36020191659E+02  0.00000000000E+00 0.  1.
</event>
<event>
 7    1  0.2976321E-013  0.7246158E+02  0.7816164E-02  0.1226708E+00
        -11   -1    0    0    0    0  0.00000000000E+00  0.00000000000E+00  0.45593999997E+02  0.45594000000E+02  0.51100000000E-03 0. -1.
         11   -1    0    0    0    0 -0.00000000000E+00 -0.00000000000E+00 -0.45593999997E+02  0.45594000000E+02  0.51100000000E-03 0.  1.
    9900012    2    1    2    0    0  0.34524955783E+01  0.17403431477E+02  0.59899595356E+01  0.72461581011E+02  0.70000013961E+02 0.  0.
         12    1    1    2    0    0 -0.34524955783E+01 -0.17403431477E+02 -0.59899595356E+01  0.18726418989E+02  0.00000000000E+00 0. -1.
         11    1    3    3    0    0  0.18427925546E+02  0.37247111815E+02  0.35016424591E+01  0.41703684234E+02  0.51100000000E-03 0. -1.
        -11    1    3    3    0    0  0.29859609501E+01 -0.29651287798E+01  0.43347728966E+01  0.60413746617E+01  0.51100000000E-03 0.  1.
        -12    1    3    3    0    0 -0.17961390918E+02 -0.16878551558E+02 -0.18464558201E+01  0.24716522116E+02  0.00000000000E+00 0.  1.
</event>
<event>
 7    1  0.2976321E-013  0.7246155E+02  0.7816164E-02  0.1226708E+00
        -11   -1    0    0    0    0  0.00000000000E+00  0.00000000000E+00  0.45593999997E+02  0.45594000000E+02  0.51100000000E-03 0. -1.
         11   -1    0    0    0    0 -0.00000000000E+00 -0.00000000000E+00 -0.45593999997E+02  0.45594000000E+02  0.51100000000E-03 0.  1.
    9900012    2    1    2    0    0 -0.14525379454E+02  0.50709357023E+01  0.10676092538E+02  0.72461548413E+02  0.69999971495E+02 0.  0.
         12    1    1    2    0    0  0.14525379454E+02 -0.50709357023E+01 -0.10676092538E+02  0.18726451587E+02  0.00000000000E+00 0. -1.
         11    1    3    3    0    0  0.10167553314E+02  0.70729119644E+01  0.20520695945E+02  0.23968816959E+02  0.51100000000E-03 0. -1.
        -11    1    3    3    0    0  0.79841015194E+01  0.86379701031E+01  0.24108907589E+01  0.12007197803E+02  0.51100000000E-03 0.  1.
        -12    1    3    3    0    0 -0.32677034288E+02 -0.10639946365E+02 -0.12255494166E+02  0.36485533651E+02  0.00000000000E+00 0.  1.
</event>
<event>
 7    1  0.2976321E-013  0.7246149E+02  0.7816164E-02  0.1226708E+00
        -11   -1    0    0    0    0  0.00000000000E+00  0.00000000000E+00  0.45593999997E+02  0.45594000000E+02  0.51100000000E-03 0.  1.
         11   -1    0    0    0    0 -0.00000000000E+00 -0.00000000000E+00 -0.45593999997E+02  0.45594000000E+02  0.51100000000E-03 0. -1.
    9900012    2    1    2    0    0  0.38918582420E+01  0.14098804722E+01  0.18263290599E+02  0.72461491863E+02  0.69999897828E+02 0.  0.
         12    1    1    2    0    0 -0.38918582420E+01 -0.14098804722E+01 -0.18263290599E+02  0.18726508137E+02  0.00000000000E+00 0. -1.
         11    1    3    3    0    0 -0.20228651329E+02  0.12397374867E+02 -0.12889794333E+02  0.27000741405E+02  0.51100000000E-03 0. -1.
        -11    1    3    3    0    0 -0.15639746969E+01 -0.37384453858E+01 -0.47193888538E+00  0.40797937850E+01  0.51100000000E-03 0.  1.
         12    1    3    3    0    0  0.25684484268E+02 -0.72490490089E+01  0.31625023818E+02  0.41380956673E+02  0.00000000000E+00 0. -1.
</event>
<event>
 7    1  0.2976321E-013  0.7246159E+02  0.7816164E-02  0.1226708E+00
        -11   -1    0    0    0    0  0.00000000000E+00  0.00000000000E+00  0.45593999997E+02  0.45594000000E+02  0.51100000000E-03 0. -1.
         11   -1    0    0    0    0 -0.00000000000E+00 -0.00000000000E+00 -0.45593999997E+02  0.45594000000E+02  0.51100000000E-03 0.  1.
    9900012    2    1    2    0    0 -0.86451646863E+01  0.96236084480E+00 -0.16583532318E+02  0.72461586703E+02  0.70000021375E+02 0.  0.
         12    1    1    2    0    0  0.86451646863E+01 -0.96236084480E+00  0.16583532318E+02  0.18726413297E+02  0.00000000000E+00 0. -1.
         11    1    3    3    0    0 -0.15536145517E+01  0.60202083954E+01  0.92909193499E+01  0.11179347473E+02  0.51100000000E-03 0.  1.
        -11    1    3    3    0    0  0.16231817399E+02 -0.12403202379E+02  0.58296300486E+01  0.21243726418E+02  0.51100000000E-03 0. -1.
        -12    1    3    3    0    0 -0.23323367534E+02  0.73453548286E+01 -0.31704081716E+02  0.40038512812E+02  0.00000000000E+00 0.  1.
</event>
<event>
 7    1  0.2976321E-013  0.7246155E+02  0.7816164E-02  0.1226708E+00
        -11   -1    0    0    0    0  0.00000000000E+00  0.00000000000E+00  0.45593999997E+02  0.45594000000E+02  0.51100000000E-03 0.  1.
         11   -1    0    0    0    0 -0.00000000000E+00 -0.00000000000E+00 -0.45593999997E+02  0.45594000000E+02  0.51100000000E-03 0. -1.
    9900012    2    1    2    0    0  0.62016446636E+01  0.93660801958E+01  0.14983198490E+02  0.72461545670E+02  0.69999967923E+02 0.  0.
         12    1    1    2    0    0 -0.62016446636E+01 -0.93660801958E+01 -0.14983198490E+02  0.18726454330E+02  0.00000000000E+00 0. -1.
         11    1    3    3    0    0  0.80715908393E+01 -0.15619678699E+01 -0.23879050864E+01  0.85610988352E+01  0.51100000000E-03 0. -1.
        -11    1    3    3    0    0  0.96653857272E+01 -0.21269242341E+02 -0.38107140078E+01  0.23671119376E+02  0.51100000000E-03 0.  1.
        -12    1    3    3    0    0 -0.11535331903E+02  0.32197290407E+02  0.21181817584E+02  0.40229327459E+02  0.00000000000E+00 0.  1.
</event>
<event>
 7    1  0.3167484E-013  0.7246159E+02  0.7816164E-02  0.1226708E+00
        -11   -1    0    0    0    0  0.00000000000E+00  0.00000000000E+00  0.45593999997E+02  0.45594000000E+02  0.51100000000E-03 0. -1.
         11   -1    0    0    0    0 -0.00000000000E+00 -0.00000000000E+00 -0.45593999997E+02  0.45594000000E+02  0.51100000000E-03 0.  1.
    9900012    2    1    2    0    0  0.24079012865E+01 -0.17535075901E+02 -0.61156958358E+01  0.72461585207E+02  0.70000019426E+02 0.  0.
         12    1    1    2    0    0 -0.24079012865E+01  0.17535075901E+02  0.61156958358E+01  0.18726414793E+02  0.00000000000E+00 0. -1.
         11    1    3    3    0    0 -0.21846565898E+02 -0.28182960333E+01  0.13449819010E+02  0.25809162438E+02  0.51100000000E-03 0. -1.
        -11    1    3    3    0    0 -0.72890160953E+01 -0.63989655629E+01 -0.37493758050E+01  0.10398766037E+02  0.51100000000E-03 0.  1.
        -12    1    3    3    0    0  0.31543483280E+02 -0.83178143047E+01 -0.15816139041E+02  0.36253656731E+02  0.00000000000E+00 0.  1.
</event>
<event>
 7    1  0.2976321E-013  0.7246155E+02  0.7816164E-02  0.1226708E+00
        -11   -1    0    0    0    0  0.00000000000E+00  0.00000000000E+00  0.45593999997E+02  0.45594000000E+02  0.51100000000E-03 0.  1.
         11   -1    0    0    0    0 -0.00000000000E+00 -0.00000000000E+00 -0.45593999997E+02  0.45594000000E+02  0.51100000000E-03 0. -1.
    9900012    2    1    2    0    0  0.54233685900E+01 -0.11289882971E+02  0.13921410340E+02  0.72461546780E+02  0.69999969368E+02 0.  0.
         12    1    1    2    0    0 -0.54233685900E+01  0.11289882971E+02 -0.13921410340E+02  0.18726453220E+02  0.00000000000E+00 0. -1.
         11    1    3    3    0    0 -0.66808003447E+01  0.79575119769E+01  0.77388541817E+01  0.12955499003E+02  0.51100000000E-03 0. -1.
        -11    1    3    3    0    0  0.22855961842E+02  0.11752676928E+02 -0.17135591979E+01  0.25757653078E+02  0.51100000000E-03 0.  1.
         12    1    3    3    0    0 -0.10751792907E+02 -0.31000071876E+02  0.78961153558E+01  0.33748394699E+02  0.00000000000E+00 0. -1.
</event>
<event>
 7    1  0.2976321E-013  0.7246183E+02  0.7816164E-02  0.1226707E+00
        -11   -1    0    0    0    0  0.00000000000E+00  0.00000000000E+00  0.45593999997E+02  0.45594000000E+02  0.51100000000E-03 0.  1.
         11   -1    0    0    0    0 -0.00000000000E+00 -0.00000000000E+00 -0.45593999997E+02  0.45594000000E+02  0.51100000000E-03 0. -1.
    9900012    2    1    2    0    0  0.47886837679E+01 -0.98231619947E+01  0.15206689453E+02  0.72461830933E+02  0.70000339530E+02 0.  0.
         12    1    1    2    0    0 -0.47886837679E+01  0.98231619947E+01 -0.15206689453E+02  0.18726169067E+02  0.00000000000E+00 0. -1.
         11    1    3    3    0    0 -0.44830894410E+01 -0.23994088698E+00  0.29549864940E+01  0.53747193421E+01  0.51100000000E-03 0. -1.
        -11    1    3    3    0    0  0.23390573169E+02 -0.25622632963E+02  0.24486187260E+02  0.42464239072E+02  0.51100000000E-03 0.  1.
         12    1    3    3    0    0 -0.14118799961E+02  0.16039411855E+02 -0.12234484301E+02  0.24622872520E+02  0.00000000000E+00 0. -1.
</event>
<event>
 7    1  0.2976321E-013  0.7246096E+02  0.7816164E-02  0.1226710E+00
        -11   -1    0    0    0    0  0.00000000000E+00  0.00000000000E+00  0.45593999997E+02  0.45594000000E+02  0.51100000000E-03 0. -1.
         11   -1    0    0    0    0 -0.00000000000E+00 -0.00000000000E+00 -0.45593999997E+02  0.45594000000E+02  0.51100000000E-03 0.  1.
    9900012    2    1    2    0    0 -0.27775794460E+01 -0.17657343676E+02 -0.55861610304E+01  0.72460962639E+02  0.69999208411E+02 0.  0.
         12    1    1    2    0    0  0.27775794460E+01  0.17657343676E+02  0.55861610304E+01  0.18727037361E+02  0.00000000000E+00 0. -1.
         11    1    3    3    0    0 -0.56408326487E+01 -0.23373900530E+01  0.27631658453E+02  0.28298249670E+02  0.51100000000E-03 0. -1.
        -11    1    3    3    0    0  0.10654799820E+02  0.67196573431E+00 -0.81831339802E+01  0.13451393204E+02  0.51100000000E-03 0.  1.
        -12    1    3    3    0    0 -0.77915466168E+01 -0.15991919357E+02 -0.25034685504E+02  0.30711319764E+02  0.00000000000E+00 0.  1.
</event>
<event>
 7    1  0.2976321E-013  0.7246182E+02  0.7816164E-02  0.1226707E+00
        -11   -1    0    0    0    0  0.00000000000E+00  0.00000000000E+00  0.45593999997E+02  0.45594000000E+02  0.51100000000E-03 0.  1.
         11   -1    0    0    0    0 -0.00000000000E+00 -0.00000000000E+00 -0.45593999997E+02  0.45594000000E+02  0.51100000000E-03 0. -1.
    9900012    2    1    2    0    0  0.13831122755E+02  0.73686805853E+01  0.10250484747E+02  0.72461819189E+02  0.70000324230E+02 0.  0.
         12    1    1    2    0    0 -0.13831122755E+02 -0.73686805853E+01 -0.10250484747E+02  0.18726180811E+02  0.00000000000E+00 0. -1.
         11    1    3    3    0    0  0.46062353983E+01 -0.98393146728E+01 -0.19524722005E+02  0.22343775138E+02  0.51100000000E-03 0. -1.
        -11    1    3    3    0    0  0.55127159991E+01 -0.86034053512E+01 -0.41311131464E+00  0.10226401251E+02  0.51100000000E-03 0.  1.
        -12    1    3    3    0    0  0.37121713576E+01  0.25811400609E+02  0.30188318067E+02  0.39891642800E+02  0.00000000000E+00 0.  1.
</event>
<event>
 7    1  0.2976321E-013  0.7246158E+02  0.7816164E-02  0.1226708E+00
        -11   -1    0    0    0    0  0.00000000000E+00  0.00000000000E+00  0.45593999997E+02  0.45594000000E+02  0.51100000000E-03 0. -1.
         11   -1    0    0    0    0 -0.00000000000E+00 -0.00000000000E+00 -0.45593999997E+02  0.45594000000E+02  0.51100000000E-03 0.  1.
    9900012    2    1    2    0    0 -0.81543651225E+01  0.13924107443E+02 -0.95028564926E+01  0.72461582292E+02  0.70000015630E+02 0.  0.
         12    1    1    2    0    0  0.81543651225E+01 -0.13924107443E+02  0.95028564926E+01  0.18726417708E+02  0.00000000000E+00 0. -1.
         11    1    3    3    0    0 -0.36901812065E+01 -0.27442294713E+01  0.17243504302E+02  0.17846194933E+02  0.51100000000E-03 0. -1.
        -11    1    3    3    0    0  0.14488749883E+02 -0.62508217634E+01 -0.17288836114E+02  0.23407274517E+02  0.51100000000E-03 0.  1.
         12    1    3    3    0    0 -0.18952933799E+02  0.22919158678E+02 -0.94575246802E+01  0.31208112842E+02  0.00000000000E+00 0. -1.
</event>
<event>
 7    1  0.2976321E-013  0.7246158E+02  0.7816164E-02  0.1226708E+00
        -11   -1    0    0    0    0  0.00000000000E+00  0.00000000000E+00  0.45593999997E+02  0.45594000000E+02  0.51100000000E-03 0. -1.
         11   -1    0    0    0    0 -0.00000000000E+00 -0.00000000000E+00 -0.45593999997E+02  0.45594000000E+02  0.51100000000E-03 0.  1.
    9900012    2    1    2    0    0  0.45335153113E+01  0.90987153460E+01 -0.15727030736E+02  0.72461578084E+02  0.70000010147E+02 0.  0.
         12    1    1    2    0    0 -0.45335153113E+01 -0.90987153460E+01  0.15727030736E+02  0.18726421916E+02  0.00000000000E+00 0. -1.
         11    1    3    3    0    0 -0.12486451079E+02  0.22323537080E+02  0.11386500208E+02  0.27998288439E+02  0.51100000000E-03 0. -1.
        -11    1    3    3    0    0  0.33886607694E+01 -0.94852589516E+01  0.35653026618E+01  0.10684780883E+02  0.51100000000E-03 0.  1.
        -12    1    3    3    0    0  0.13631305621E+02 -0.37395627821E+01 -0.30678833606E+02  0.33778508761E+02  0.00000000000E+00 0.  1.
</event>
<event>
 7    1  0.2976321E-013  0.7246117E+02  0.7816164E-02  0.1226709E+00
        -11   -1    0    0    0    0  0.00000000000E+00  0.00000000000E+00  0.45593999997E+02  0.45594000000E+02  0.51100000000E-03 0. -1.
         11   -1    0    0    0    0 -0.00000000000E+00 -0.00000000000E+00 -0.45593999997E+02  0.45594000000E+02  0.51100000000E-03 0.  1.
    9900012    2    1    2    0    0 -0.12121760495E+02  0.14269532848E+02 -0.37107724370E+00  0.72461165150E+02  0.69999472222E+02 0.  0.
         12    1    1    2    0    0  0.12121760495E+02 -0.14269532848E+02  0.37107724370E+00  0.18726834850E+02  0.00000000000E+00 0. -1.
         11    1    3    3    0    0  0.44537843828E+01 -0.42309889728E+01 -0.15124643452E+02  0.16324591965E+02  0.51100000000E-03 0. -1.
        -11    1    3    3    0    0 -0.10120824961E+02 -0.15184847566E+02 -0.12440763801E+01  0.18290938188E+02  0.51100000000E-03 0.  1.
         12    1    3    3    0    0 -0.64547199170E+01  0.33685369387E+02  0.15997642588E+02  0.37845634997E+02  0.00000000000E+00 0. -1.
</event>
<event>
 7    1  0.2976321E-013  0.7246148E+02  0.7816164E-02  0.1226708E+00
        -11   -1    0    0    0    0  0.00000000000E+00  0.00000000000E+00  0.45593999997E+02  0.45594000000E+02  0.51100000000E-03 0. -1.
         11   -1    0    0    0    0 -0.00000000000E+00 -0.00000000000E+00 -0.45593999997E+02  0.45594000000E+02  0.51100000000E-03 0.  1.
    9900012    2    1    2    0    0 -0.13296364371E+02  0.61350874918E+00 -0.13172422146E+02  0.72461483942E+02  0.69999887510E+02 0.  0.
         12    1    1    2    0    0  0.13296364371E+02 -0.61350874918E+00  0.13172422146E+02  0.18726516058E+02  0.00000000000E+00 0. -1.
         11    1    3    3    0    0  0.29629455193E+01  0.51470397262E+01  0.34334620640E+01  0.68600091909E+01  0.51100000000E-03 0. -1.
        -11    1    3    3    0    0 -0.44824971090E+01  0.73216755529E+01 -0.37714437594E+02  0.38679174197E+02  0.51100000000E-03 0.  1.
         12    1    3    3    0    0 -0.11776812782E+02 -0.11855206530E+02  0.21108553385E+02  0.26922300555E+02  0.00000000000E+00 0. -1.
</event>
<event>
 7    1  0.2976321E-013  0.7246147E+02  0.7816164E-02  0.1226708E+00
        -11   -1    0    0    0    0  0.00000000000E+00  0.00000000000E+00  0.45593999997E+02  0.45594000000E+02  0.51100000000E-03 0.  1.
         11   -1    0    0    0    0 -0.00000000000E+00 -0.00000000000E+00 -0.45593999997E+02  0.45594000000E+02  0.51100000000E-03 0. -1.
    9900012    2    1    2    0    0 -0.18250858002E+02  0.41869538144E+01 -0.24197904510E+00  0.72461469251E+02  0.69999868372E+02 0.  0.
         12    1    1    2    0    0  0.18250858002E+02 -0.41869538144E+01  0.24197904510E+00  0.18726530749E+02  0.00000000000E+00 0. -1.
         11    1    3    3    0    0 -0.15407496910E+02 -0.89650681627E+01 -0.14318232174E+01  0.17883330959E+02  0.51100000000E-03 0. -1.
        -11    1    3    3    0    0  0.93786845058E+01 -0.36561460952E+01  0.22600033497E+02  0.24740425252E+02  0.51100000000E-03 0.  1.
         12    1    3    3    0    0 -0.12222045598E+02  0.16808168072E+02 -0.21410189325E+02  0.29837713040E+02  0.00000000000E+00 0. -1.
</event>
<event>
 7    1  0.2976321E-013  0.7246151E+02  0.7816164E-02  0.1226708E+00
        -11   -1    0    0    0    0  0.00000000000E+00  0.00000000000E+00  0.45593999997E+02  0.45594000000E+02  0.51100000000E-03 0. -1.
         11   -1    0    0    0    0 -0.00000000000E+00 -0.00000000000E+00 -0.45593999997E+02  0.45594000000E+02  0.51100000000E-03 0.  1.
    9900012    2    1    2    0    0 -0.50190262067E+01  0.16602434521E+02 -0.70604441206E+01  0.72461512682E+02  0.69999924949E+02 0.  0.
         12    1    1    2    0    0  0.50190262067E+01 -0.16602434521E+02  0.70604441206E+01  0.18726487318E+02  0.00000000000E+00 0. -1.
         11    1    3    3    0    0  0.26620586503E+02  0.87981112174E+01 -0.15925133850E+02  0.32243949435E+02  0.51100000000E-03 0. -1.
        -11    1    3    3    0    0 -0.87202642184E+01  0.12981688674E+02  0.49019142355E+01  0.16388899057E+02  0.51100000000E-03 0.  1.
        -12    1    3    3    0    0 -0.22919348492E+02 -0.51773653698E+01  0.39627754944E+01  0.23828664190E+02  0.00000000000E+00 0.  1.
</event>
<event>
 7    1  0.2976321E-013  0.7246154E+02  0.7816164E-02  0.1226708E+00
        -11   -1    0    0    0    0  0.00000000000E+00  0.00000000000E+00  0.45593999997E+02  0.45594000000E+02  0.51100000000E-03 0. -1.
         11   -1    0    0    0    0 -0.00000000000E+00 -0.00000000000E+00 -0.45593999997E+02  0.45594000000E+02  0.51100000000E-03 0.  1.
    9900012    2    1    2    0    0 -0.45708581275E+01 -0.43751952231E+01 -0.17625135085E+02  0.72461535730E+02  0.69999954974E+02 0.  0.
         12    1    1    2    0    0  0.45708581275E+01  0.43751952231E+01  0.17625135085E+02  0.18726464270E+02  0.00000000000E+00 0. -1.
         11    1    3    3    0    0 -0.23007704993E+02  0.33885444934E+01 -0.21244785445E+02  0.31498851276E+02  0.51100000000E-03 0. -1.
        -11    1    3    3    0    0  0.15254853352E+02  0.33353268650E+01 -0.13277769189E+02  0.20497173244E+02  0.51100000000E-03 0.  1.
         12    1    3    3    0    0  0.31819935132E+01 -0.11099066581E+02  0.16897419549E+02  0.20465511211E+02  0.00000000000E+00 0. -1.
</event>
<event>
 7    1  0.2976321E-013  0.7246157E+02  0.7816164E-02  0.1226708E+00
        -11   -1    0    0    0    0  0.00000000000E+00  0.00000000000E+00  0.45593999997E+02  0.45594000000E+02  0.51100000000E-03 0. -1.
         11   -1    0    0    0    0 -0.00000000000E+00 -0.00000000000E+00 -0.45593999997E+02  0.45594000000E+02  0.51100000000E-03 0.  1.
    9900012    2    1    2    0    0 -0.43774099032E+01  0.17445951969E+02 -0.52111636423E+01  0.72461569906E+02  0.69999999494E+02 0.  0.
         12    1    1    2    0    0  0.43774099032E+01 -0.17445951969E+02  0.52111636423E+01  0.18726430094E+02  0.00000000000E+00 0. -1.
         11    1    3    3    0    0  0.62195785130E+01 -0.19362085731E+02  0.37037611875E+01  0.20671027258E+02  0.51100000000E-03 0. -1.
        -11    1    3    3    0    0 -0.10846358369E+02  0.81334273947E+01 -0.17238879134E+02  0.21931144182E+02  0.51100000000E-03 0.  1.
        -12    1    3    3    0    0  0.24936995312E+00  0.28674610305E+02  0.83239543041E+01  0.29859398466E+02  0.00000000000E+00 0.  1.
</event>
<event>
 7    1  0.2976321E-013  0.7246106E+02  0.7816164E-02  0.1226709E+00
        -11   -1    0    0    0    0  0.00000000000E+00  0.00000000000E+00  0.45593999997E+02  0.45594000000E+02  0.51100000000E-03 0.  1.
         11   -1    0    0    0    0 -0.00000000000E+00 -0.00000000000E+00 -0.45593999997E+02  0.45594000000E+02  0.51100000000E-03 0. -1.
    9900012    2    1    2    0    0  0.71778936634E+01  0.18649476318E+01  0.17195879178E+02  0.72461055567E+02  0.69999329469E+02 0.  0.
         12    1    1    2    0    0 -0.71778936634E+01 -0.18649476318E+01 -0.17195879178E+02  0.18726944433E+02  0.00000000000E+00 0. -1.
         11    1    3    3    0    0 -0.82172830497E+01  0.13628173852E+02 -0.26742295455E+01  0.16136987550E+02  0.51100000000E-03 0. -1.
        -11    1    3    3    0    0  0.39974031115E+01  0.16061724324E+02  0.20375333316E+02  0.26250950990E+02  0.51100000000E-03 0.  1.
        -12    1    3    3    0    0  0.11397773602E+02 -0.27824950544E+02 -0.50522459244E+00  0.30073117027E+02  0.00000000000E+00 0.  1.
</event>
<event>
 7    1  0.2976321E-013  0.7246157E+02  0.7816164E-02  0.1226708E+00
        -11   -1    0    0    0    0  0.00000000000E+00  0.00000000000E+00  0.45593999997E+02  0.45594000000E+02  0.51100000000E-03 0. -1.
         11   -1    0    0    0    0 -0.00000000000E+00 -0.00000000000E+00 -0.45593999997E+02  0.45594000000E+02  0.51100000000E-03 0.  1.
    9900012    2    1    2    0    0 -0.11253485786E+02  0.14827686697E+02 -0.20439834284E+01  0.72461572060E+02  0.70000002300E+02 0.  0.
         12    1    1    2    0    0  0.11253485786E+02 -0.14827686697E+02  0.20439834284E+01  0.18726427940E+02  0.00000000000E+00 0. -1.
         11    1    3    3    0    0 -0.13403257807E+02 -0.69934449027E+01  0.42894394067E+01  0.15714798190E+02  0.51100000000E-03 0. -1.
        -11    1    3    3    0    0  0.18941536992E+01  0.36382607162E+00 -0.26932295321E+02  0.27001272547E+02  0.51100000000E-03 0.  1.
         12    1    3    3    0    0  0.25561832190E+00  0.21457305528E+02  0.20598872486E+02  0.29745501323E+02  0.00000000000E+00 0. -1.
</event>
<event>
 7    1  0.2976321E-013  0.7246148E+02  0.7816164E-02  0.1226708E+00
        -11   -1    0    0    0    0  0.00000000000E+00  0.00000000000E+00  0.45593999997E+02  0.45594000000E+02  0.51100000000E-03 0.  1.
         11   -1    0    0    0    0 -0.00000000000E+00 -0.00000000000E+00 -0.45593999997E+02  0.45594000000E+02  0.51100000000E-03 0. -1.
    9900012    2    1    2    0    0  0.24203603219E+01 -0.13939593205E+01  0.18517058355E+02  0.72461475582E+02  0.69999876619E+02 0.  0.
         12    1    1    2    0    0 -0.24203603219E+01  0.13939593205E+01 -0.18517058355E+02  0.18726524418E+02  0.00000000000E+00 0. -1.
         11    1    3    3    0    0 -0.11756190510E+01 -0.29335006811E+01 -0.74194900274E+01  0.80645110779E+01  0.51100000000E-03 0. -1.
        -11    1    3    3    0    0 -0.15062924346E+01 -0.21914878201E+02  0.32759982674E+02  0.39442962218E+02  0.51100000000E-03 0.  1.
         12    1    3    3    0    0  0.51022718075E+01  0.23454419561E+02 -0.68234342915E+01  0.24954002286E+02  0.00000000000E+00 0. -1.
</event>
<event>
 7    1  0.2976321E-013  0.7246159E+02  0.7816164E-02  0.1226708E+00
        -11   -1    0    0    0    0  0.00000000000E+00  0.00000000000E+00  0.45593999997E+02  0.45594000000E+02  0.51100000000E-03 0.  1.
         11   -1    0    0    0    0 -0.00000000000E+00 -0.00000000000E+00 -0.45593999997E+02  0.45594000000E+02  0.51100000000E-03 0. -1.
    9900012    2    1    2    0    0  0.73396013490E+01 -0.17219353783E+02 -0.54988194999E+00  0.72461594503E+02  0.70000031537E+02 0.  0.
         12    1    1    2    0    0 -0.73396013490E+01  0.17219353783E+02  0.54988194999E+00  0.18726405497E+02  0.00000000000E+00 0. -1.
         11    1    3    3    0    0 -0.26391554706E+01  0.75378852195E+00 -0.19515379788E+02  0.19707444971E+02  0.51100000000E-03 0. -1.
        -11    1    3    3    0    0  0.29887305361E+00 -0.28166558581E+02 -0.11755242862E+01  0.28192662254E+02  0.51100000000E-03 0.  1.
         12    1    3    3    0    0  0.96798837661E+01  0.10193416276E+02  0.20141022124E+02  0.24561487278E+02  0.00000000000E+00 0. -1.
</event>
<event>
 7    1  0.2976321E-013  0.7246154E+02  0.7816164E-02  0.1226708E+00
        -11   -1    0    0    0    0  0.00000000000E+00  0.00000000000E+00  0.45593999997E+02  0.45594000000E+02  0.51100000000E-03 0.  1.
         11   -1    0    0    0    0 -0.00000000000E+00 -0.00000000000E+00 -0.45593999997E+02  0.45594000000E+02  0.51100000000E-03 0. -1.
    9900012    2    1    2    0    0  0.19941021795E+01 -0.15163769439E+02  0.10805735769E+02  0.72461540842E+02  0.69999961633E+02 0.  0.
         12    1    1    2    0    0 -0.19941021795E+01  0.15163769439E+02 -0.10805735769E+02  0.18726459158E+02  0.00000000000E+00 0. -1.
         11    1    3    3    0    0  0.18725903844E+02  0.10306040536E+02  0.76542890901E+01  0.22703790169E+02  0.51100000000E-03 0. -1.
        -11    1    3    3    0    0 -0.21905507383E+02  0.16723729308E+01  0.20489455103E+00  0.21970208624E+02  0.51100000000E-03 0.  1.
         12    1    3    3    0    0  0.51737057184E+01 -0.27142182905E+02  0.29465521274E+01  0.27787542050E+02  0.00000000000E+00 0. -1.
</event>
<event>
 7    1  0.2976321E-013  0.7246159E+02  0.7816164E-02  0.1226708E+00
        -11   -1    0    0    0    0  0.00000000000E+00  0.00000000000E+00  0.45593999997E+02  0.45594000000E+02  0.51100000000E-03 0.  1.
         11   -1    0    0    0    0 -0.00000000000E+00 -0.00000000000E+00 -0.45593999997E+02  0.45594000000E+02  0.51100000000E-03 0. -1.
    9900012    2    1    2    0    0 -0.10199188798E+01 -0.18300929053E+02  0.38358875805E+01  0.72461594251E+02  0.70000031208E+02 0.  0.
         12    1    1    2    0    0  0.10199188798E+01  0.18300929053E+02 -0.38358875805E+01  0.18726405749E+02  0.00000000000E+00 0. -1.
         11    1    3    3    0    0 -0.21267790308E+02 -0.30121819403E+02  0.31538108706E+01  0.37007964440E+02  0.51100000000E-03 0. -1.
        -11    1    3    3    0    0 -0.12145734225E+01  0.13690838907E+02 -0.13681923605E+01  0.13812538115E+02  0.51100000000E-03 0.  1.
        -12    1    3    3    0    0  0.21462444850E+02 -0.18699485572E+01  0.20502690704E+01  0.21641091696E+02  0.00000000000E+00 0.  1.
</event>
<event>
 7    1  0.2976321E-013  0.7246116E+02  0.7816164E-02  0.1226709E+00
        -11   -1    0    0    0    0  0.00000000000E+00  0.00000000000E+00  0.45593999997E+02  0.45594000000E+02  0.51100000000E-03 0.  1.
         11   -1    0    0    0    0 -0.00000000000E+00 -0.00000000000E+00 -0.45593999997E+02  0.45594000000E+02  0.51100000000E-03 0. -1.
    9900012    2    1    2    0    0  0.13812173630E+02 -0.15353160321E+01 -0.12552337742E+02  0.72461160478E+02  0.69999466136E+02 0.  0.
         12    1    1    2    0    0 -0.13812173630E+02  0.15353160321E+01  0.12552337742E+02  0.18726839522E+02  0.00000000000E+00 0. -1.
         11    1    3    3    0    0 -0.64596332780E+01  0.15253334466E+02 -0.14248459962E+02  0.21849706771E+02  0.51100000000E-03 0. -1.
        -11    1    3    3    0    0  0.51778953037E+01  0.12311581782E+02  0.10128771079E+02  0.16762387944E+02  0.51100000000E-03 0.  1.
         12    1    3    3    0    0  0.15093911604E+02 -0.29100232280E+02 -0.84326488580E+01  0.33849065763E+02  0.00000000000E+00 0. -1.
</event>
<event>
 7    1  0.2976321E-013  0.7246168E+02  0.7816164E-02  0.1226708E+00
        -11   -1    0    0    0    0  0.00000000000E+00  0.00000000000E+00  0.45593999997E+02  0.45594000000E+02  0.51100000000E-03 0.  1.
         11   -1    0    0    0    0 -0.00000000000E+00 -0.00000000000E+00 -0.45593999997E+02  0.45594000000E+02  0.51100000000E-03 0. -1.
    9900012    2    1    2    0    0 -0.54502659172E+01  0.12484806733E+01  0.17872066783E+02  0.72461684995E+02  0.70000149419E+02 0.  0.
         12    1    1    2    0    0  0.54502659172E+01 -0.12484806733E+01 -0.17872066783E+02  0.18726315005E+02  0.00000000000E+00 0. -1.
         11    1    3    3    0    0  0.18905886203E+02  0.19354085958E+02  0.90574717303E+01  0.28531578484E+02  0.51100000000E-03 0. -1.
        -11    1    3    3    0    0 -0.11223330217E+02  0.23115405820E+01 -0.83673759006E+01  0.14188704689E+02  0.51100000000E-03 0.  1.
        -12    1    3    3    0    0 -0.13132821903E+02 -0.20417145867E+02  0.17181970953E+02  0.29741401822E+02  0.00000000000E+00 0.  1.
</event>
<event>
 7    1  0.2976321E-013  0.7246184E+02  0.7816164E-02  0.1226707E+00
        -11   -1    0    0    0    0  0.00000000000E+00  0.00000000000E+00  0.45593999997E+02  0.45594000000E+02  0.51100000000E-03 0.  1.
         11   -1    0    0    0    0 -0.00000000000E+00 -0.00000000000E+00 -0.45593999997E+02  0.45594000000E+02  0.51100000000E-03 0. -1.
    9900012    2    1    2    0    0 -0.36548092963E+01 -0.17228148946E+02  0.63641410199E+01  0.72461840809E+02  0.70000352395E+02 0.  0.
         12    1    1    2    0    0  0.36548092963E+01  0.17228148946E+02 -0.63641410199E+01  0.18726159191E+02  0.00000000000E+00 0. -1.
         11    1    3    3    0    0  0.20373029460E+02 -0.11372803999E+02  0.68348194178E+01  0.24312872247E+02  0.51100000000E-03 0. -1.
        -11    1    3    3    0    0 -0.57573674982E+01 -0.80852871904E+01  0.18949824566E+02  0.21391937752E+02  0.51100000000E-03 0.  1.
         12    1    3    3    0    0 -0.18270471258E+02  0.22299422430E+01 -0.19420502964E+02  0.26757030810E+02  0.00000000000E+00 0. -1.
</event>
<event>
 7    1  0.2976321E-013  0.7246153E+02  0.7816164E-02  0.1226708E+00
        -11   -1    0    0    0    0  0.00000000000E+00  0.00000000000E+00  0.45593999997E+02  0.45594000000E+02  0.51100000000E-03 0. -1.
         11   -1    0    0    0    0 -0.00000000000E+00 -0.00000000000E+00 -0.45593999997E+02  0.45594000000E+02  0.51100000000E-03 0.  1.
    9900012    2    1    2    0    0  0.60453738927E+01 -0.11860647663E+02 -0.13170395285E+02  0.72461526214E+02  0.69999942577E+02 0.  0.
         12    1    1    2    0    0 -0.60453738927E+01  0.11860647663E+02  0.13170395285E+02  0.18726473786E+02  0.00000000000E+00 0. -1.
         11    1    3    3    0    0  0.72382430916E+01 -0.24716910106E+02 -0.75437784821E+01  0.26837034156E+02  0.51100000000E-03 0. -1.
        -11    1    3    3    0    0 -0.25719957104E+01  0.94476527350E+00 -0.23742234176E+02  0.23899820654E+02  0.51100000000E-03 0.  1.
        -12    1    3    3    0    0  0.13791265116E+01  0.11911497170E+02  0.18115617374E+02  0.21724671403E+02  0.00000000000E+00 0.  1.
</event>
<event>
 7    1  0.2976321E-013  0.7246158E+02  0.7816164E-02  0.1226708E+00
        -11   -1    0    0    0    0  0.00000000000E+00  0.00000000000E+00  0.45593999997E+02  0.45594000000E+02  0.51100000000E-03 0.  1.
         11   -1    0    0    0    0 -0.00000000000E+00 -0.00000000000E+00 -0.45593999997E+02  0.45594000000E+02  0.51100000000E-03 0. -1.
    9900012    2    1    2    0    0 -0.18426187618E+02  0.33376341296E+01 -0.12072201982E+00  0.72461581081E+02  0.70000014052E+02 0.  0.
         12    1    1    2    0    0  0.18426187618E+02 -0.33376341296E+01  0.12072201982E+00  0.18726418919E+02  0.00000000000E+00 0. -1.
         11    1    3    3    0    0 -0.99314228021E+01 -0.16388799795E+01 -0.17000677397E+02  0.19757077686E+02  0.51100000000E-03 0. -1.
        -11    1    3    3    0    0  0.79717999892E+01 -0.18235812521E+02  0.58673047450E+00  0.19910768601E+02  0.51100000000E-03 0.  1.
         12    1    3    3    0    0 -0.16466564805E+02  0.23212326630E+02  0.16293224902E+02  0.32793734795E+02  0.00000000000E+00 0. -1.
</event>
<event>
 7    1  0.2976321E-013  0.7246142E+02  0.7816164E-02  0.1226708E+00
        -11   -1    0    0    0    0  0.00000000000E+00  0.00000000000E+00  0.45593999997E+02  0.45594000000E+02  0.51100000000E-03 0.  1.
         11   -1    0    0    0    0 -0.00000000000E+00 -0.00000000000E+00 -0.45593999997E+02  0.45594000000E+02  0.51100000000E-03 0. -1.
    9900012    2    1    2    0    0  0.45808444080E+01  0.15272274989E+00  0.18157016625E+02  0.72461422297E+02  0.69999807206E+02 0.  0.
         12    1    1    2    0    0 -0.45808444080E+01 -0.15272274989E+00 -0.18157016625E+02  0.18726577703E+02  0.00000000000E+00 0. -1.
         11    1    3    3    0    0  0.69291810687E+01 -0.36875407457E+01  0.40909327927E+01  0.88513975399E+01  0.51100000000E-03 0. -1.
        -11    1    3    3    0    0  0.38348247448E+01 -0.23174820027E+02  0.24551864601E+02  0.33978996745E+02  0.51100000000E-03 0.  1.
         12    1    3    3    0    0 -0.61831614056E+01  0.27015083523E+02 -0.10485780769E+02  0.29631028012E+02  0.00000000000E+00 0. -1.
</event>
<event>
 7    1  0.2976321E-013  0.7246158E+02  0.7816164E-02  0.1226708E+00
        -11   -1    0    0    0    0  0.00000000000E+00  0.00000000000E+00  0.45593999997E+02  0.45594000000E+02  0.51100000000E-03 0.  1.
         11   -1    0    0    0    0 -0.00000000000E+00 -0.00000000000E+00 -0.45593999997E+02  0.45594000000E+02  0.51100000000E-03 0. -1.
    9900012    2    1    2    0    0 -0.35996993697E+01 -0.14887462442E+02 -0.10774240179E+02  0.72461584835E+02  0.70000018942E+02 0.  0.
         12    1    1    2    0    0  0.35996993697E+01  0.14887462442E+02  0.10774240179E+02  0.18726415165E+02  0.00000000000E+00 0. -1.
         11    1    3    3    0    0  0.13995611666E+02 -0.47554975776E-01  0.12311004782E+02  0.18639749097E+02  0.51100000000E-03 0. -1.
        -11    1    3    3    0    0 -0.12556395912E+02 -0.55337390134E+00  0.10884938722E+02  0.16626821470E+02  0.51100000000E-03 0.  1.
         12    1    3    3    0    0 -0.50389151244E+01 -0.14286533564E+02 -0.33970183683E+02  0.37195014268E+02  0.00000000000E+00 0. -1.
</event>
<event>
 7    1  0.2976321E-013  0.7246157E+02  0.7816164E-02  0.1226708E+00
        -11   -1    0    0    0    0  0.00000000000E+00  0.00000000000E+00  0.45593999997E+02  0.45594000000E+02  0.51100000000E-03 0.  1.
         11   -1    0    0    0    0 -0.00000000000E+00 -0.00000000000E+00 -0.45593999997E+02  0.45594000000E+02  0.51100000000E-03 0. -1.
    9900012    2    1    2    0    0  0.11629084056E+02  0.59992943742E+01  0.13395973273E+02  0.72461568709E+02  0.69999997935E+02 0.  0.
         12    1    1    2    0    0 -0.11629084056E+02 -0.59992943742E+01 -0.13395973273E+02  0.18726431291E+02  0.00000000000E+00 0. -1.
         11    1    3    3    0    0  0.85191633720E+01 -0.15849838689E+01 -0.37438411638E+01  0.94395267543E+01  0.51100000000E-03 0. -1.
        -11    1    3    3    0    0 -0.19396647486E+02  0.21129527863E+01 -0.14142786715E+02  0.24097985797E+02  0.51100000000E-03 0.  1.
         12    1    3    3    0    0  0.22506568169E+02  0.54713254567E+01  0.31282601151E+02  0.38924056158E+02  0.00000000000E+00 0. -1.
</event>
<event>
 7    1  0.2976321E-013  0.7246115E+02  0.7816164E-02  0.1226709E+00
        -11   -1    0    0    0    0  0.00000000000E+00  0.00000000000E+00  0.45593999997E+02  0.45594000000E+02  0.51100000000E-03 0.  1.
         11   -1    0    0    0    0 -0.00000000000E+00 -0.00000000000E+00 -0.45593999997E+02  0.45594000000E+02  0.51100000000E-03 0. -1.
    9900012    2    1    2    0    0 -0.13813250458E+02 -0.87671731131E+01  0.91118446229E+01  0.72461149623E+02  0.69999451995E+02 0.  0.
         12    1    1    2    0    0  0.13813250458E+02  0.87671731131E+01 -0.91118446229E+01  0.18726850377E+02  0.00000000000E+00 0. -1.
         11    1    3    3    0    0  0.89011012652E+01  0.38808305203E+01  0.38506699271E+01  0.10445961344E+02  0.51100000000E-03 0. -1.
        -11    1    3    3    0    0 -0.74441414937E+01  0.22372624755E+02  0.15229580571E+01  0.23627716405E+02  0.51100000000E-03 0.  1.
         12    1    3    3    0    0 -0.15270210229E+02 -0.35020628389E+02  0.37382166386E+01  0.38387471873E+02  0.00000000000E+00 0. -1.
</event>
<event>
 7    1  0.2976321E-013  0.7246157E+02  0.7816164E-02  0.1226708E+00
        -11   -1    0    0    0    0  0.00000000000E+00  0.00000000000E+00  0.45593999997E+02  0.45594000000E+02  0.51100000000E-03 0. -1.
         11   -1    0    0    0    0 -0.00000000000E+00 -0.00000000000E+00 -0.45593999997E+02  0.45594000000E+02  0.51100000000E-03 0.  1.
    9900012    2    1    2    0    0 -0.14155284880E+02 -0.40520470755E+01 -0.11571006244E+02  0.72461565181E+02  0.69999993339E+02 0.  0.
         12    1    1    2    0    0  0.14155284880E+02  0.40520470755E+01  0.11571006244E+02  0.18726434819E+02  0.00000000000E+00 0. -1.
         11    1    3    3    0    0 -0.14266482374E+02 -0.17117077437E+01  0.87500430587E+01  0.16823368168E+02  0.51100000000E-03 0. -1.
        -11    1    3    3    0    0 -0.16887729770E+02 -0.20232317180E+02 -0.57366697983E+01  0.26971308012E+02  0.51100000000E-03 0.  1.
        -12    1    3    3    0    0  0.16998927264E+02  0.17891977848E+02 -0.14584379505E+02  0.28666889001E+02  0.00000000000E+00 0.  1.
</event>
<event>
 7    1  0.2983732E-013  0.7246157E+02  0.7816164E-02  0.1226708E+00
        -11   -1    0    0    0    0  0.00000000000E+00  0.00000000000E+00  0.45593999997E+02  0.45594000000E+02  0.51100000000E-03 0.  1.
         11   -1    0    0    0    0 -0.00000000000E+00 -0.00000000000E+00 -0.45593999997E+02  0.45594000000E+02  0.51100000000E-03 0. -1.
    9900012    2    1    2    0    0  0.71059543028E+01  0.16821845421E+02  0.41484974319E+01  0.72461572127E+02  0.70000002388E+02 0.  0.
         12    1    1    2    0    0 -0.71059543028E+01 -0.16821845421E+02 -0.41484974319E+01  0.18726427873E+02  0.00000000000E+00 0. -1.
         11    1    3    3    0    0  0.17526426752E+02 -0.15812640407E+02  0.67833430303E+00  0.23615151260E+02  0.51100000000E-03 0. -1.
        -11    1    3    3    0    0  0.88670144129E+01 -0.53974962984E+00 -0.40165617924E+01  0.97492585951E+01  0.51100000000E-03 0.  1.
        -12    1    3    3    0    0 -0.19287486862E+02  0.33174235458E+02  0.74867249212E+01  0.39097162272E+02  0.00000000000E+00 0.  1.
</event>
<event>
 7    1  0.2976321E-013  0.7246159E+02  0.7816164E-02  0.1226708E+00
        -11   -1    0    0    0    0  0.00000000000E+00  0.00000000000E+00  0.45593999997E+02  0.45594000000E+02  0.51100000000E-03 0.  1.
         11   -1    0    0    0    0 -0.00000000000E+00 -0.00000000000E+00 -0.45593999997E+02  0.45594000000E+02  0.51100000000E-03 0. -1.
    9900012    2    1    2    0    0 -0.12876389416E+02  0.12843538163E+02  0.44632381393E+01  0.72461591598E+02  0.70000027752E+02 0.  0.
         12    1    1    2    0    0  0.12876389416E+02 -0.12843538163E+02 -0.44632381393E+01  0.18726408402E+02  0.00000000000E+00 0. -1.
         11    1    3    3    0    0 -0.13003751732E+02  0.15603717852E+02 -0.11186216573E+02  0.23188467207E+02  0.51100000000E-03 0. -1.
        -11    1    3    3    0    0  0.93842154992E+01  0.18787807360E+02 -0.13907242061E+00  0.21001536785E+02  0.51100000000E-03 0.  1.
         12    1    3    3    0    0 -0.92568531837E+01 -0.21547987049E+02  0.15788527133E+02  0.28271587606E+02  0.00000000000E+00 0. -1.
</event>
<event>
 7    1  0.2976321E-013  0.7246166E+02  0.7816164E-02  0.1226708E+00
        -11   -1    0    0    0    0  0.00000000000E+00  0.00000000000E+00  0.45593999997E+02  0.45594000000E+02  0.51100000000E-03 0.  1.
         11   -1    0    0    0    0 -0.00000000000E+00 -0.00000000000E+00 -0.45593999997E+02  0.45594000000E+02  0.51100000000E-03 0. -1.
    9900012    2    1    2    0    0  0.12348791355E+02 -0.13702683800E+02 -0.32279361720E+01  0.72461661244E+02  0.70000118479E+02 0.  0.
         12    1    1    2    0    0 -0.12348791355E+02  0.13702683800E+02  0.32279361720E+01  0.18726338756E+02  0.00000000000E+00 0. -1.
         11    1    3    3    0    0  0.78600115745E+01 -0.53984575512E+01  0.21748015259E+01  0.97802294361E+01  0.51100000000E-03 0. -1.
        -11    1    3    3    0    0  0.53676543206E+01 -0.35152489465E+02 -0.39655520275E+01  0.35780369361E+02  0.51100000000E-03 0.  1.
         12    1    3    3    0    0 -0.87887453989E+00  0.26848263216E+02 -0.14371856704E+01  0.26901062447E+02  0.00000000000E+00 0. -1.
</event>
<event>
 7    1  0.2976321E-013  0.7246153E+02  0.7816164E-02  0.1226708E+00
        -11   -1    0    0    0    0  0.00000000000E+00  0.00000000000E+00  0.45593999997E+02  0.45594000000E+02  0.51100000000E-03 0. -1.
         11   -1    0    0    0    0 -0.00000000000E+00 -0.00000000000E+00 -0.45593999997E+02  0.45594000000E+02  0.51100000000E-03 0.  1.
    9900012    2    1    2    0    0  0.16103516027E+02 -0.91966825834E+01  0.26035739352E+01  0.72461526862E+02  0.69999943421E+02 0.  0.
         12    1    1    2    0    0 -0.16103516027E+02  0.91966825834E+01 -0.26035739352E+01  0.18726473138E+02  0.00000000000E+00 0. -1.
         11    1    3    3    0    0 -0.69921324541E+01 -0.68297972010E+01  0.14855837306E+02  0.17782911696E+02  0.51100000000E-03 0. -1.
        -11    1    3    3    0    0  0.81570761912E+01  0.17870316103E+02  0.91326810686E+01  0.21663147356E+02  0.51100000000E-03 0.  1.
         12    1    3    3    0    0  0.14938572290E+02 -0.20237201486E+02 -0.21384944439E+02  0.33015467810E+02  0.00000000000E+00 0. -1.
</event>
<event>
 7    1  0.2976321E-013  0.7246158E+02  0.7816164E-02  0.1226708E+00
        -11   -1    0    0    0    0  0.00000000000E+00  0.00000000000E+00  0.45593999997E+02  0.45594000000E+02  0.51100000000E-03 0. -1.
         11   -1    0    0    0    0 -0.00000000000E+00 -0.00000000000E+00 -0.45593999997E+02  0.45594000000E+02  0.51100000000E-03 0.  1.
    9900012    2    1    2    0    0  0.85624469605E+01  0.17636478524E+01 -0.16560576245E+02  0.72461584506E+02  0.70000018513E+02 0.  0.
         12    1    1    2    0    0 -0.85624469605E+01 -0.17636478524E+01  0.16560576245E+02  0.18726415494E+02  0.00000000000E+00 0. -1.
         11    1    3    3    0    0  0.20450978740E+02  0.19803056925E-01 -0.15330564169E+02  0.25559129907E+02  0.51100000000E-03 0. -1.
        -11    1    3    3    0    0  0.10887212782E+02  0.13751281224E+02 -0.93880248495E+01  0.19893821862E+02  0.51100000000E-03 0.  1.
         12    1    3    3    0    0 -0.22775744561E+02 -0.12007436428E+02  0.81580127737E+01  0.27008632737E+02  0.00000000000E+00 0. -1.
</event>
<event>
 7    1  0.4007200E-013  0.7246152E+02  0.7816164E-02  0.1226708E+00
        -11   -1    0    0    0    0  0.00000000000E+00  0.00000000000E+00  0.45593999997E+02  0.45594000000E+02  0.51100000000E-03 0. -1.
         11   -1    0    0    0    0 -0.00000000000E+00 -0.00000000000E+00 -0.45593999997E+02  0.45594000000E+02  0.51100000000E-03 0.  1.
    9900012    2    1    2    0    0  0.60620596815E+01  0.75198997596E+01 -0.16043174143E+02  0.72461524182E+02  0.69999939931E+02 0.  0.
         12    1    1    2    0    0 -0.60620596815E+01 -0.75198997596E+01  0.16043174143E+02  0.18726475818E+02  0.00000000000E+00 0. -1.
         11    1    3    3    0    0 -0.23940153807E+02 -0.10336472215E+02 -0.25521088956E+01  0.26200894684E+02  0.51100000000E-03 0. -1.
        -11    1    3    3    0    0  0.31697248997E+01  0.30438845082E+01 -0.14943942626E+02  0.15576707300E+02  0.51100000000E-03 0.  1.
        -12    1    3    3    0    0  0.26832488589E+02  0.14812487467E+02  0.14528773791E+01  0.30683922199E+02  0.00000000000E+00 0.  1.
</event>
<event>
 7    1  0.2976321E-013  0.7246153E+02  0.7816164E-02  0.1226708E+00
        -11   -1    0    0    0    0  0.00000000000E+00  0.00000000000E+00  0.45593999997E+02  0.45594000000E+02  0.51100000000E-03 0. -1.
         11   -1    0    0    0    0 -0.00000000000E+00 -0.00000000000E+00 -0.45593999997E+02  0.45594000000E+02  0.51100000000E-03 0.  1.
    9900012    2    1    2    0    0  0.42268497030E+01  0.10018633228E+02 -0.15246028185E+02  0.72461530883E+02  0.69999948659E+02 0.  0.
         12    1    1    2    0    0 -0.42268497030E+01 -0.10018633228E+02  0.15246028185E+02  0.18726469117E+02  0.00000000000E+00 0. -1.
         11    1    3    3    0    0 -0.59520933578E+01 -0.17477267986E+02 -0.62011454772E+01  0.19476563277E+02  0.51100000000E-03 0. -1.
        -11    1    3    3    0    0 -0.37606447101E+01 -0.49132131323E-01 -0.19906442180E+02  0.20258610593E+02  0.51100000000E-03 0.  1.
        -12    1    3    3    0    0  0.13939587771E+02  0.27545033345E+02  0.10861559472E+02  0.32726357013E+02  0.00000000000E+00 0.  1.
</event>
<event>
 7    1  0.2976321E-013  0.7246157E+02  0.7816164E-02  0.1226708E+00
        -11   -1    0    0    0    0  0.00000000000E+00  0.00000000000E+00  0.45593999997E+02  0.45594000000E+02  0.51100000000E-03 0.  1.
         11   -1    0    0    0    0 -0.00000000000E+00 -0.00000000000E+00 -0.45593999997E+02  0.45594000000E+02  0.51100000000E-03 0. -1.
    9900012    2    1    2    0    0  0.34377010267E+01  0.45099133154E+01  0.17847182865E+02  0.72461573681E+02  0.70000004412E+02 0.  0.
         12    1    1    2    0    0 -0.34377010267E+01 -0.45099133154E+01 -0.17847182865E+02  0.18726426319E+02  0.00000000000E+00 0. -1.
         11    1    3    3    0    0 -0.85989677580E+01 -0.65578166350E+01  0.10234697946E+02  0.14889467681E+02  0.51100000000E-03 0. -1.
        -11    1    3    3    0    0 -0.52017095668E+01  0.13429587373E+02  0.27563885652E+02  0.31099507905E+02  0.51100000000E-03 0.  1.
         12    1    3    3    0    0  0.17238378351E+02 -0.23618574229E+01 -0.19951400734E+02  0.26472598095E+02  0.00000000000E+00 0. -1.
</event>
<event>
 7    1  0.2976321E-013  0.7246159E+02  0.7816164E-02  0.1226708E+00
        -11   -1    0    0    0    0  0.00000000000E+00  0.00000000000E+00  0.45593999997E+02  0.45594000000E+02  0.51100000000E-03 0. -1.
         11   -1    0    0    0    0 -0.00000000000E+00 -0.00000000000E+00 -0.45593999997E+02  0.45594000000E+02  0.51100000000E-03 0.  1.
    9900012    2    1    2    0    0 -0.61612888788E+01  0.51664718538E+01 -0.16912257409E+02  0.72461591836E+02  0.70000028062E+02 0.  0.
         12    1    1    2    0    0  0.61612888788E+01 -0.51664718538E+01  0.16912257409E+02  0.18726408164E+02  0.00000000000E+00 0. -1.
         11    1    3    3    0    0 -0.88581276554E+01  0.58028068092E+01  0.40542305112E+01  0.11339125968E+02  0.51100000000E-03 0. -1.
        -11    1    3    3    0    0 -0.15299137194E+02 -0.23661832699E+02 -0.96384810862E+01  0.29779963792E+02  0.51100000000E-03 0.  1.
        -12    1    3    3    0    0  0.17995975971E+02  0.23025497744E+02 -0.11328006834E+02  0.31342502075E+02  0.00000000000E+00 0.  1.
</event>
<event>
 7    1  0.2976321E-013  0.7246127E+02  0.7816164E-02  0.1226709E+00
        -11   -1    0    0    0    0  0.00000000000E+00  0.00000000000E+00  0.45593999997E+02  0.45594000000E+02  0.51100000000E-03 0.  1.
         11   -1    0    0    0    0 -0.00000000000E+00 -0.00000000000E+00 -0.45593999997E+02  0.45594000000E+02  0.51100000000E-03 0. -1.
    9900012    2    1    2    0    0 -0.70509826831E+01 -0.13991724254E+02  0.10256978404E+02  0.72461272833E+02  0.69999612501E+02 0.  0.
         12    1    1    2    0    0  0.70509826831E+01  0.13991724254E+02 -0.10256978404E+02  0.18726727167E+02  0.00000000000E+00 0. -1.
         11    1    3    3    0    0  0.85521871799E+01  0.41117508025E+01  0.69617377811E+01  0.11769120333E+02  0.51100000000E-03 0. -1.
        -11    1    3    3    0    0  0.24822431170E+00  0.96373259613E+01  0.21752997916E+02  0.23793540837E+02  0.51100000000E-03 0.  1.
         12    1    3    3    0    0 -0.15851394175E+02 -0.27740801018E+02 -0.18457757293E+02  0.36898611663E+02  0.00000000000E+00 0. -1.
</event>
<event>
 7    1  0.2976321E-013  0.7246156E+02  0.7816164E-02  0.1226708E+00
        -11   -1    0    0    0    0  0.00000000000E+00  0.00000000000E+00  0.45593999997E+02  0.45594000000E+02  0.51100000000E-03 0.  1.
         11   -1    0    0    0    0 -0.00000000000E+00 -0.00000000000E+00 -0.45593999997E+02  0.45594000000E+02  0.51100000000E-03 0. -1.
    9900012    2    1    2    0    0  0.85633042003E+01 -0.16092942976E+02 -0.42856043458E+01  0.72461564219E+02  0.69999992086E+02 0.  0.
         12    1    1    2    0    0 -0.85633042003E+01  0.16092942976E+02  0.42856043458E+01  0.18726435781E+02  0.00000000000E+00 0. -1.
         11    1    3    3    0    0 -0.69192103823E+01 -0.30089071183E+01 -0.62166982987E+00  0.75706979863E+01  0.51100000000E-03 0. -1.
        -11    1    3    3    0    0 -0.64439066542E+01 -0.31045541696E+02 -0.14080887669E+02  0.34693241273E+02  0.51100000000E-03 0.  1.
         12    1    3    3    0    0  0.21926421237E+02  0.17961505839E+02  0.10416953153E+02  0.30197624960E+02  0.00000000000E+00 0. -1.
</event>
<event>
 7    1  0.2976321E-013  0.7246136E+02  0.7816164E-02  0.1226709E+00
        -11   -1    0    0    0    0  0.00000000000E+00  0.00000000000E+00  0.45593999997E+02  0.45594000000E+02  0.51100000000E-03 0.  1.
         11   -1    0    0    0    0 -0.00000000000E+00 -0.00000000000E+00 -0.45593999997E+02  0.45594000000E+02  0.51100000000E-03 0. -1.
    9900012    2    1    2    0    0 -0.13313534306E+01  0.89553098323E+01  0.16392584010E+02  0.72461364245E+02  0.69999731583E+02 0.  0.
         12    1    1    2    0    0  0.13313534306E+01 -0.89553098323E+01 -0.16392584010E+02  0.18726635755E+02  0.00000000000E+00 0. -1.
         11    1    3    3    0    0 -0.10358653810E+02 -0.28111658792E+01 -0.90215026793E+01  0.14021122395E+02  0.51100000000E-03 0. -1.
        -11    1    3    3    0    0 -0.20152458113E+02 -0.14524849325E+01  0.64298926889E+01  0.21203179024E+02  0.51100000000E-03 0.  1.
        -12    1    3    3    0    0  0.29179758492E+02  0.13218960644E+02  0.18984194001E+02  0.37237062827E+02  0.00000000000E+00 0.  1.
</event>
<event>
 7    1  0.4089941E-013  0.7246155E+02  0.7816164E-02  0.1226708E+00
        -11   -1    0    0    0    0  0.00000000000E+00  0.00000000000E+00  0.45593999997E+02  0.45594000000E+02  0.51100000000E-03 0. -1.
         11   -1    0    0    0    0 -0.00000000000E+00 -0.00000000000E+00 -0.45593999997E+02  0.45594000000E+02  0.51100000000E-03 0.  1.
    9900012    2    1    2    0    0 -0.89679229541E+01  0.14597782016E+02 -0.75604999658E+01  0.72461547009E+02  0.69999969666E+02 0.  0.
         12    1    1    2    0    0  0.89679229541E+01 -0.14597782016E+02  0.75604999658E+01  0.18726452991E+02  0.00000000000E+00 0. -1.
         11    1    3    3    0    0  0.18444842420E+02  0.17675453277E+02  0.11674438428E+02  0.28087833190E+02  0.51100000000E-03 0. -1.
        -11    1    3    3    0    0  0.28275242574E+01  0.58345239574E+01 -0.92656452327E+01  0.11308790611E+02  0.51100000000E-03 0.  1.
        -12    1    3    3    0    0 -0.30240289631E+02 -0.89121952185E+01 -0.99692931610E+01  0.33064923208E+02  0.00000000000E+00 0.  1.
</event>
<event>
 7    1  0.2976321E-013  0.7246158E+02  0.7816164E-02  0.1226708E+00
        -11   -1    0    0    0    0  0.00000000000E+00  0.00000000000E+00  0.45593999997E+02  0.45594000000E+02  0.51100000000E-03 0.  1.
         11   -1    0    0    0    0 -0.00000000000E+00 -0.00000000000E+00 -0.45593999997E+02  0.45594000000E+02  0.51100000000E-03 0. -1.
    9900012    2    1    2    0    0  0.14029854620E+02 -0.40340070737E+01 -0.11728976773E+02  0.72461576693E+02  0.70000008335E+02 0.  0.
         12    1    1    2    0    0 -0.14029854620E+02  0.40340070737E+01  0.11728976773E+02  0.18726423307E+02  0.00000000000E+00 0. -1.
         11    1    3    3    0    0  0.10888396043E+02 -0.48550062490E+01 -0.12501495089E+02  0.17274710817E+02  0.51100000000E-03 0. -1.
        -11    1    3    3    0    0 -0.16936041701E+02 -0.81680797894E+01  0.18916493866E+02  0.26671722411E+02  0.51100000000E-03 0.  1.
         12    1    3    3    0    0  0.20077500278E+02  0.89890789648E+01 -0.18143975550E+02  0.28515143465E+02  0.00000000000E+00 0. -1.
</event>
<event>
 7    1  0.2976321E-013  0.7246105E+02  0.7816164E-02  0.1226709E+00
        -11   -1    0    0    0    0  0.00000000000E+00  0.00000000000E+00  0.45593999997E+02  0.45594000000E+02  0.51100000000E-03 0.  1.
         11   -1    0    0    0    0 -0.00000000000E+00 -0.00000000000E+00 -0.45593999997E+02  0.45594000000E+02  0.51100000000E-03 0. -1.
    9900012    2    1    2    0    0  0.49180493997E+01  0.20750979242E+01  0.17950082172E+02  0.72461049066E+02  0.69999321001E+02 0.  0.
         12    1    1    2    0    0 -0.49180493997E+01 -0.20750979242E+01 -0.17950082172E+02  0.18726950934E+02  0.00000000000E+00 0. -1.
         11    1    3    3    0    0  0.10857955440E+02  0.17619963476E+02 -0.12376024570E+02  0.24114814817E+02  0.51100000000E-03 0. -1.
        -11    1    3    3    0    0  0.13764059335E+02 -0.28748861699E+01  0.13598668209E+02  0.19561136909E+02  0.51100000000E-03 0.  1.
         12    1    3    3    0    0 -0.19703965375E+02 -0.12669979382E+02  0.16727438532E+02  0.28785097340E+02  0.00000000000E+00 0. -1.
</event>
<event>
 7    1  0.2976321E-013  0.7246158E+02  0.7816164E-02  0.1226708E+00
        -11   -1    0    0    0    0  0.00000000000E+00  0.00000000000E+00  0.45593999997E+02  0.45594000000E+02  0.51100000000E-03 0. -1.
         11   -1    0    0    0    0 -0.00000000000E+00 -0.00000000000E+00 -0.45593999997E+02  0.45594000000E+02  0.51100000000E-03 0.  1.
    9900012    2    1    2    0    0  0.87070704672E+01  0.14025431554E+02 -0.88404250682E+01  0.72461576909E+02  0.70000008617E+02 0.  0.
         12    1    1    2    0    0 -0.87070704672E+01 -0.14025431554E+02  0.88404250682E+01  0.18726423091E+02  0.00000000000E+00 0. -1.
         11    1    3    3    0    0 -0.24374386236E+01  0.21453408246E+02  0.18694584607E+02  0.28560065236E+02  0.51100000000E-03 0. -1.
        -11    1    3    3    0    0  0.12042571863E+02  0.10650163883E+02 -0.12277026937E+02  0.20228072535E+02  0.51100000000E-03 0.  1.
         12    1    3    3    0    0 -0.89806277187E+00 -0.18078140575E+02 -0.15257982738E+02  0.23673439138E+02  0.00000000000E+00 0. -1.
</event>
<event>
 7    1  0.2976321E-013  0.7246160E+02  0.7816164E-02  0.1226708E+00
        -11   -1    0    0    0    0  0.00000000000E+00  0.00000000000E+00  0.45593999997E+02  0.45594000000E+02  0.51100000000E-03 0.  1.
         11   -1    0    0    0    0 -0.00000000000E+00 -0.00000000000E+00 -0.45593999997E+02  0.45594000000E+02  0.51100000000E-03 0. -1.
    9900012    2    1    2    0    0  0.16835268976E+01 -0.13667652828E+02  0.12690123946E+02  0.72461595048E+02  0.70000032247E+02 0.  0.
         12    1    1    2    0    0 -0.16835268976E+01  0.13667652828E+02 -0.12690123946E+02  0.18726404952E+02  0.00000000000E+00 0. -1.
         11    1    3    3    0    0 -0.42991286278E+01  0.97143714658E+01 -0.21813460763E+02  0.24262699575E+02  0.51100000000E-03 0. -1.
        -11    1    3    3    0    0 -0.59792981045E+01 -0.20071681107E+02  0.18481923852E+02  0.27932166007E+02  0.51100000000E-03 0.  1.
        -12    1    3    3    0    0  0.11961953630E+02 -0.33103431862E+01  0.16021660858E+02  0.20266729467E+02  0.00000000000E+00 0.  1.
</event>
<event>
 7    1  0.2976321E-013  0.7246157E+02  0.7816164E-02  0.1226708E+00
        -11   -1    0    0    0    0  0.00000000000E+00  0.00000000000E+00  0.45593999997E+02  0.45594000000E+02  0.51100000000E-03 0. -1.
         11   -1    0    0    0    0 -0.00000000000E+00 -0.00000000000E+00 -0.45593999997E+02  0.45594000000E+02  0.51100000000E-03 0.  1.
    9900012    2    1    2    0    0 -0.85681236151E+01 -0.16376363767E+02 -0.30135176942E+01  0.72461566239E+02  0.69999994717E+02 0.  0.
         12    1    1    2    0    0  0.85681236151E+01  0.16376363767E+02  0.30135176942E+01  0.18726433761E+02  0.00000000000E+00 0. -1.
         11    1    3    3    0    0  0.13024478302E+02  0.22040170223E+02  0.57402602038E+01  0.26236553241E+02  0.51100000000E-03 0. -1.
        -11    1    3    3    0    0 -0.39494927918E+01 -0.15121864934E+01 -0.23002016009E+01  0.48141592173E+01  0.51100000000E-03 0.  1.
        -12    1    3    3    0    0 -0.17643109125E+02 -0.36904347497E+02 -0.64535762971E+01  0.41410853780E+02  0.00000000000E+00 0.  1.
</event>
<event>
 7    1  0.2976321E-013  0.7246158E+02  0.7816164E-02  0.1226708E+00
        -11   -1    0    0    0    0  0.00000000000E+00  0.00000000000E+00  0.45593999997E+02  0.45594000000E+02  0.51100000000E-03 0. -1.
         11   -1    0    0    0    0 -0.00000000000E+00 -0.00000000000E+00 -0.45593999997E+02  0.45594000000E+02  0.51100000000E-03 0.  1.
    9900012    2    1    2    0    0 -0.28536262662E+01  0.17244435290E+02 -0.67204877245E+01  0.72461583189E+02  0.70000016797E+02 0.  0.
         12    1    1    2    0    0  0.28536262662E+01 -0.17244435290E+02  0.67204877245E+01  0.18726416811E+02  0.00000000000E+00 0. -1.
         11    1    3    3    0    0 -0.19625800868E+02  0.10772282624E+01  0.43457432682E+01  0.20130026459E+02  0.51100000000E-03 0. -1.
        -11    1    3    3    0    0 -0.71655662816E+01  0.16317991468E+02  0.10007014862E+02  0.20439240015E+02  0.51100000000E-03 0.  1.
         12    1    3    3    0    0  0.23937740883E+02 -0.15078444076E+00 -0.21073245855E+02  0.31892316714E+02  0.00000000000E+00 0. -1.
</event>
<event>
 7    1  0.2976321E-013  0.7246156E+02  0.7816164E-02  0.1226708E+00
        -11   -1    0    0    0    0  0.00000000000E+00  0.00000000000E+00  0.45593999997E+02  0.45594000000E+02  0.51100000000E-03 0.  1.
         11   -1    0    0    0    0 -0.00000000000E+00 -0.00000000000E+00 -0.45593999997E+02  0.45594000000E+02  0.51100000000E-03 0. -1.
    9900012    2    1    2    0    0 -0.16693111541E+02 -0.61527729281E+01  0.58448955792E+01  0.72461564355E+02  0.69999992263E+02 0.  0.
         12    1    1    2    0    0  0.16693111541E+02  0.61527729281E+01 -0.58448955792E+01  0.18726435645E+02  0.00000000000E+00 0. -1.
         11    1    3    3    0    0 -0.11480814054E+02  0.70935512865E+01 -0.12490637478E+02  0.18388680922E+02  0.51100000000E-03 0. -1.
        -11    1    3    3    0    0  0.71602963358E+00 -0.19245729791E+02 -0.11929588106E+02  0.22654489318E+02  0.51100000000E-03 0.  1.
        -12    1    3    3    0    0 -0.59283271211E+01  0.59994055762E+01  0.30265121163E+02  0.31418394115E+02  0.00000000000E+00 0.  1.
</event>
<event>
 7    1  0.2976321E-013  0.7246159E+02  0.7816164E-02  0.1226708E+00
        -11   -1    0    0    0    0  0.00000000000E+00  0.00000000000E+00  0.45593999997E+02  0.45594000000E+02  0.51100000000E-03 0.  1.
         11   -1    0    0    0    0 -0.00000000000E+00 -0.00000000000E+00 -0.45593999997E+02  0.45594000000E+02  0.51100000000E-03 0. -1.
    9900012    2    1    2    0    0 -0.14417441578E+02 -0.10629429394E+02 -0.54617960665E+01  0.72461585310E+02  0.70000019560E+02 0.  0.
         12    1    1    2    0    0  0.14417441578E+02  0.10629429394E+02  0.54617960665E+01  0.18726414690E+02  0.00000000000E+00 0. -1.
         11    1    3    3    0    0 -0.11453758347E+01 -0.74308946658E+01 -0.80151004876E+01  0.10989627720E+02  0.51100000000E-03 0. -1.
        -11    1    3    3    0    0 -0.25276517652E+02 -0.22208571930E+02  0.13758525219E+02  0.36351341491E+02  0.51100000000E-03 0.  1.
        -12    1    3    3    0    0  0.12004451909E+02  0.19010037201E+02 -0.11205220797E+02  0.25120616098E+02  0.00000000000E+00 0.  1.
</event>
<event>
 7    1  0.2976321E-013  0.7246146E+02  0.7816164E-02  0.1226708E+00
        -11   -1    0    0    0    0  0.00000000000E+00  0.00000000000E+00  0.45593999997E+02  0.45594000000E+02  0.51100000000E-03 0.  1.
         11   -1    0    0    0    0 -0.00000000000E+00 -0.00000000000E+00 -0.45593999997E+02  0.45594000000E+02  0.51100000000E-03 0. -1.
    9900012    2    1    2    0    0  0.13818152835E+02 -0.59557038309E+00  0.12624859833E+02  0.72461464345E+02  0.69999861981E+02 0.  0.
         12    1    1    2    0    0 -0.13818152835E+02  0.59557038309E+00 -0.12624859833E+02  0.18726535655E+02  0.00000000000E+00 0. -1.
         11    1    3    3    0    0  0.39657185958E+00  0.18247935609E+01 -0.59210380996E+01  0.62085290704E+01  0.51100000000E-03 0. -1.
        -11    1    3    3    0    0 -0.23596115801E+02  0.74298332618E+01  0.11598350669E+02  0.27322167588E+02  0.51100000000E-03 0.  1.
         12    1    3    3    0    0  0.37017696777E+02 -0.98501972058E+01  0.69475472634E+01  0.38930767686E+02  0.00000000000E+00 0. -1.
</event>
<event>
 7    1  0.2976321E-013  0.7246157E+02  0.7816164E-02  0.1226708E+00
        -11   -1    0    0    0    0  0.00000000000E+00  0.00000000000E+00  0.45593999997E+02  0.45594000000E+02  0.51100000000E-03 0.  1.
         11   -1    0    0    0    0 -0.00000000000E+00 -0.00000000000E+00 -0.45593999997E+02  0.45594000000E+02  0.51100000000E-03 0. -1.
    9900012    2    1    2    0    0  0.15450618049E+02 -0.97734960616E+01  0.40542007800E+01  0.72461565013E+02  0.69999993120E+02 0.  0.
         12    1    1    2    0    0 -0.15450618049E+02  0.97734960616E+01 -0.40542007800E+01  0.18726434987E+02  0.00000000000E+00 0. -1.
         11    1    3    3    0    0 -0.37289380211E+01 -0.21630953975E+02 -0.20887664292E+01  0.22049174453E+02  0.51100000000E-03 0. -1.
        -11    1    3    3    0    0  0.17114738626E+02 -0.13891664753E+02  0.10157169804E+02  0.24270573263E+02  0.51100000000E-03 0.  1.
         12    1    3    3    0    0  0.20648174442E+01  0.25749122665E+02 -0.40142025946E+01  0.26141817297E+02  0.00000000000E+00 0. -1.
</event>
<event>
 7    1  0.2976321E-013  0.7246160E+02  0.7816164E-02  0.1226708E+00
        -11   -1    0    0    0    0  0.00000000000E+00  0.00000000000E+00  0.45593999997E+02  0.45594000000E+02  0.51100000000E-03 0.  1.
         11   -1    0    0    0    0 -0.00000000000E+00 -0.00000000000E+00 -0.45593999997E+02  0.45594000000E+02  0.51100000000E-03 0. -1.
    9900012    2    1    2    0    0 -0.10154772721E+02 -0.18082433554E+01  0.15629741294E+02  0.72461602429E+02  0.70000041862E+02 0.  0.
         12    1    1    2    0    0  0.10154772721E+02  0.18082433554E+01 -0.15629741294E+02  0.18726397571E+02  0.00000000000E+00 0. -1.
         11    1    3    3    0    0 -0.16443150090E+01  0.84548761894E-01 -0.17730981803E+00  0.16560070576E+01  0.51100000000E-03 0. -1.
        -11    1    3    3    0    0 -0.12340920082E+02  0.89633081977E+01  0.40654153697E+02  0.43421186251E+02  0.51100000000E-03 0.  1.
         12    1    3    3    0    0  0.38304623696E+01 -0.10856100315E+02 -0.24847102585E+02  0.27384409121E+02  0.00000000000E+00 0. -1.
</event>
<event>
 7    1  0.2976321E-013  0.7246155E+02  0.7816164E-02  0.1226708E+00
        -11   -1    0    0    0    0  0.00000000000E+00  0.00000000000E+00  0.45593999997E+02  0.45594000000E+02  0.51100000000E-03 0. -1.
         11   -1    0    0    0    0 -0.00000000000E+00 -0.00000000000E+00 -0.45593999997E+02  0.45594000000E+02  0.51100000000E-03 0.  1.
    9900012    2    1    2    0    0  0.14454349552E+02 -0.11876918147E+02  0.83086580723E+00  0.72461554966E+02  0.69999980031E+02 0.  0.
         12    1    1    2    0    0 -0.14454349552E+02  0.11876918147E+02 -0.83086580723E+00  0.18726445034E+02  0.00000000000E+00 0. -1.
         11    1    3    3    0    0  0.22686318035E+01 -0.21146172341E+02  0.15746877074E+02  0.26462642211E+02  0.51100000000E-03 0. -1.
        -11    1    3    3    0    0  0.84934156767E+01  0.56292350456E+01  0.13612135799E+02  0.17003430193E+02  0.51100000000E-03 0.  1.
         12    1    3    3    0    0  0.36923020718E+01  0.36400191487E+01 -0.28528147066E+02  0.28995482562E+02  0.00000000000E+00 0. -1.
</event>
<event>
 7    1  0.2976321E-013  0.7246104E+02  0.7816164E-02  0.1226709E+00
        -11   -1    0    0    0    0  0.00000000000E+00  0.00000000000E+00  0.45593999997E+02  0.45594000000E+02  0.51100000000E-03 0. -1.
         11   -1    0    0    0    0 -0.00000000000E+00 -0.00000000000E+00 -0.45593999997E+02  0.45594000000E+02  0.51100000000E-03 0.  1.
    9900012    2    1    2    0    0 -0.12082693746E+02  0.12548144391E+02 -0.68739923542E+01  0.72461035839E+02  0.69999303769E+02 0.  0.
         12    1    1    2    0    0  0.12082693746E+02 -0.12548144391E+02  0.68739923542E+01  0.18726964161E+02  0.00000000000E+00 0. -1.
         11    1    3    3    0    0  0.23162196375E+01  0.31564458716E+01 -0.84827573957E+01  0.93426547215E+01  0.51100000000E-03 0. -1.
        -11    1    3    3    0    0 -0.23723778629E+02  0.29389437577E+01 -0.24758731489E+02  0.34415837169E+02  0.51100000000E-03 0.  1.
         12    1    3    3    0    0  0.93248652457E+01  0.64527547613E+01  0.26367496530E+02  0.28702543949E+02  0.00000000000E+00 0. -1.
</event>
<event>
 7    1  0.2976321E-013  0.7246153E+02  0.7816164E-02  0.1226708E+00
        -11   -1    0    0    0    0  0.00000000000E+00  0.00000000000E+00  0.45593999997E+02  0.45594000000E+02  0.51100000000E-03 0.  1.
         11   -1    0    0    0    0 -0.00000000000E+00 -0.00000000000E+00 -0.45593999997E+02  0.45594000000E+02  0.51100000000E-03 0. -1.
    9900012    2    1    2    0    0  0.12694722819E+02 -0.10674465009E+02  0.86937018507E+01  0.72461530964E+02  0.69999948765E+02 0.  0.
         12    1    1    2    0    0 -0.12694722819E+02  0.10674465009E+02 -0.86937018507E+01  0.18726469036E+02  0.00000000000E+00 0. -1.
         11    1    3    3    0    0 -0.12370433416E+02 -0.59655298920E+01  0.21199492234E+02  0.25259327802E+02  0.51100000000E-03 0. -1.
        -11    1    3    3    0    0  0.18668192019E+02 -0.87254894898E+01  0.10400555372E+02  0.23082614938E+02  0.51100000000E-03 0.  1.
         12    1    3    3    0    0  0.63969642159E+01  0.40165543732E+01 -0.22906345755E+02  0.24119588223E+02  0.00000000000E+00 0. -1.
</event>
<event>
 7    1  0.2976321E-013  0.7246158E+02  0.7816164E-02  0.1226708E+00
        -11   -1    0    0    0    0  0.00000000000E+00  0.00000000000E+00  0.45593999997E+02  0.45594000000E+02  0.51100000000E-03 0.  1.
         11   -1    0    0    0    0 -0.00000000000E+00 -0.00000000000E+00 -0.45593999997E+02  0.45594000000E+02  0.51100000000E-03 0. -1.
    9900012    2    1    2    0    0 -0.66751158127E+01 -0.17350958264E+02 -0.22507887396E+01  0.72461575521E+02  0.70000006809E+02 0.  0.
         12    1    1    2    0    0  0.66751158127E+01  0.17350958264E+02  0.22507887396E+01  0.18726424479E+02  0.00000000000E+00 0. -1.
         11    1    3    3    0    0  0.11591906307E+01  0.34946923736E+01 -0.50986305234E+01  0.62890882629E+01  0.51100000000E-03 0. -1.
        -11    1    3    3    0    0  0.31931205346E+01 -0.31574550745E+02 -0.20811283681E+02  0.37950728613E+02  0.51100000000E-03 0.  1.
        -12    1    3    3    0    0 -0.11027426978E+02  0.10728900107E+02  0.23659125465E+02  0.28221758646E+02  0.00000000000E+00 0.  1.
</event>
<event>
 7    1  0.2976321E-013  0.7246147E+02  0.7816164E-02  0.1226708E+00
        -11   -1    0    0    0    0  0.00000000000E+00  0.00000000000E+00  0.45593999997E+02  0.45594000000E+02  0.51100000000E-03 0. -1.
         11   -1    0    0    0    0 -0.00000000000E+00 -0.00000000000E+00 -0.45593999997E+02  0.45594000000E+02  0.51100000000E-03 0.  1.
    9900012    2    1    2    0    0  0.63830707557E+01 -0.34189073444E+01 -0.17269923997E+02  0.72461473505E+02  0.69999873914E+02 0.  0.
         12    1    1    2    0    0 -0.63830707557E+01  0.34189073444E+01  0.17269923997E+02  0.18726526495E+02  0.00000000000E+00 0. -1.
         11    1    3    3    0    0  0.16895057175E+01 -0.23221450531E+01  0.65023481102E+01  0.71082570595E+01  0.51100000000E-03 0. -1.
        -11    1    3    3    0    0  0.75183578316E+01 -0.26728639238E+02 -0.27756388064E+02  0.39260195346E+02  0.51100000000E-03 0.  1.
         12    1    3    3    0    0 -0.28247927934E+01  0.25631876946E+02  0.39841159568E+01  0.26093021099E+02  0.00000000000E+00 0. -1.
</event>
<event>
 7    1  0.2976321E-013  0.7246220E+02  0.7816164E-02  0.1226706E+00
        -11   -1    0    0    0    0  0.00000000000E+00  0.00000000000E+00  0.45593999997E+02  0.45594000000E+02  0.51100000000E-03 0.  1.
         11   -1    0    0    0    0 -0.00000000000E+00 -0.00000000000E+00 -0.45593999997E+02  0.45594000000E+02  0.51100000000E-03 0. -1.
    9900012    2    1    2    0    0 -0.89468428549E+01  0.12290532106E+02  0.10933995950E+02  0.72462203783E+02  0.70000825232E+02 0.  0.
         12    1    1    2    0    0  0.89468428549E+01 -0.12290532106E+02 -0.10933995950E+02  0.18725796217E+02  0.00000000000E+00 0. -1.
         11    1    3    3    0    0  0.18596908017E+02  0.13174747027E+02 -0.19239509897E+01  0.22871828407E+02  0.51100000000E-03 0. -1.
        -11    1    3    3    0    0 -0.13794929867E+02 -0.12173168300E+02  0.22731897133E+02  0.29244234714E+02  0.51100000000E-03 0.  1.
         12    1    3    3    0    0 -0.13748821005E+02  0.11288953379E+02 -0.98739501928E+01  0.20346140662E+02  0.00000000000E+00 0. -1.
</event>
<event>
 7    1  0.2976321E-013  0.7246149E+02  0.7816164E-02  0.1226708E+00
        -11   -1    0    0    0    0  0.00000000000E+00  0.00000000000E+00  0.45593999997E+02  0.45594000000E+02  0.51100000000E-03 0.  1.
         11   -1    0    0    0    0 -0.00000000000E+00 -0.00000000000E+00 -0.45593999997E+02  0.45594000000E+02  0.51100000000E-03 0. -1.
    9900012    2    1    2    0    0 -0.38454262443E+01  0.82983295605E+01  0.16341134743E+02  0.72461487747E+02  0.69999892466E+02 0.  0.
         12    1    1    2    0    0  0.38454262443E+01 -0.82983295605E+01 -0.16341134743E+02  0.18726512253E+02  0.00000000000E+00 0. -1.
         11    1    3    3    0    0 -0.58019497874E+00 -0.55661479822E+01 -0.31374916881E+01  0.64157995548E+01  0.51100000000E-03 0. -1.
        -11    1    3    3    0    0  0.37225847577E+01  0.11648049223E+02  0.41275611252E+02  0.43048934626E+02  0.51100000000E-03 0.  1.
         12    1    3    3    0    0 -0.69878160233E+01  0.22164283197E+01 -0.21796984821E+02  0.22996753566E+02  0.00000000000E+00 0. -1.
</event>
<event>
 7    1  0.2976321E-013  0.7246150E+02  0.7816164E-02  0.1226708E+00
        -11   -1    0    0    0    0  0.00000000000E+00  0.00000000000E+00  0.45593999997E+02  0.45594000000E+02  0.51100000000E-03 0.  1.
         11   -1    0    0    0    0 -0.00000000000E+00 -0.00000000000E+00 -0.45593999997E+02  0.45594000000E+02  0.51100000000E-03 0. -1.
    9900012    2    1    2    0    0  0.17908570474E+02 -0.44515984012E+01  0.31856103308E+01  0.72461501718E+02  0.69999910666E+02 0.  0.
         12    1    1    2    0    0 -0.17908570474E+02  0.44515984012E+01 -0.31856103308E+01  0.18726498282E+02  0.00000000000E+00 0. -1.
         11    1    3    3    0    0  0.23869623290E+02  0.59823820613E+01  0.12509954666E+02  0.27605194749E+02  0.51100000000E-03 0. -1.
        -11    1    3    3    0    0  0.13784033725E+02 -0.71621274754E+00  0.87808012874E+01  0.16358943057E+02  0.51100000000E-03 0.  1.
         12    1    3    3    0    0 -0.19745086541E+02 -0.97177677150E+01 -0.18105145622E+02  0.28497363911E+02  0.00000000000E+00 0. -1.
</event>
<event>
 7    1  0.2976321E-013  0.7246155E+02  0.7816164E-02  0.1226708E+00
        -11   -1    0    0    0    0  0.00000000000E+00  0.00000000000E+00  0.45593999997E+02  0.45594000000E+02  0.51100000000E-03 0.  1.
         11   -1    0    0    0    0 -0.00000000000E+00 -0.00000000000E+00 -0.45593999997E+02  0.45594000000E+02  0.51100000000E-03 0. -1.
    9900012    2    1    2    0    0 -0.10988283955E+02 -0.11852252352E+02  0.94584196601E+01  0.72461548853E+02  0.69999972069E+02 0.  0.
         12    1    1    2    0    0  0.10988283955E+02  0.11852252352E+02 -0.94584196601E+01  0.18726451147E+02  0.00000000000E+00 0. -1.
         11    1    3    3    0    0 -0.25243141336E+02  0.79360819092E+01  0.86735848957E+01  0.27846519635E+02  0.51100000000E-03 0. -1.
        -11    1    3    3    0    0  0.33784378595E+01  0.10316786322E+02 -0.52222340592E+01  0.12046644812E+02  0.51100000000E-03 0.  1.
        -12    1    3    3    0    0  0.10876419522E+02 -0.30105120583E+02  0.60070688236E+01  0.32568384406E+02  0.00000000000E+00 0.  1.
</event>
<event>
 7    1  0.2976321E-013  0.7246140E+02  0.7816164E-02  0.1226708E+00
        -11   -1    0    0    0    0  0.00000000000E+00  0.00000000000E+00  0.45593999997E+02  0.45594000000E+02  0.51100000000E-03 0. -1.
         11   -1    0    0    0    0 -0.00000000000E+00 -0.00000000000E+00 -0.45593999997E+02  0.45594000000E+02  0.51100000000E-03 0.  1.
    9900012    2    1    2    0    0  0.12055481182E+02 -0.10040515738E+02 -0.10224425290E+02  0.72461402462E+02  0.69999781367E+02 0.  0.
         12    1    1    2    0    0 -0.12055481182E+02  0.10040515738E+02  0.10224425290E+02  0.18726597538E+02  0.00000000000E+00 0. -1.
         11    1    3    3    0    0 -0.12371686329E+02  0.15520485212E+02 -0.24998754685E+02  0.31919928257E+02  0.51100000000E-03 0. -1.
        -11    1    3    3    0    0 -0.95771145620E-01  0.92358574875E+00 -0.80445220801E+00  0.12285464435E+01  0.51100000000E-03 0.  1.
        -12    1    3    3    0    0  0.24522938657E+02 -0.26484586699E+02  0.15578781603E+02  0.39312927762E+02  0.00000000000E+00 0.  1.
</event>
<event>
 7    1  0.2976321E-013  0.7246160E+02  0.7816164E-02  0.1226708E+00
        -11   -1    0    0    0    0  0.00000000000E+00  0.00000000000E+00  0.45593999997E+02  0.45594000000E+02  0.51100000000E-03 0.  1.
         11   -1    0    0    0    0 -0.00000000000E+00 -0.00000000000E+00 -0.45593999997E+02  0.45594000000E+02  0.51100000000E-03 0. -1.
    9900012    2    1    2    0    0 -0.78398524426E+00 -0.17682494427E+02  0.61149638037E+01  0.72461600871E+02  0.70000039831E+02 0.  0.
         12    1    1    2    0    0  0.78398524426E+00  0.17682494427E+02 -0.61149638037E+01  0.18726399129E+02  0.00000000000E+00 0. -1.
         11    1    3    3    0    0 -0.17340715499E+01 -0.23938112796E+02  0.12448034109E+02  0.27036897045E+02  0.51100000000E-03 0. -1.
        -11    1    3    3    0    0  0.24837351097E+01  0.76027270252E+01  0.18684292213E+02  0.20324201684E+02  0.51100000000E-03 0.  1.
         12    1    3    3    0    0 -0.15336488041E+01 -0.13471086565E+01 -0.25017362519E+02  0.25100502142E+02  0.00000000000E+00 0. -1.
</event>
<event>
 7    1  0.2976321E-013  0.7246155E+02  0.7816164E-02  0.1226708E+00
        -11   -1    0    0    0    0  0.00000000000E+00  0.00000000000E+00  0.45593999997E+02  0.45594000000E+02  0.51100000000E-03 0.  1.
         11   -1    0    0    0    0 -0.00000000000E+00 -0.00000000000E+00 -0.45593999997E+02  0.45594000000E+02  0.51100000000E-03 0. -1.
    9900012    2    1    2    0    0 -0.80299262728E+01  0.16357876336E+02  0.43150964645E+01  0.72461551013E+02  0.69999974882E+02 0.  0.
         12    1    1    2    0    0  0.80299262728E+01 -0.16357876336E+02 -0.43150964645E+01  0.18726448987E+02  0.00000000000E+00 0. -1.
         11    1    3    3    0    0  0.18809866554E+01  0.11389857210E+02  0.98003768555E+01  0.15143128634E+02  0.51100000000E-03 0.  1.
        -11    1    3    3    0    0 -0.30141114449E+02 -0.40995248227E+01 -0.14108223991E+02  0.33531103001E+02  0.51100000000E-03 0. -1.
         12    1    3    3    0    0  0.20230201521E+02  0.90675439494E+01  0.86229436002E+01  0.23787319378E+02  0.00000000000E+00 0. -1.
</event>
<event>
 7    1  0.2976321E-013  0.7246152E+02  0.7816164E-02  0.1226708E+00
        -11   -1    0    0    0    0  0.00000000000E+00  0.00000000000E+00  0.45593999997E+02  0.45594000000E+02  0.51100000000E-03 0. -1.
         11   -1    0    0    0    0 -0.00000000000E+00 -0.00000000000E+00 -0.45593999997E+02  0.45594000000E+02  0.51100000000E-03 0.  1.
    9900012    2    1    2    0    0  0.17086355827E+02  0.71876404383E+01  0.26599406552E+01  0.72461521024E+02  0.69999935817E+02 0.  0.
         12    1    1    2    0    0 -0.17086355827E+02 -0.71876404383E+01 -0.26599406552E+01  0.18726478976E+02  0.00000000000E+00 0. -1.
         11    1    3    3    0    0 -0.15388953282E+02 -0.67450472309E+01  0.12467049420E+02  0.20922305484E+02  0.51100000000E-03 0. -1.
        -11    1    3    3    0    0  0.42662000365E+01 -0.10399885337E+01  0.12059535730E+02  0.12834112404E+02  0.51100000000E-03 0.  1.
        -12    1    3    3    0    0  0.28209109073E+02  0.14972676203E+02 -0.21866644495E+02  0.38705103137E+02  0.00000000000E+00 0.  1.
</event>
<event>
 7    1  0.2976321E-013  0.7246155E+02  0.7816164E-02  0.1226708E+00
        -11   -1    0    0    0    0  0.00000000000E+00  0.00000000000E+00  0.45593999997E+02  0.45594000000E+02  0.51100000000E-03 0.  1.
         11   -1    0    0    0    0 -0.00000000000E+00 -0.00000000000E+00 -0.45593999997E+02  0.45594000000E+02  0.51100000000E-03 0. -1.
    9900012    2    1    2    0    0  0.24083311357E+01 -0.15950166993E+02  0.95116878000E+01  0.72461545697E+02  0.69999967957E+02 0.  0.
         12    1    1    2    0    0 -0.24083311357E+01  0.15950166993E+02 -0.95116878000E+01  0.18726454303E+02  0.00000000000E+00 0. -1.
         11    1    3    3    0    0  0.14909156116E+02 -0.90501656371E+01 -0.17835710058E+01  0.17531958246E+02  0.51100000000E-03 0. -1.
        -11    1    3    3    0    0  0.10480453419E+02  0.10269864565E+02  0.20132369658E+02  0.24912292756E+02  0.51100000000E-03 0.  1.
        -12    1    3    3    0    0 -0.22981278399E+02 -0.17169865921E+02 -0.88371108519E+01  0.30017294695E+02  0.00000000000E+00 0.  1.
</event>
<event>
 7    1  0.2976321E-013  0.7246160E+02  0.7816164E-02  0.1226708E+00
        -11   -1    0    0    0    0  0.00000000000E+00  0.00000000000E+00  0.45593999997E+02  0.45594000000E+02  0.51100000000E-03 0.  1.
         11   -1    0    0    0    0 -0.00000000000E+00 -0.00000000000E+00 -0.45593999997E+02  0.45594000000E+02  0.51100000000E-03 0. -1.
    9900012    2    1    2    0    0  0.17722528102E+02 -0.49887188056E+01 -0.34209147629E+01  0.72461602176E+02  0.70000041532E+02 0.  0.
         12    1    1    2    0    0 -0.17722528102E+02  0.49887188056E+01  0.34209147629E+01  0.18726397824E+02  0.00000000000E+00 0. -1.
         11    1    3    3    0    0 -0.68475996230E+01 -0.42383514558E+01  0.16916852452E+02  0.18735878437E+02  0.51100000000E-03 0. -1.
        -11    1    3    3    0    0  0.53942226024E+01  0.28508304515E+01  0.13416201175E+02  0.14738362391E+02  0.51100000000E-03 0.  1.
        -12    1    3    3    0    0  0.19175905123E+02 -0.36011978013E+01 -0.33753968389E+02  0.38987361348E+02  0.00000000000E+00 0.  1.
</event>
<event>
 7    1  0.2976321E-013  0.7246157E+02  0.7816164E-02  0.1226708E+00
        -11   -1    0    0    0    0  0.00000000000E+00  0.00000000000E+00  0.45593999997E+02  0.45594000000E+02  0.51100000000E-03 0.  1.
         11   -1    0    0    0    0 -0.00000000000E+00 -0.00000000000E+00 -0.45593999997E+02  0.45594000000E+02  0.51100000000E-03 0. -1.
    9900012    2    1    2    0    0 -0.23686124945E+01 -0.13386852447E+02  0.12878708140E+02  0.72461567693E+02  0.69999996612E+02 0.  0.
         12    1    1    2    0    0  0.23686124945E+01  0.13386852447E+02 -0.12878708140E+02  0.18726432307E+02  0.00000000000E+00 0. -1.
         11    1    3    3    0    0  0.56636830481E+01 -0.19929224449E+02  0.77647765072E+01  0.22125619704E+02  0.51100000000E-03 0.  1.
        -11    1    3    3    0    0  0.14800441931E+02  0.76408442323E+01 -0.13033087096E+02  0.21149395770E+02  0.51100000000E-03 0. -1.
        -12    1    3    3    0    0 -0.22832737473E+02 -0.10984722300E+01  0.18147018728E+02  0.29186552220E+02  0.00000000000E+00 0.  1.
</event>
<event>
 7    1  0.2976321E-013  0.7246155E+02  0.7816164E-02  0.1226708E+00
        -11   -1    0    0    0    0  0.00000000000E+00  0.00000000000E+00  0.45593999997E+02  0.45594000000E+02  0.51100000000E-03 0.  1.
         11   -1    0    0    0    0 -0.00000000000E+00 -0.00000000000E+00 -0.45593999997E+02  0.45594000000E+02  0.51100000000E-03 0. -1.
    9900012    2    1    2    0    0  0.75169655320E+01 -0.16963303905E+02 -0.25340819464E+01  0.72461547547E+02  0.69999970367E+02 0.  0.
         12    1    1    2    0    0 -0.75169655320E+01  0.16963303905E+02  0.25340819464E+01  0.18726452453E+02  0.00000000000E+00 0. -1.
         11    1    3    3    0    0  0.14729198402E+02  0.11253227993E+02  0.31100794137E+01  0.18795132881E+02  0.51100000000E-03 0. -1.
        -11    1    3    3    0    0  0.63751034473E+01 -0.97763269671E+01 -0.22419182939E+02  0.25275250283E+02  0.51100000000E-03 0.  1.
        -12    1    3    3    0    0 -0.13587336317E+02 -0.18440204930E+02  0.16775021579E+02  0.28391164383E+02  0.00000000000E+00 0.  1.
</event>
<event>
 7    1  0.2976321E-013  0.7246151E+02  0.7816164E-02  0.1226708E+00
        -11   -1    0    0    0    0  0.00000000000E+00  0.00000000000E+00  0.45593999997E+02  0.45594000000E+02  0.51100000000E-03 0. -1.
         11   -1    0    0    0    0 -0.00000000000E+00 -0.00000000000E+00 -0.45593999997E+02  0.45594000000E+02  0.51100000000E-03 0.  1.
    9900012    2    1    2    0    0 -0.16086981903E+02  0.95557669429E+01 -0.76000589203E+00  0.72461514009E+02  0.69999926677E+02 0.  0.
         12    1    1    2    0    0  0.16086981903E+02 -0.95557669429E+01  0.76000589203E+00  0.18726485991E+02  0.00000000000E+00 0. -1.
         11    1    3    3    0    0 -0.20557909790E+01 -0.64246079100E+01  0.39461416267E+01  0.78149790368E+01  0.51100000000E-03 0. -1.
        -11    1    3    3    0    0  0.20117990378E+02  0.12743279581E+02  0.11802266088E+02  0.26578528861E+02  0.51100000000E-03 0.  1.
         12    1    3    3    0    0 -0.34149181303E+02  0.32370952721E+01 -0.16508413607E+02  0.38068006111E+02  0.00000000000E+00 0. -1.
</event>
<event>
 7    1  0.2976321E-013  0.7246154E+02  0.7816164E-02  0.1226708E+00
        -11   -1    0    0    0    0  0.00000000000E+00  0.00000000000E+00  0.45593999997E+02  0.45594000000E+02  0.51100000000E-03 0. -1.
         11   -1    0    0    0    0 -0.00000000000E+00 -0.00000000000E+00 -0.45593999997E+02  0.45594000000E+02  0.51100000000E-03 0.  1.
    9900012    2    1    2    0    0  0.11679088856E+02 -0.14590712115E+02 -0.11790864880E+01  0.72461541673E+02  0.69999962715E+02 0.  0.
         12    1    1    2    0    0 -0.11679088856E+02  0.14590712115E+02  0.11790864880E+01  0.18726458327E+02  0.00000000000E+00 0. -1.
         11    1    3    3    0    0  0.13749884571E+02 -0.75329127169E+01  0.20603464716E+02  0.25890285018E+02  0.51100000000E-03 0. -1.
        -11    1    3    3    0    0  0.18402823486E+02  0.13587420448E+01 -0.60704371085E+01  0.19425763798E+02  0.51100000000E-03 0.  1.
        -12    1    3    3    0    0 -0.20473619202E+02 -0.84165414431E+01 -0.15712114096E+02  0.27145492857E+02  0.00000000000E+00 0.  1.
</event>
<event>
 7    1  0.2976321E-013  0.7246157E+02  0.7816164E-02  0.1226708E+00
        -11   -1    0    0    0    0  0.00000000000E+00  0.00000000000E+00  0.45593999997E+02  0.45594000000E+02  0.51100000000E-03 0.  1.
         11   -1    0    0    0    0 -0.00000000000E+00 -0.00000000000E+00 -0.45593999997E+02  0.45594000000E+02  0.51100000000E-03 0. -1.
    9900012    2    1    2    0    0  0.81030807584E+01 -0.12115805371E+02  0.11756981967E+02  0.72461567277E+02  0.69999996069E+02 0.  0.
         12    1    1    2    0    0 -0.81030807584E+01  0.12115805371E+02 -0.11756981967E+02  0.18726432723E+02  0.00000000000E+00 0. -1.
         11    1    3    3    0    0 -0.84694015801E+00  0.17626583341E+02 -0.75832422600E+01  0.19207272355E+02  0.51100000000E-03 0. -1.
        -11    1    3    3    0    0  0.11912047448E+02 -0.10201488542E+02  0.27670759573E+02  0.31806260052E+02  0.51100000000E-03 0.  1.
         12    1    3    3    0    0 -0.29620265314E+01 -0.19540900170E+02 -0.83305353464E+01  0.21448034870E+02  0.00000000000E+00 0. -1.
</event>
<event>
 7    1  0.2976321E-013  0.7246153E+02  0.7816164E-02  0.1226708E+00
        -11   -1    0    0    0    0  0.00000000000E+00  0.00000000000E+00  0.45593999997E+02  0.45594000000E+02  0.51100000000E-03 0.  1.
         11   -1    0    0    0    0 -0.00000000000E+00 -0.00000000000E+00 -0.45593999997E+02  0.45594000000E+02  0.51100000000E-03 0. -1.
    9900012    2    1    2    0    0 -0.12404657165E+02 -0.15863354838E+01  0.13938744139E+02  0.72461532959E+02  0.69999951364E+02 0.  0.
         12    1    1    2    0    0  0.12404657165E+02  0.15863354838E+01 -0.13938744139E+02  0.18726467041E+02  0.00000000000E+00 0. -1.
         11    1    3    3    0    0  0.13207952660E+02 -0.11007223855E+02 -0.17315606078E+02  0.24401622991E+02  0.51100000000E-03 0. -1.
        -11    1    3    3    0    0 -0.20129025790E+02 -0.52494997053E+01  0.19007801144E+02  0.28178563324E+02  0.51100000000E-03 0.  1.
        -12    1    3    3    0    0 -0.54835840346E+01  0.14670388077E+02  0.12246549074E+02  0.19881346645E+02  0.00000000000E+00 0.  1.
</event>
<event>
 7    1  0.2976321E-013  0.7246159E+02  0.7816164E-02  0.1226708E+00
        -11   -1    0    0    0    0  0.00000000000E+00  0.00000000000E+00  0.45593999997E+02  0.45594000000E+02  0.51100000000E-03 0. -1.
         11   -1    0    0    0    0 -0.00000000000E+00 -0.00000000000E+00 -0.45593999997E+02  0.45594000000E+02  0.51100000000E-03 0.  1.
    9900012    2    1    2    0    0  0.16969609270E+02  0.71747551647E+01 -0.33516698780E+01  0.72461589735E+02  0.70000025325E+02 0.  0.
         12    1    1    2    0    0 -0.16969609270E+02 -0.71747551647E+01  0.33516698780E+01  0.18726410265E+02  0.00000000000E+00 0. -1.
         11    1    3    3    0    0  0.27887244591E+01  0.94464783661E+01  0.73885639639E+01  0.12312750113E+02  0.51100000000E-03 0. -1.
        -11    1    3    3    0    0  0.30922894185E+02 -0.12975071089E+02  0.61202872015E+01  0.34088645767E+02  0.51100000000E-03 0.  1.
         12    1    3    3    0    0 -0.16742009374E+02  0.10703347888E+02 -0.16860521043E+02  0.26060193855E+02  0.00000000000E+00 0. -1.
</event>
<event>
 7    1  0.2976321E-013  0.7246158E+02  0.7816164E-02  0.1226708E+00
        -11   -1    0    0    0    0  0.00000000000E+00  0.00000000000E+00  0.45593999997E+02  0.45594000000E+02  0.51100000000E-03 0.  1.
         11   -1    0    0    0    0 -0.00000000000E+00 -0.00000000000E+00 -0.45593999997E+02  0.45594000000E+02  0.51100000000E-03 0. -1.
    9900012    2    1    2    0    0 -0.92894948628E+01 -0.15195769207E+02 -0.57855574057E+01  0.72461580398E+02  0.70000013162E+02 0.  0.
         12    1    1    2    0    0  0.92894948628E+01  0.15195769207E+02  0.57855574057E+01  0.18726419602E+02  0.00000000000E+00 0. -1.
         11    1    3    3    0    0 -0.27524618458E+02 -0.14491207398E+02  0.53038258265E+00  0.31110786217E+02  0.51100000000E-03 0. -1.
        -11    1    3    3    0    0 -0.55430417089E+01 -0.33768021330E+01  0.10331773876E+02  0.12201379255E+02  0.51100000000E-03 0.  1.
        -12    1    3    3    0    0  0.23778165304E+02  0.26722403238E+01 -0.16647713865E+02  0.29149414926E+02  0.00000000000E+00 0.  1.
</event>
<event>
 7    1  0.2976321E-013  0.7246142E+02  0.7816164E-02  0.1226708E+00
        -11   -1    0    0    0    0  0.00000000000E+00  0.00000000000E+00  0.45593999997E+02  0.45594000000E+02  0.51100000000E-03 0.  1.
         11   -1    0    0    0    0 -0.00000000000E+00 -0.00000000000E+00 -0.45593999997E+02  0.45594000000E+02  0.51100000000E-03 0. -1.
    9900012    2    1    2    0    0  0.43459048734E+01 -0.54374415474E+01  0.17384827926E+02  0.72461417243E+02  0.69999800622E+02 0.  0.
         12    1    1    2    0    0 -0.43459048734E+01  0.54374415474E+01 -0.17384827926E+02  0.18726582757E+02  0.00000000000E+00 0. -1.
         11    1    3    3    0    0  0.20333126619E+01 -0.27868735100E+01 -0.21988861170E+02  0.22257830985E+02  0.51100000000E-03 0. -1.
        -11    1    3    3    0    0 -0.61748717445E+01 -0.13303200654E+02  0.97862834692E+01  0.17631662800E+02  0.51100000000E-03 0.  1.
        -12    1    3    3    0    0  0.84874639560E+01  0.10652632616E+02  0.29587405626E+02  0.32571923458E+02  0.00000000000E+00 0.  1.
</event>
<event>
 7    1  0.2976321E-013  0.7246155E+02  0.7816164E-02  0.1226708E+00
        -11   -1    0    0    0    0  0.00000000000E+00  0.00000000000E+00  0.45593999997E+02  0.45594000000E+02  0.51100000000E-03 0. -1.
         11   -1    0    0    0    0 -0.00000000000E+00 -0.00000000000E+00 -0.45593999997E+02  0.45594000000E+02  0.51100000000E-03 0.  1.
    9900012    2    1    2    0    0 -0.15583604699E+02 -0.95422621524E+01 -0.40959203317E+01  0.72461546365E+02  0.69999968827E+02 0.  0.
         12    1    1    2    0    0  0.15583604699E+02  0.95422621524E+01  0.40959203317E+01  0.18726453635E+02  0.00000000000E+00 0. -1.
         11    1    3    3    0    0  0.18889329717E+02 -0.20748870302E+02 -0.12711229570E+02  0.30804184024E+02  0.51100000000E-03 0. -1.
        -11    1    3    3    0    0 -0.37770140249E+01  0.28730802824E+01  0.86318317414E+01  0.98503271380E+01  0.51100000000E-03 0.  1.
        -12    1    3    3    0    0 -0.30695920391E+02  0.83335278673E+01 -0.16522502830E-01  0.31807035202E+02  0.00000000000E+00 0.  1.
</event>
<event>
 7    1  0.2976321E-013  0.7246156E+02  0.7816164E-02  0.1226708E+00
        -11   -1    0    0    0    0  0.00000000000E+00  0.00000000000E+00  0.45593999997E+02  0.45594000000E+02  0.51100000000E-03 0.  1.
         11   -1    0    0    0    0 -0.00000000000E+00 -0.00000000000E+00 -0.45593999997E+02  0.45594000000E+02  0.51100000000E-03 0. -1.
    9900012    2    1    2    0    0  0.67501132989E+01 -0.37363875197E+01  0.17063258687E+02  0.72461563653E+02  0.69999991349E+02 0.  0.
         12    1    1    2    0    0 -0.67501132989E+01  0.37363875197E+01 -0.17063258687E+02  0.18726436347E+02  0.00000000000E+00 0. -1.
         11    1    3    3    0    0 -0.64008280395E+01  0.70550590027E+01 -0.51365928215E+01  0.10822617206E+02  0.51100000000E-03 0. -1.
        -11    1    3    3    0    0  0.19940132513E+02  0.11097157395E+02 -0.75941996047E+01  0.24050522963E+02  0.51100000000E-03 0.  1.
         12    1    3    3    0    0 -0.67891911747E+01 -0.21888603918E+02  0.29794051113E+02  0.37588423484E+02  0.00000000000E+00 0. -1.
</event>
<event>
 7    1  0.2976321E-013  0.7246158E+02  0.7816164E-02  0.1226708E+00
        -11   -1    0    0    0    0  0.00000000000E+00  0.00000000000E+00  0.45593999997E+02  0.45594000000E+02  0.51100000000E-03 0.  1.
         11   -1    0    0    0    0 -0.00000000000E+00 -0.00000000000E+00 -0.45593999997E+02  0.45594000000E+02  0.51100000000E-03 0. -1.
    9900012    2    1    2    0    0 -0.11037339642E+02 -0.46175311752E+00  0.15120937323E+02  0.72461579418E+02  0.70000011885E+02 0.  0.
         12    1    1    2    0    0  0.11037339642E+02  0.46175311752E+00 -0.15120937323E+02  0.18726420582E+02  0.00000000000E+00 0. -1.
         11    1    3    3    0    0 -0.23145679125E+01 -0.20683996454E+02  0.35808733728E+01  0.21118891739E+02  0.51100000000E-03 0. -1.
        -11    1    3    3    0    0 -0.18759212880E+02  0.61924610913E+01  0.23238084034E+02  0.30500216263E+02  0.51100000000E-03 0.  1.
         12    1    3    3    0    0  0.10036441151E+02  0.14029782245E+02 -0.11698020084E+02  0.20842471415E+02  0.00000000000E+00 0. -1.
</event>
<event>
 7    1  0.2976321E-013  0.7246162E+02  0.7816164E-02  0.1226708E+00
        -11   -1    0    0    0    0  0.00000000000E+00  0.00000000000E+00  0.45593999997E+02  0.45594000000E+02  0.51100000000E-03 0. -1.
         11   -1    0    0    0    0 -0.00000000000E+00 -0.00000000000E+00 -0.45593999997E+02  0.45594000000E+02  0.51100000000E-03 0.  1.
    9900012    2    1    2    0    0  0.30426150919E+01  0.13196811433E+02 -0.12933055334E+02  0.72461621309E+02  0.70000066456E+02 0.  0.
         12    1    1    2    0    0 -0.30426150919E+01 -0.13196811433E+02  0.12933055334E+02  0.18726378691E+02  0.00000000000E+00 0. -1.
         11    1    3    3    0    0 -0.90947227187E+01 -0.21863241765E+02 -0.20932391121E+02  0.31605067950E+02  0.51100000000E-03 0. -1.
        -11    1    3    3    0    0  0.41301511901E+01  0.40398358436E+01 -0.35736489730E+01  0.67933342138E+01  0.51100000000E-03 0.  1.
        -12    1    3    3    0    0  0.80071866205E+01  0.31020217355E+02  0.11572984759E+02  0.34063219145E+02  0.00000000000E+00 0.  1.
</event>
<event>
 7    1  0.2976321E-013  0.7246167E+02  0.7816164E-02  0.1226708E+00
        -11   -1    0    0    0    0  0.00000000000E+00  0.00000000000E+00  0.45593999997E+02  0.45594000000E+02  0.51100000000E-03 0.  1.
         11   -1    0    0    0    0 -0.00000000000E+00 -0.00000000000E+00 -0.45593999997E+02  0.45594000000E+02  0.51100000000E-03 0. -1.
    9900012    2    1    2    0    0 -0.81089119436E+01  0.16305818515E+02 -0.43636414984E+01  0.72461667271E+02  0.70000126330E+02 0.  0.
         12    1    1    2    0    0  0.81089119436E+01 -0.16305818515E+02  0.43636414984E+01  0.18726332729E+02  0.00000000000E+00 0. -1.
         11    1    3    3    0    0  0.37265053082E+01 -0.14866665539E+02 -0.60139963979E+01  0.16464286775E+02  0.51100000000E-03 0. -1.
        -11    1    3    3    0    0  0.11244123139E+02 -0.20897604090E+01  0.93674974221E+01  0.14783349145E+02  0.51100000000E-03 0.  1.
         12    1    3    3    0    0 -0.23079540391E+02  0.33262244464E+02 -0.77171425226E+01  0.41214031350E+02  0.00000000000E+00 0. -1.
</event>
<event>
 7    1  0.2976321E-013  0.7246152E+02  0.7816164E-02  0.1226708E+00
        -11   -1    0    0    0    0  0.00000000000E+00  0.00000000000E+00  0.45593999997E+02  0.45594000000E+02  0.51100000000E-03 0. -1.
         11   -1    0    0    0    0 -0.00000000000E+00 -0.00000000000E+00 -0.45593999997E+02  0.45594000000E+02  0.51100000000E-03 0.  1.
    9900012    2    1    2    0    0  0.70277080304E+01  0.17162266426E+02 -0.25979134352E+01  0.72461515459E+02  0.69999928567E+02 0.  0.
         12    1    1    2    0    0 -0.70277080304E+01 -0.17162266426E+02  0.25979134352E+01  0.18726484541E+02  0.00000000000E+00 0. -1.
         11    1    3    3    0    0  0.13971367653E+02  0.23871506339E+02  0.16008831380E+02  0.31958263585E+02  0.51100000000E-03 0. -1.
        -11    1    3    3    0    0 -0.19307499287E+00  0.14096203283E+02 -0.69412660737E+01  0.15713732845E+02  0.51100000000E-03 0.  1.
        -12    1    3    3    0    0 -0.67505846295E+01 -0.20805443196E+02 -0.11665478741E+02  0.24789519029E+02  0.00000000000E+00 0.  1.
</event>
<event>
 7    1  0.3589553E-013  0.7246155E+02  0.7816164E-02  0.1226708E+00
        -11   -1    0    0    0    0  0.00000000000E+00  0.00000000000E+00  0.45593999997E+02  0.45594000000E+02  0.51100000000E-03 0. -1.
         11   -1    0    0    0    0 -0.00000000000E+00 -0.00000000000E+00 -0.45593999997E+02  0.45594000000E+02  0.51100000000E-03 0.  1.
    9900012    2    1    2    0    0  0.51086154907E+01  0.17949125926E+02 -0.15527211696E+01  0.72461547673E+02  0.69999970531E+02 0.  0.
         12    1    1    2    0    0 -0.51086154907E+01 -0.17949125926E+02  0.15527211696E+01  0.18726452327E+02  0.00000000000E+00 0. -1.
         11    1    3    3    0    0  0.12112232148E+02 -0.20129880006E+02 -0.22367332172E+01  0.23599178215E+02  0.51100000000E-03 0. -1.
        -11    1    3    3    0    0 -0.10581397437E+02  0.11089345504E+02 -0.11373064798E+02  0.19086281947E+02  0.51100000000E-03 0.  1.
        -12    1    3    3    0    0  0.35777807797E+01  0.26989660429E+02  0.12057076846E+02  0.29776087510E+02  0.00000000000E+00 0.  1.
</event>
<event>
 7    1  0.2976321E-013  0.7246152E+02  0.7816164E-02  0.1226708E+00
        -11   -1    0    0    0    0  0.00000000000E+00  0.00000000000E+00  0.45593999997E+02  0.45594000000E+02  0.51100000000E-03 0.  1.
         11   -1    0    0    0    0 -0.00000000000E+00 -0.00000000000E+00 -0.45593999997E+02  0.45594000000E+02  0.51100000000E-03 0. -1.
    9900012    2    1    2    0    0 -0.64025697496E+00  0.13833462436E+02 -0.12605802700E+02  0.72461524793E+02  0.69999940726E+02 0.  0.
         12    1    1    2    0    0  0.64025697496E+00 -0.13833462436E+02  0.12605802700E+02  0.18726475207E+02  0.00000000000E+00 0. -1.
         11    1    3    3    0    0  0.25388268036E+02  0.78504992406E+00 -0.71025472719E+01  0.26374734791E+02  0.51100000000E-03 0. -1.
        -11    1    3    3    0    0 -0.89368481405E+01  0.25910268793E+01 -0.19526386935E+02  0.21630082338E+02  0.51100000000E-03 0.  1.
         12    1    3    3    0    0 -0.17091676871E+02  0.10457385633E+02  0.14023131507E+02  0.24456707664E+02  0.00000000000E+00 0. -1.
</event>
<event>
 7    1  0.2976321E-013  0.7246160E+02  0.7816164E-02  0.1226708E+00
        -11   -1    0    0    0    0  0.00000000000E+00  0.00000000000E+00  0.45593999997E+02  0.45594000000E+02  0.51100000000E-03 0. -1.
         11   -1    0    0    0    0 -0.00000000000E+00 -0.00000000000E+00 -0.45593999997E+02  0.45594000000E+02  0.51100000000E-03 0.  1.
    9900012    2    1    2    0    0 -0.83853750431E+01 -0.37287552374E+00 -0.16739902287E+02  0.72461604742E+02  0.70000044874E+02 0.  0.
         12    1    1    2    0    0  0.83853750431E+01  0.37287552374E+00  0.16739902287E+02  0.18726395258E+02  0.00000000000E+00 0. -1.
         11    1    3    3    0    0  0.46921262345E+01 -0.50518087344E+01  0.29133967225E+01  0.74849649842E+01  0.51100000000E-03 0. -1.
        -11    1    3    3    0    0  0.10212712884E+02  0.80488794736E+01 -0.34692086629E+02  0.37048951945E+02  0.51100000000E-03 0.  1.
        -12    1    3    3    0    0 -0.23290214162E+02 -0.33699462629E+01  0.15038787620E+02  0.27927687813E+02  0.00000000000E+00 0.  1.
</event>
<event>
 7    1  0.2976321E-013  0.7246164E+02  0.7816164E-02  0.1226708E+00
        -11   -1    0    0    0    0  0.00000000000E+00  0.00000000000E+00  0.45593999997E+02  0.45594000000E+02  0.51100000000E-03 0.  1.
         11   -1    0    0    0    0 -0.00000000000E+00 -0.00000000000E+00 -0.45593999997E+02  0.45594000000E+02  0.51100000000E-03 0. -1.
    9900012    2    1    2    0    0  0.12724068866E+02 -0.94083178774E+01 -0.10012900212E+02  0.72461640385E+02  0.70000091306E+02 0.  0.
         12    1    1    2    0    0 -0.12724068866E+02  0.94083178774E+01  0.10012900212E+02  0.18726359615E+02  0.00000000000E+00 0. -1.
         11    1    3    3    0    0  0.14079669189E+01 -0.53302541062E+00  0.40660922750E+01  0.43358498110E+01  0.51100000000E-03 0. -1.
        -11    1    3    3    0    0 -0.11570441541E+02 -0.22967817163E+02  0.13979305256E+02  0.29271431779E+02  0.51100000000E-03 0.  1.
         12    1    3    3    0    0  0.22886543488E+02  0.14092524696E+02 -0.28058297743E+02  0.38854358795E+02  0.00000000000E+00 0. -1.
</event>
<event>
 7    1  0.2976321E-013  0.7246156E+02  0.7816164E-02  0.1226708E+00
        -11   -1    0    0    0    0  0.00000000000E+00  0.00000000000E+00  0.45593999997E+02  0.45594000000E+02  0.51100000000E-03 0. -1.
         11   -1    0    0    0    0 -0.00000000000E+00 -0.00000000000E+00 -0.45593999997E+02  0.45594000000E+02  0.51100000000E-03 0.  1.
    9900012    2    1    2    0    0 -0.40794774514E+01  0.29768274636E+01 -0.18032638193E+02  0.72461556712E+02  0.69999982306E+02 0.  0.
         12    1    1    2    0    0  0.40794774514E+01 -0.29768274636E+01  0.18032638193E+02  0.18726443288E+02  0.00000000000E+00 0. -1.
         11    1    3    3    0    0  0.54101269179E+01 -0.65362061902E+01  0.32577633515E+01  0.90887010592E+01  0.51100000000E-03 0. -1.
        -11    1    3    3    0    0  0.15449460931E+02 -0.10495069915E+02 -0.24977025269E+02  0.31187884300E+02  0.51100000000E-03 0.  1.
         12    1    3    3    0    0 -0.24939065300E+02  0.20008103569E+02  0.36866237239E+01  0.32184971352E+02  0.00000000000E+00 0. -1.
</event>
<event>
 7    1  0.2976321E-013  0.7246157E+02  0.7816164E-02  0.1226708E+00
        -11   -1    0    0    0    0  0.00000000000E+00  0.00000000000E+00  0.45593999997E+02  0.45594000000E+02  0.51100000000E-03 0. -1.
         11   -1    0    0    0    0 -0.00000000000E+00 -0.00000000000E+00 -0.45593999997E+02  0.45594000000E+02  0.51100000000E-03 0.  1.
    9900012    2    1    2    0    0  0.40469507269E+01 -0.12515534796E+02 -0.13329016178E+02  0.72461572319E+02  0.70000002637E+02 0.  0.
         12    1    1    2    0    0 -0.40469507269E+01  0.12515534796E+02  0.13329016178E+02  0.18726427681E+02  0.00000000000E+00 0. -1.
         11    1    3    3    0    0 -0.10745515761E+02  0.10318696400E+02 -0.52639962055E+01  0.15800356346E+02  0.51100000000E-03 0. -1.
        -11    1    3    3    0    0  0.18554195583E+02 -0.23112376782E+02 -0.25330728861E+02  0.38988279766E+02  0.51100000000E-03 0.  1.
         12    1    3    3    0    0 -0.37617290952E+01  0.27814558624E+00  0.17265708888E+02  0.17672936206E+02  0.00000000000E+00 0. -1.
</event>
<event>
 7    1  0.2976321E-013  0.7246156E+02  0.7816164E-02  0.1226708E+00
        -11   -1    0    0    0    0  0.00000000000E+00  0.00000000000E+00  0.45593999997E+02  0.45594000000E+02  0.51100000000E-03 0.  1.
         11   -1    0    0    0    0 -0.00000000000E+00 -0.00000000000E+00 -0.45593999997E+02  0.45594000000E+02  0.51100000000E-03 0. -1.
    9900012    2    1    2    0    0  0.14202499979E+02  0.57037793700E+01  0.10790531407E+02  0.72461556857E+02  0.69999982495E+02 0.  0.
         12    1    1    2    0    0 -0.14202499979E+02 -0.57037793700E+01 -0.10790531407E+02  0.18726443143E+02  0.00000000000E+00 0. -1.
         11    1    3    3    0    0 -0.12427992183E+01 -0.26568701892E+01 -0.71250613188E+01  0.77051935834E+01  0.51100000000E-03 0. -1.
        -11    1    3    3    0    0 -0.15087788218E+02  0.23174103958E+02  0.12667256752E+02  0.30416111544E+02  0.51100000000E-03 0.  1.
         12    1    3    3    0    0  0.30533087415E+02 -0.14813454399E+02  0.52483359738E+01  0.34340251729E+02  0.00000000000E+00 0. -1.
</event>
<event>
 7    1  0.2976321E-013  0.7246130E+02  0.7816164E-02  0.1226709E+00
        -11   -1    0    0    0    0  0.00000000000E+00  0.00000000000E+00  0.45593999997E+02  0.45594000000E+02  0.51100000000E-03 0. -1.
         11   -1    0    0    0    0 -0.00000000000E+00 -0.00000000000E+00 -0.45593999997E+02  0.45594000000E+02  0.51100000000E-03 0.  1.
    9900012    2    1    2    0    0 -0.18541189272E+01  0.23767254004E+01 -0.18482492616E+02  0.72461304778E+02  0.69999654115E+02 0.  0.
         12    1    1    2    0    0  0.18541189272E+01 -0.23767254004E+01  0.18482492616E+02  0.18726695222E+02  0.00000000000E+00 0. -1.
         11    1    3    3    0    0  0.26390883357E+02  0.14588307742E+02 -0.65590955747E+01  0.30859669184E+02  0.51100000000E-03 0. -1.
        -11    1    3    3    0    0 -0.12564715278E+02  0.51079445649E+01 -0.12191093261E+02  0.18236938418E+02  0.51100000000E-03 0.  1.
        -12    1    3    3    0    0 -0.15680287007E+02 -0.17319526906E+02  0.26769621936E+00  0.23364697176E+02  0.00000000000E+00 0.  1.
</event>
<event>
 7    1  0.2976321E-013  0.7246171E+02  0.7816164E-02  0.1226708E+00
        -11   -1    0    0    0    0  0.00000000000E+00  0.00000000000E+00  0.45593999997E+02  0.45594000000E+02  0.51100000000E-03 0.  1.
         11   -1    0    0    0    0 -0.00000000000E+00 -0.00000000000E+00 -0.45593999997E+02  0.45594000000E+02  0.51100000000E-03 0. -1.
    9900012    2    1    2    0    0  0.75531709228E+01  0.12175696792E+02  0.12057192346E+02  0.72461711776E+02  0.70000184307E+02 0.  0.
         12    1    1    2    0    0 -0.75531709228E+01 -0.12175696792E+02 -0.12057192346E+02  0.18726288224E+02  0.00000000000E+00 0. -1.
         11    1    3    3    0    0  0.56866836390E+01 -0.67105136168E+01  0.10083115447E+02  0.13380529930E+02  0.51100000000E-03 0. -1.
        -11    1    3    3    0    0  0.16124272812E+02 -0.12097385869E+02 -0.10545037669E+02  0.22749433801E+02  0.51100000000E-03 0.  1.
        -12    1    3    3    0    0 -0.14257785528E+02  0.30983596278E+02  0.12519114568E+02  0.36331748046E+02  0.00000000000E+00 0.  1.
</event>
<event>
 7    1  0.2976321E-013  0.7246158E+02  0.7816164E-02  0.1226708E+00
        -11   -1    0    0    0    0  0.00000000000E+00  0.00000000000E+00  0.45593999997E+02  0.45594000000E+02  0.51100000000E-03 0.  1.
         11   -1    0    0    0    0 -0.00000000000E+00 -0.00000000000E+00 -0.45593999997E+02  0.45594000000E+02  0.51100000000E-03 0. -1.
    9900012    2    1    2    0    0 -0.16885039507E+01 -0.16828312947E+02 -0.80396384378E+01  0.72461576197E+02  0.70000007690E+02 0.  0.
         12    1    1    2    0    0  0.16885039507E+01  0.16828312947E+02  0.80396384378E+01  0.18726423803E+02  0.00000000000E+00 0. -1.
         11    1    3    3    0    0  0.16147105585E+02 -0.27683426735E+01 -0.40392039536E+01  0.16873289803E+02  0.51100000000E-03 0. -1.
        -11    1    3    3    0    0 -0.49390168485E+00 -0.29298119934E+02  0.68312946192E+01  0.30088043422E+02  0.51100000000E-03 0.  1.
         12    1    3    3    0    0 -0.17341707851E+02  0.15238149661E+02 -0.10831729103E+02  0.25500242972E+02  0.00000000000E+00 0. -1.
</event>
<event>
 7    1  0.2976321E-013  0.7246158E+02  0.7816164E-02  0.1226708E+00
        -11   -1    0    0    0    0  0.00000000000E+00  0.00000000000E+00  0.45593999997E+02  0.45594000000E+02  0.51100000000E-03 0.  1.
         11   -1    0    0    0    0 -0.00000000000E+00 -0.00000000000E+00 -0.45593999997E+02  0.45594000000E+02  0.51100000000E-03 0. -1.
    9900012    2    1    2    0    0 -0.60317357236E+01  0.15610223116E+02  0.84034544139E+01  0.72461576218E+02  0.70000007717E+02 0.  0.
         12    1    1    2    0    0  0.60317357236E+01 -0.15610223116E+02 -0.84034544139E+01  0.18726423782E+02  0.00000000000E+00 0. -1.
         11    1    3    3    0    0 -0.13621106263E+02  0.85228710936E+01  0.26670234706E+01  0.16287629722E+02  0.51100000000E-03 0. -1.
        -11    1    3    3    0    0 -0.22384480782E+02  0.26642032671E+01 -0.65566036783E+01  0.23476626908E+02  0.51100000000E-03 0.  1.
         12    1    3    3    0    0  0.29973851322E+02  0.44231487555E+01  0.12293034622E+02  0.32697319587E+02  0.00000000000E+00 0. -1.
</event>
<event>
 7    1  0.2976321E-013  0.7246170E+02  0.7816164E-02  0.1226708E+00
        -11   -1    0    0    0    0  0.00000000000E+00  0.00000000000E+00  0.45593999997E+02  0.45594000000E+02  0.51100000000E-03 0.  1.
         11   -1    0    0    0    0 -0.00000000000E+00 -0.00000000000E+00 -0.45593999997E+02  0.45594000000E+02  0.51100000000E-03 0. -1.
    9900012    2    1    2    0    0  0.34986914842E+00  0.11367500406E+02  0.14877226015E+02  0.72461699569E+02  0.70000168404E+02 0.  0.
         12    1    1    2    0    0 -0.34986914842E+00 -0.11367500406E+02 -0.14877226015E+02  0.18726300431E+02  0.00000000000E+00 0. -1.
         11    1    3    3    0    0  0.33643948838E+01  0.33290970325E+01  0.31081421679E+01  0.56623835955E+01  0.51100000000E-03 0. -1.
        -11    1    3    3    0    0 -0.83262560488E+01  0.32695409464E+02  0.21227767514E+02  0.39861440687E+02  0.51100000000E-03 0.  1.
         12    1    3    3    0    0  0.53117303135E+01 -0.24657006090E+02 -0.94586836660E+01  0.26937875286E+02  0.00000000000E+00 0. -1.
</event>
<event>
 7    1  0.2976321E-013  0.7246157E+02  0.7816164E-02  0.1226708E+00
        -11   -1    0    0    0    0  0.00000000000E+00  0.00000000000E+00  0.45593999997E+02  0.45594000000E+02  0.51100000000E-03 0. -1.
         11   -1    0    0    0    0 -0.00000000000E+00 -0.00000000000E+00 -0.45593999997E+02  0.45594000000E+02  0.51100000000E-03 0.  1.
    9900012    2    1    2    0    0 -0.16353896515E+02 -0.14510323057E+01 -0.90068778781E+01  0.72461567476E+02  0.69999996328E+02 0.  0.
         12    1    1    2    0    0  0.16353896515E+02  0.14510323057E+01  0.90068778781E+01  0.18726432524E+02  0.00000000000E+00 0. -1.
         11    1    3    3    0    0  0.10070991318E+02  0.83721028726E+01 -0.49708821721E+01  0.14008092035E+02  0.51100000000E-03 0. -1.
        -11    1    3    3    0    0 -0.13421947147E+02 -0.10622752141E+02 -0.27048375125E+02  0.32009469309E+02  0.51100000000E-03 0.  1.
        -12    1    3    3    0    0 -0.13002940686E+02  0.79961696235E+00  0.23012379419E+02  0.26444006132E+02  0.00000000000E+00 0.  1.
</event>
<event>
 7    1  0.2976321E-013  0.7246152E+02  0.7816164E-02  0.1226708E+00
        -11   -1    0    0    0    0  0.00000000000E+00  0.00000000000E+00  0.45593999997E+02  0.45594000000E+02  0.51100000000E-03 0.  1.
         11   -1    0    0    0    0 -0.00000000000E+00 -0.00000000000E+00 -0.45593999997E+02  0.45594000000E+02  0.51100000000E-03 0. -1.
    9900012    2    1    2    0    0 -0.59968502753E+01  0.47144642174E+01  0.17102413507E+02  0.72461523187E+02  0.69999938634E+02 0.  0.
         12    1    1    2    0    0  0.59968502753E+01 -0.47144642174E+01 -0.17102413507E+02  0.18726476813E+02  0.00000000000E+00 0. -1.
         11    1    3    3    0    0  0.18385958866E+02 -0.17226668769E+02 -0.68447989274E+00  0.25204565326E+02  0.51100000000E-03 0. -1.
        -11    1    3    3    0    0  0.30703312843E+01  0.56449077126E+01 -0.49088443521E+01  0.80863261382E+01  0.51100000000E-03 0.  1.
        -12    1    3    3    0    0 -0.27453140426E+02  0.16296225274E+02  0.22695737752E+02  0.39170631722E+02  0.00000000000E+00 0.  1.
</event>
<event>
 7    1  0.2976321E-013  0.7246157E+02  0.7816164E-02  0.1226708E+00
        -11   -1    0    0    0    0  0.00000000000E+00  0.00000000000E+00  0.45593999997E+02  0.45594000000E+02  0.51100000000E-03 0. -1.
         11   -1    0    0    0    0 -0.00000000000E+00 -0.00000000000E+00 -0.45593999997E+02  0.45594000000E+02  0.51100000000E-03 0.  1.
    9900012    2    1    2    0    0  0.44086122098E+01 -0.17936967938E+02  0.30835703334E+01  0.72461572513E+02  0.70000002890E+02 0.  0.
         12    1    1    2    0    0 -0.44086122098E+01  0.17936967938E+02 -0.30835703334E+01  0.18726427487E+02  0.00000000000E+00 0. -1.
         11    1    3    3    0    0 -0.66784822864E+00 -0.12153355954E+02 -0.56053803279E+00  0.12184592129E+02  0.51100000000E-03 0. -1.
        -11    1    3    3    0    0 -0.11513219837E+02 -0.14616385856E+01 -0.24621036641E+02  0.27219222324E+02  0.51100000000E-03 0.  1.
        -12    1    3    3    0    0  0.16589680275E+02 -0.43219733987E+01  0.28265145007E+02  0.33057758060E+02  0.00000000000E+00 0.  1.
</event>
<event>
 7    1  0.2976321E-013  0.7246180E+02  0.7816164E-02  0.1226707E+00
        -11   -1    0    0    0    0  0.00000000000E+00  0.00000000000E+00  0.45593999997E+02  0.45594000000E+02  0.51100000000E-03 0.  1.
         11   -1    0    0    0    0 -0.00000000000E+00 -0.00000000000E+00 -0.45593999997E+02  0.45594000000E+02  0.51100000000E-03 0. -1.
    9900012    2    1    2    0    0  0.14248175627E+02 -0.82522643007E-02 -0.12151548582E+02  0.72461796174E+02  0.70000294250E+02 0.  0.
         12    1    1    2    0    0 -0.14248175627E+02  0.82522643007E-02  0.12151548582E+02  0.18726203826E+02  0.00000000000E+00 0. -1.
         11    1    3    3    0    0  0.26451545829E+02  0.13585430078E+02 -0.10212776869E+02  0.31441199067E+02  0.51100000000E-03 0. -1.
        -11    1    3    3    0    0 -0.23315489677E+01  0.33530797110E+01  0.14727493902E+02  0.15283269972E+02  0.51100000000E-03 0.  1.
         12    1    3    3    0    0 -0.98718212340E+01 -0.16946762053E+02 -0.16666265614E+02  0.25737327136E+02  0.00000000000E+00 0. -1.
</event>
<event>
 7    1  0.2976321E-013  0.7246154E+02  0.7816164E-02  0.1226708E+00
        -11   -1    0    0    0    0  0.00000000000E+00  0.00000000000E+00  0.45593999997E+02  0.45594000000E+02  0.51100000000E-03 0.  1.
         11   -1    0    0    0    0 -0.00000000000E+00 -0.00000000000E+00 -0.45593999997E+02  0.45594000000E+02  0.51100000000E-03 0. -1.
    9900012    2    1    2    0    0  0.95906433653E+01  0.91757435035E+01  0.13210051546E+02  0.72461543559E+02  0.69999965172E+02 0.  0.
         12    1    1    2    0    0 -0.95906433653E+01 -0.91757435035E+01 -0.13210051546E+02  0.18726456441E+02  0.00000000000E+00 0. -1.
         11    1    3    3    0    0 -0.13216694147E+02 -0.11272359599E+02 -0.35339654686E+01  0.17726703227E+02  0.51100000000E-03 0. -1.
        -11    1    3    3    0    0 -0.65733001528E+01  0.65973941144E+01 -0.92547755551E+01  0.13129537495E+02  0.51100000000E-03 0.  1.
        -12    1    3    3    0    0  0.29380637665E+02  0.13850708988E+02  0.25998792569E+02  0.41605302837E+02  0.00000000000E+00 0.  1.
</event>
<event>
 7    1  0.2976321E-013  0.7246155E+02  0.7816164E-02  0.1226708E+00
        -11   -1    0    0    0    0  0.00000000000E+00  0.00000000000E+00  0.45593999997E+02  0.45594000000E+02  0.51100000000E-03 0.  1.
         11   -1    0    0    0    0 -0.00000000000E+00 -0.00000000000E+00 -0.45593999997E+02  0.45594000000E+02  0.51100000000E-03 0. -1.
    9900012    2    1    2    0    0  0.66266715578E+01  0.14656499748E+02 -0.95892759813E+01  0.72461548797E+02  0.69999971996E+02 0.  0.
         12    1    1    2    0    0 -0.66266715578E+01 -0.14656499748E+02  0.95892759813E+01  0.18726451203E+02  0.00000000000E+00 0. -1.
         11    1    3    3    0    0  0.19003164348E+01 -0.68877027844E+00 -0.63552484675E+00  0.21188438217E+01  0.51100000000E-03 0. -1.
        -11    1    3    3    0    0  0.22659644776E+02  0.33795747184E+02 -0.15910019373E+02  0.43689137618E+02  0.51100000000E-03 0.  1.
         12    1    3    3    0    0 -0.17933289653E+02 -0.18450477157E+02  0.69562682382E+01  0.26653567358E+02  0.00000000000E+00 0. -1.
</event>
<event>
 7    1  0.2976321E-013  0.7246157E+02  0.7816164E-02  0.1226708E+00
        -11   -1    0    0    0    0  0.00000000000E+00  0.00000000000E+00  0.45593999997E+02  0.45594000000E+02  0.51100000000E-03 0.  1.
         11   -1    0    0    0    0 -0.00000000000E+00 -0.00000000000E+00 -0.45593999997E+02  0.45594000000E+02  0.51100000000E-03 0. -1.
    9900012    2    1    2    0    0  0.12697568955E+02  0.12619784314E+02  0.54947252217E+01  0.72461568979E+02  0.69999998287E+02 0.  0.
         12    1    1    2    0    0 -0.12697568955E+02 -0.12619784314E+02 -0.54947252217E+01  0.18726431021E+02  0.00000000000E+00 0. -1.
         11    1    3    3    0    0  0.67005165881E+01 -0.34348498920E+01  0.35343237583E+01  0.83178459361E+01  0.51100000000E-03 0. -1.
        -11    1    3    3    0    0 -0.21783413494E+02 -0.14788403538E+01  0.17329948935E+02  0.27875279417E+02  0.51100000000E-03 0.  1.
         12    1    3    3    0    0  0.27780465860E+02  0.17533474560E+02 -0.15369547472E+02  0.36268443626E+02  0.00000000000E+00 0. -1.
</event>
<event>
 7    1  0.2976321E-013  0.7246153E+02  0.7816164E-02  0.1226708E+00
        -11   -1    0    0    0    0  0.00000000000E+00  0.00000000000E+00  0.45593999997E+02  0.45594000000E+02  0.51100000000E-03 0. -1.
         11   -1    0    0    0    0 -0.00000000000E+00 -0.00000000000E+00 -0.45593999997E+02  0.45594000000E+02  0.51100000000E-03 0.  1.
    9900012    2    1    2    0    0  0.55706219540E+01  0.13007856530E+02 -0.12265582221E+02  0.72461530293E+02  0.69999947891E+02 0.  0.
         12    1    1    2    0    0 -0.55706219540E+01 -0.13007856530E+02  0.12265582221E+02  0.18726469707E+02  0.00000000000E+00 0. -1.
         11    1    3    3    0    0 -0.15508220560E+02  0.31620659620E+01 -0.17694761519E+02  0.23740432843E+02  0.51100000000E-03 0. -1.
        -11    1    3    3    0    0  0.10115086769E+01 -0.98164996308E+01 -0.12094263965E+02  0.15609549511E+02  0.51100000000E-03 0.  1.
         12    1    3    3    0    0  0.20067333837E+02  0.19662290199E+02  0.17523443262E+02  0.33111547940E+02  0.00000000000E+00 0. -1.
</event>
<event>
 7    1  0.2976321E-013  0.7246162E+02  0.7816164E-02  0.1226708E+00
        -11   -1    0    0    0    0  0.00000000000E+00  0.00000000000E+00  0.45593999997E+02  0.45594000000E+02  0.51100000000E-03 0. -1.
         11   -1    0    0    0    0 -0.00000000000E+00 -0.00000000000E+00 -0.45593999997E+02  0.45594000000E+02  0.51100000000E-03 0.  1.
    9900012    2    1    2    0    0 -0.47287555659E+01 -0.16988122543E+02  0.63023558587E+01  0.72461624854E+02  0.70000071074E+02 0.  0.
         12    1    1    2    0    0  0.47287555659E+01  0.16988122543E+02 -0.63023558587E+01  0.18726375146E+02  0.00000000000E+00 0. -1.
         11    1    3    3    0    0  0.46920945710E+01 -0.11103143307E+02  0.11214744256E+02  0.16464083083E+02  0.51100000000E-03 0. -1.
        -11    1    3    3    0    0  0.10656070981E+02  0.15411360170E+02  0.11946554623E+02  0.22221206958E+02  0.51100000000E-03 0.  1.
        -12    1    3    3    0    0 -0.20076921118E+02 -0.21296339406E+02 -0.16858943021E+02  0.33776334813E+02  0.00000000000E+00 0.  1.
</event>
<event>
 7    1  0.2976321E-013  0.7246154E+02  0.7816164E-02  0.1226708E+00
        -11   -1    0    0    0    0  0.00000000000E+00  0.00000000000E+00  0.45593999997E+02  0.45594000000E+02  0.51100000000E-03 0. -1.
         11   -1    0    0    0    0 -0.00000000000E+00 -0.00000000000E+00 -0.45593999997E+02  0.45594000000E+02  0.51100000000E-03 0.  1.
    9900012    2    1    2    0    0  0.66636071901E+01  0.16968594051E+02 -0.42829453957E+01  0.72461535675E+02  0.69999954902E+02 0.  0.
         12    1    1    2    0    0 -0.66636071901E+01 -0.16968594051E+02  0.42829453957E+01  0.18726464325E+02  0.00000000000E+00 0. -1.
         11    1    3    3    0    0 -0.75377866610E+01  0.25621824439E+02 -0.44504479439E+01  0.27075867530E+02  0.51100000000E-03 0. -1.
        -11    1    3    3    0    0 -0.27026555000E+01  0.84473900235E+01  0.14788377285E+02  0.17244096032E+02  0.51100000000E-03 0.  1.
        -12    1    3    3    0    0  0.16904049351E+02 -0.17100620412E+02 -0.14620874737E+02  0.28141572113E+02  0.00000000000E+00 0.  1.
</event>
<event>
 7    1  0.2976321E-013  0.7246156E+02  0.7816164E-02  0.1226708E+00
        -11   -1    0    0    0    0  0.00000000000E+00  0.00000000000E+00  0.45593999997E+02  0.45594000000E+02  0.51100000000E-03 0. -1.
         11   -1    0    0    0    0 -0.00000000000E+00 -0.00000000000E+00 -0.45593999997E+02  0.45594000000E+02  0.51100000000E-03 0.  1.
    9900012    2    1    2    0    0 -0.13957374748E+02 -0.12453696258E+02  0.88130920896E+00  0.72461559701E+02  0.69999986200E+02 0.  0.
         12    1    1    2    0    0  0.13957374748E+02  0.12453696258E+02 -0.88130920896E+00  0.18726440299E+02  0.00000000000E+00 0. -1.
         11    1    3    3    0    0 -0.12178396611E+01  0.16768330509E+01  0.30112290032E+02  0.30183520566E+02  0.51100000000E-03 0. -1.
        -11    1    3    3    0    0 -0.29309382170E+01 -0.71406272765E+01  0.26791685022E+01  0.81704896339E+01  0.51100000000E-03 0.  1.
        -12    1    3    3    0    0 -0.98085968701E+01 -0.69899020323E+01 -0.31910149326E+02  0.34107549501E+02  0.00000000000E+00 0.  1.
</event>
<event>
 7    1  0.2976321E-013  0.7246151E+02  0.7816164E-02  0.1226708E+00
        -11   -1    0    0    0    0  0.00000000000E+00  0.00000000000E+00  0.45593999997E+02  0.45594000000E+02  0.51100000000E-03 0.  1.
         11   -1    0    0    0    0 -0.00000000000E+00 -0.00000000000E+00 -0.45593999997E+02  0.45594000000E+02  0.51100000000E-03 0. -1.
    9900012    2    1    2    0    0 -0.13780403032E+02  0.66095421841E+01  0.10821079749E+02  0.72461512808E+02  0.69999925114E+02 0.  0.
         12    1    1    2    0    0  0.13780403032E+02 -0.66095421841E+01 -0.10821079749E+02  0.18726487192E+02  0.00000000000E+00 0. -1.
         11    1    3    3    0    0  0.38560651830E+01  0.14567811068E+01 -0.76415226116E+01  0.86824142940E+01  0.51100000000E-03 0. -1.
        -11    1    3    3    0    0 -0.32039551858E+02 -0.13973346064E+02  0.25837974393E+01  0.35049440694E+02  0.51100000000E-03 0.  1.
         12    1    3    3    0    0  0.14403083643E+02  0.19126107141E+02  0.15878804921E+02  0.28729657821E+02  0.00000000000E+00 0. -1.
</event>
<event>
 7    1  0.2976321E-013  0.7246154E+02  0.7816164E-02  0.1226708E+00
        -11   -1    0    0    0    0  0.00000000000E+00  0.00000000000E+00  0.45593999997E+02  0.45594000000E+02  0.51100000000E-03 0.  1.
         11   -1    0    0    0    0 -0.00000000000E+00 -0.00000000000E+00 -0.45593999997E+02  0.45594000000E+02  0.51100000000E-03 0. -1.
    9900012    2    1    2    0    0 -0.17368879805E+02 -0.66186531178E+01  0.22794363795E+01  0.72461537841E+02  0.69999957723E+02 0.  0.
         12    1    1    2    0    0  0.17368879805E+02  0.66186531178E+01 -0.22794363795E+01  0.18726462159E+02  0.00000000000E+00 0. -1.
         11    1    3    3    0    0 -0.26332031251E+02  0.19213206775E+01 -0.53208626906E+01  0.26932859540E+02  0.51100000000E-03 0. -1.
        -11    1    3    3    0    0 -0.15845705574E+02 -0.11904875758E+02  0.24750372212E+01  0.19973438899E+02  0.51100000000E-03 0.  1.
         12    1    3    3    0    0  0.24808857020E+02  0.33649019626E+01  0.51252618489E+01  0.25555239402E+02  0.00000000000E+00 0. -1.
</event>
<event>
 7    1  0.2976321E-013  0.7246154E+02  0.7816164E-02  0.1226708E+00
        -11   -1    0    0    0    0  0.00000000000E+00  0.00000000000E+00  0.45593999997E+02  0.45594000000E+02  0.51100000000E-03 0.  1.
         11   -1    0    0    0    0 -0.00000000000E+00 -0.00000000000E+00 -0.45593999997E+02  0.45594000000E+02  0.51100000000E-03 0. -1.
    9900012    2    1    2    0    0 -0.72006893248E+00 -0.17904862405E+02  0.54385426494E+01  0.72461538958E+02  0.69999959179E+02 0.  0.
         12    1    1    2    0    0  0.72006893248E+00  0.17904862405E+02 -0.54385426494E+01  0.18726461042E+02  0.00000000000E+00 0. -1.
         11    1    3    3    0    0  0.30309798807E+01 -0.21700521947E+01 -0.22411925952E+01  0.43495873454E+01  0.51100000000E-03 0. -1.
        -11    1    3    3    0    0 -0.32254421482E+02 -0.86203047142E+01 -0.86660460314E+01  0.34492864662E+02  0.51100000000E-03 0.  1.
         12    1    3    3    0    0  0.28503372669E+02 -0.71145054956E+01  0.16345781276E+02  0.33619086951E+02  0.00000000000E+00 0. -1.
</event>
<event>
 7    1  0.2976321E-013  0.7246156E+02  0.7816164E-02  0.1226708E+00
        -11   -1    0    0    0    0  0.00000000000E+00  0.00000000000E+00  0.45593999997E+02  0.45594000000E+02  0.51100000000E-03 0.  1.
         11   -1    0    0    0    0 -0.00000000000E+00 -0.00000000000E+00 -0.45593999997E+02  0.45594000000E+02  0.51100000000E-03 0. -1.
    9900012    2    1    2    0    0  0.13033021076E+02  0.12500667303E+02  0.49551193447E+01  0.72461560693E+02  0.69999987493E+02 0.  0.
         12    1    1    2    0    0 -0.13033021076E+02 -0.12500667303E+02 -0.49551193447E+01  0.18726439307E+02  0.00000000000E+00 0. -1.
         11    1    3    3    0    0 -0.14244983818E+02  0.23693350340E+02 -0.14914708953E+02  0.31412465006E+02  0.51100000000E-03 0. -1.
        -11    1    3    3    0    0  0.35346138480E+01  0.12624125164E+01 -0.37583970545E+01  0.53115655975E+01  0.51100000000E-03 0.  1.
        -12    1    3    3    0    0  0.23743391046E+02 -0.12455095554E+02  0.23628225353E+02  0.35737530090E+02  0.00000000000E+00 0.  1.
</event>
<event>
 7    1  0.2976321E-013  0.7246158E+02  0.7816164E-02  0.1226708E+00
        -11   -1    0    0    0    0  0.00000000000E+00  0.00000000000E+00  0.45593999997E+02  0.45594000000E+02  0.51100000000E-03 0. -1.
         11   -1    0    0    0    0 -0.00000000000E+00 -0.00000000000E+00 -0.45593999997E+02  0.45594000000E+02  0.51100000000E-03 0.  1.
    9900012    2    1    2    0    0 -0.17186556066E+02  0.35213877531E+01 -0.65498898471E+01  0.72461576473E+02  0.70000008049E+02 0.  0.
         12    1    1    2    0    0  0.17186556066E+02 -0.35213877531E+01  0.65498898471E+01  0.18726423527E+02  0.00000000000E+00 0. -1.
         11    1    3    3    0    0 -0.75487882818E+00  0.34351119926E+01  0.22611199753E+02  0.22883098369E+02  0.51100000000E-03 0. -1.
        -11    1    3    3    0    0  0.19196624064E+01 -0.99563464220E+01  0.35558958600E+01  0.10745153952E+02  0.51100000000E-03 0.  1.
        -12    1    3    3    0    0 -0.18351339644E+02  0.10042622183E+02 -0.32716985460E+02  0.38833324151E+02  0.00000000000E+00 0.  1.
</event>
<event>
 7    1  0.2976321E-013  0.7246161E+02  0.7816164E-02  0.1226708E+00
        -11   -1    0    0    0    0  0.00000000000E+00  0.00000000000E+00  0.45593999997E+02  0.45594000000E+02  0.51100000000E-03 0.  1.
         11   -1    0    0    0    0 -0.00000000000E+00 -0.00000000000E+00 -0.45593999997E+02  0.45594000000E+02  0.51100000000E-03 0. -1.
    9900012    2    1    2    0    0  0.14575068167E+02 -0.40862052711E+01  0.11024878600E+02  0.72461611300E+02  0.70000053418E+02 0.  0.
         12    1    1    2    0    0 -0.14575068167E+02  0.40862052711E+01 -0.11024878600E+02  0.18726388700E+02  0.00000000000E+00 0. -1.
         11    1    3    3    0    0 -0.24962768612E+01 -0.82905252309E-01  0.21663349576E+01  0.33062484569E+01  0.51100000000E-03 0. -1.
        -11    1    3    3    0    0  0.41304750783E+01 -0.23943351339E+02  0.29116902426E+02  0.37922801912E+02  0.51100000000E-03 0.  1.
         12    1    3    3    0    0  0.12940869950E+02  0.19940051320E+02 -0.20258358784E+02  0.31232560931E+02  0.00000000000E+00 0. -1.
</event>
<event>
 7    1  0.2976321E-013  0.7246158E+02  0.7816164E-02  0.1226708E+00
        -11   -1    0    0    0    0  0.00000000000E+00  0.00000000000E+00  0.45593999997E+02  0.45594000000E+02  0.51100000000E-03 0.  1.
         11   -1    0    0    0    0 -0.00000000000E+00 -0.00000000000E+00 -0.45593999997E+02  0.45594000000E+02  0.51100000000E-03 0. -1.
    9900012    2    1    2    0    0  0.14802322896E+01 -0.14045664802E+02  0.12296629556E+02  0.72461577869E+02  0.70000009868E+02 0.  0.
         12    1    1    2    0    0 -0.14802322896E+01  0.14045664802E+02 -0.12296629556E+02  0.18726422131E+02  0.00000000000E+00 0. -1.
         11    1    3    3    0    0  0.81631206088E+01  0.18285944537E+02  0.10546285341E+02  0.22632641039E+02  0.51100000000E-03 0. -1.
        -11    1    3    3    0    0  0.91575680840E+01  0.15634248562E+01  0.75463677760E+01  0.11968835255E+02  0.51100000000E-03 0.  1.
        -12    1    3    3    0    0 -0.15840456403E+02 -0.33895034195E+02 -0.57960235600E+01  0.37860101575E+02  0.00000000000E+00 0.  1.
</event>
<event>
 7    1  0.2976321E-013  0.7246157E+02  0.7816164E-02  0.1226708E+00
        -11   -1    0    0    0    0  0.00000000000E+00  0.00000000000E+00  0.45593999997E+02  0.45594000000E+02  0.51100000000E-03 0. -1.
         11   -1    0    0    0    0 -0.00000000000E+00 -0.00000000000E+00 -0.45593999997E+02  0.45594000000E+02  0.51100000000E-03 0.  1.
    9900012    2    1    2    0    0 -0.17831950907E+02  0.11755171946E+01 -0.55963257174E+01  0.72461570139E+02  0.69999999797E+02 0.  0.
         12    1    1    2    0    0  0.17831950907E+02 -0.11755171946E+01  0.55963257174E+01  0.18726429861E+02  0.00000000000E+00 0. -1.
         11    1    3    3    0    0  0.47663718622E+01 -0.59090608289E+01 -0.18472781314E+02  0.19971954094E+02  0.51100000000E-03 0. -1.
        -11    1    3    3    0    0 -0.58723845408E+01 -0.17426873758E+02  0.13493048365E+02  0.22808840032E+02  0.51100000000E-03 0.  1.
        -12    1    3    3    0    0 -0.16725938228E+02  0.24511451781E+02 -0.61659276888E+00  0.29680776012E+02  0.00000000000E+00 0.  1.
</event>
<event>
 7    1  0.2976321E-013  0.7246142E+02  0.7816164E-02  0.1226708E+00
        -11   -1    0    0    0    0  0.00000000000E+00  0.00000000000E+00  0.45593999997E+02  0.45594000000E+02  0.51100000000E-03 0.  1.
         11   -1    0    0    0    0 -0.00000000000E+00 -0.00000000000E+00 -0.45593999997E+02  0.45594000000E+02  0.51100000000E-03 0. -1.
    9900012    2    1    2    0    0  0.84065735530E+01  0.12561631164E+02  0.11055310955E+02  0.72461415775E+02  0.69999798710E+02 0.  0.
         12    1    1    2    0    0 -0.84065735530E+01 -0.12561631164E+02 -0.11055310955E+02  0.18726584225E+02  0.00000000000E+00 0. -1.
         11    1    3    3    0    0 -0.77408760631E+01  0.31413903986E+02  0.19516174013E+01  0.32412394799E+02  0.51100000000E-03 0. -1.
        -11    1    3    3    0    0  0.11125299466E+02  0.60249304599E+01 -0.10909788559E+01  0.12698909811E+02  0.51100000000E-03 0.  1.
        -12    1    3    3    0    0  0.50221501497E+01 -0.24877203281E+02  0.10194672409E+02  0.27350111165E+02  0.00000000000E+00 0.  1.
</event>
<event>
 7    1  0.2976321E-013  0.7246157E+02  0.7816164E-02  0.1226708E+00
        -11   -1    0    0    0    0  0.00000000000E+00  0.00000000000E+00  0.45593999997E+02  0.45594000000E+02  0.51100000000E-03 0.  1.
         11   -1    0    0    0    0 -0.00000000000E+00 -0.00000000000E+00 -0.45593999997E+02  0.45594000000E+02  0.51100000000E-03 0. -1.
    9900012    2    1    2    0    0 -0.11584849484E+02  0.57691535334E+01  0.13534672677E+02  0.72461568559E+02  0.69999997739E+02 0.  0.
         12    1    1    2    0    0  0.11584849484E+02 -0.57691535334E+01 -0.13534672677E+02  0.18726431441E+02  0.00000000000E+00 0. -1.
         11    1    3    3    0    0 -0.28698682287E+01 -0.10134912873E+02  0.47442731645E+01  0.11552520535E+02  0.51100000000E-03 0. -1.
        -11    1    3    3    0    0 -0.12833095056E+02  0.13594742146E+02  0.32088544240E+02  0.37137312968E+02  0.51100000000E-03 0.  1.
         12    1    3    3    0    0  0.41181138012E+01  0.23093242604E+01 -0.23298144728E+02  0.23771735056E+02  0.00000000000E+00 0. -1.
</event>
<event>
 7    1  0.2976321E-013  0.7246156E+02  0.7816164E-02  0.1226708E+00
        -11   -1    0    0    0    0  0.00000000000E+00  0.00000000000E+00  0.45593999997E+02  0.45594000000E+02  0.51100000000E-03 0. -1.
         11   -1    0    0    0    0 -0.00000000000E+00 -0.00000000000E+00 -0.45593999997E+02  0.45594000000E+02  0.51100000000E-03 0.  1.
    9900012    2    1    2    0    0  0.21731482959E+01 -0.18523921651E+02  0.16796531284E+01  0.72461561965E+02  0.69999989150E+02 0.  0.
         12    1    1    2    0    0 -0.21731482959E+01  0.18523921651E+02 -0.16796531284E+01  0.18726438035E+02  0.00000000000E+00 0. -1.
         11    1    3    3    0    0 -0.11580370623E+02 -0.28593836742E+02  0.51581289248E+01  0.31278087820E+02  0.51100000000E-03 0. -1.
        -11    1    3    3    0    0  0.10349312148E+02 -0.81078595147E+01 -0.14565144042E+02  0.19621138323E+02  0.51100000000E-03 0.  1.
         12    1    3    3    0    0  0.34042067714E+01  0.18177774606E+02  0.11086668246E+02  0.21562335823E+02  0.00000000000E+00 0. -1.
</event>
<event>
 7    1  0.2976321E-013  0.7246154E+02  0.7816164E-02  0.1226708E+00
        -11   -1    0    0    0    0  0.00000000000E+00  0.00000000000E+00  0.45593999997E+02  0.45594000000E+02  0.51100000000E-03 0.  1.
         11   -1    0    0    0    0 -0.00000000000E+00 -0.00000000000E+00 -0.45593999997E+02  0.45594000000E+02  0.51100000000E-03 0. -1.
    9900012    2    1    2    0    0 -0.16440537046E+02 -0.52163445167E+01  0.72923695054E+01  0.72461543809E+02  0.69999965498E+02 0.  0.
         12    1    1    2    0    0  0.16440537046E+02  0.52163445167E+01 -0.72923695054E+01  0.18726456191E+02  0.00000000000E+00 0. -1.
         11    1    3    3    0    0 -0.11702675619E+02  0.33675335053E+01  0.14683341456E+02  0.19075990541E+02  0.51100000000E-03 0. -1.
        -11    1    3    3    0    0  0.33585971542E+01  0.14412373113E+02  0.14427936101E+02  0.20667898151E+02  0.51100000000E-03 0.  1.
         12    1    3    3    0    0 -0.80964585806E+01 -0.22996251135E+02 -0.21818908051E+02  0.32717655117E+02  0.00000000000E+00 0. -1.
</event>
<event>
 7    1  0.2976321E-013  0.7246159E+02  0.7816164E-02  0.1226708E+00
        -11   -1    0    0    0    0  0.00000000000E+00  0.00000000000E+00  0.45593999997E+02  0.45594000000E+02  0.51100000000E-03 0.  1.
         11   -1    0    0    0    0 -0.00000000000E+00 -0.00000000000E+00 -0.45593999997E+02  0.45594000000E+02  0.51100000000E-03 0. -1.
    9900012    2    1    2    0    0 -0.98218459550E+01  0.32175499442E+01  0.15615928059E+02  0.72461588310E+02  0.70000023469E+02 0.  0.
         12    1    1    2    0    0  0.98218459550E+01 -0.32175499442E+01 -0.15615928059E+02  0.18726411690E+02  0.00000000000E+00 0. -1.
         11    1    3    3    0    0  0.35055065619E+01 -0.43228844308E+01 -0.11918019200E+02  0.13153519984E+02  0.51100000000E-03 0. -1.
        -11    1    3    3    0    0 -0.34534800935E+01  0.10094839483E+02 -0.13396570135E+02  0.17126015315E+02  0.51100000000E-03 0.  1.
        -12    1    3    3    0    0 -0.98738724234E+01 -0.25544051076E+01  0.40930517394E+02  0.42182053011E+02  0.00000000000E+00 0.  1.
</event>
<event>
 7    1  0.2976321E-013  0.7246156E+02  0.7816164E-02  0.1226708E+00
        -11   -1    0    0    0    0  0.00000000000E+00  0.00000000000E+00  0.45593999997E+02  0.45594000000E+02  0.51100000000E-03 0.  1.
         11   -1    0    0    0    0 -0.00000000000E+00 -0.00000000000E+00 -0.45593999997E+02  0.45594000000E+02  0.51100000000E-03 0. -1.
    9900012    2    1    2    0    0  0.13267897519E+02 -0.84771409800E+00  0.13188023462E+02  0.72461556488E+02  0.69999982015E+02 0.  0.
         12    1    1    2    0    0 -0.13267897519E+02  0.84771409800E+00 -0.13188023462E+02  0.18726443512E+02  0.00000000000E+00 0. -1.
         11    1    3    3    0    0  0.40874516584E+01 -0.17916521627E+02  0.65904407733E+01  0.19522881912E+02  0.51100000000E-03 0. -1.
        -11    1    3    3    0    0  0.26516039929E+02  0.14542393600E+01  0.11760040947E+02  0.29043308162E+02  0.51100000000E-03 0.  1.
         12    1    3    3    0    0 -0.17335594068E+02  0.15614568169E+02 -0.51624582588E+01  0.23895366415E+02  0.00000000000E+00 0. -1.
</event>
<event>
 7    1  0.2976321E-013  0.7246156E+02  0.7816164E-02  0.1226708E+00
        -11   -1    0    0    0    0  0.00000000000E+00  0.00000000000E+00  0.45593999997E+02  0.45594000000E+02  0.51100000000E-03 0.  1.
         11   -1    0    0    0    0 -0.00000000000E+00 -0.00000000000E+00 -0.45593999997E+02  0.45594000000E+02  0.51100000000E-03 0. -1.
    9900012    2    1    2    0    0 -0.27468241038E+01  0.17395479580E+02  0.63664461225E+01  0.72461564442E+02  0.69999992377E+02 0.  0.
         12    1    1    2    0    0  0.27468241038E+01 -0.17395479580E+02 -0.63664461225E+01  0.18726435558E+02  0.00000000000E+00 0. -1.
         11    1    3    3    0    0  0.39779891927E+01  0.32385317587E+02  0.18032885551E+02  0.37280264950E+02  0.51100000000E-03 0. -1.
        -11    1    3    3    0    0  0.11801471684E+01 -0.45008958961E+01  0.93238845682E+01  0.10420443124E+02  0.51100000000E-03 0.  1.
         12    1    3    3    0    0 -0.79049604650E+01 -0.10488942111E+02 -0.20990323997E+02  0.24760856367E+02  0.00000000000E+00 0. -1.
</event>
<event>
 7    1  0.2976321E-013  0.7246147E+02  0.7816164E-02  0.1226708E+00
        -11   -1    0    0    0    0  0.00000000000E+00  0.00000000000E+00  0.45593999997E+02  0.45594000000E+02  0.51100000000E-03 0.  1.
         11   -1    0    0    0    0 -0.00000000000E+00 -0.00000000000E+00 -0.45593999997E+02  0.45594000000E+02  0.51100000000E-03 0. -1.
    9900012    2    1    2    0    0  0.66487682937E+01 -0.91452396239E+01  0.14927875365E+02  0.72461468273E+02  0.69999867098E+02 0.  0.
         12    1    1    2    0    0 -0.66487682937E+01  0.91452396239E+01 -0.14927875365E+02  0.18726531727E+02  0.00000000000E+00 0. -1.
         11    1    3    3    0    0  0.62520088818E+01  0.14943668136E+02  0.13623383612E+02  0.21165949393E+02  0.51100000000E-03 0. -1.
        -11    1    3    3    0    0 -0.46464836812E+01  0.47061175002E+01 -0.16008042301E+02  0.17320357129E+02  0.51100000000E-03 0.  1.
        -12    1    3    3    0    0  0.50432430930E+01 -0.28795025260E+02  0.17312534054E+02  0.33975161750E+02  0.00000000000E+00 0.  1.
</event>
<event>
 7    1  0.2976321E-013  0.7246113E+02  0.7816164E-02  0.1226709E+00
        -11   -1    0    0    0    0  0.00000000000E+00  0.00000000000E+00  0.45593999997E+02  0.45594000000E+02  0.51100000000E-03 0.  1.
         11   -1    0    0    0    0 -0.00000000000E+00 -0.00000000000E+00 -0.45593999997E+02  0.45594000000E+02  0.51100000000E-03 0. -1.
    9900012    2    1    2    0    0  0.30319414082E+00 -0.18029971917E+02  0.50521305289E+01  0.72461125277E+02  0.69999420279E+02 0.  0.
         12    1    1    2    0    0 -0.30319414082E+00  0.18029971917E+02 -0.50521305289E+01  0.18726874723E+02  0.00000000000E+00 0. -1.
         11    1    3    3    0    0 -0.13297139681E+02 -0.26532812997E+02 -0.40656417185E+01  0.29955525902E+02  0.51100000000E-03 0. -1.
        -11    1    3    3    0    0 -0.11650071987E+02 -0.49942803125E+01  0.47835104396E+01  0.13548025153E+02  0.51100000000E-03 0.  1.
        -12    1    3    3    0    0  0.25250405809E+02  0.13497121392E+02  0.43342618078E+01  0.28957574222E+02  0.00000000000E+00 0.  1.
</event>
<event>
 7    1  0.2976321E-013  0.7246161E+02  0.7816164E-02  0.1226708E+00
        -11   -1    0    0    0    0  0.00000000000E+00  0.00000000000E+00  0.45593999997E+02  0.45594000000E+02  0.51100000000E-03 0.  1.
         11   -1    0    0    0    0 -0.00000000000E+00 -0.00000000000E+00 -0.45593999997E+02  0.45594000000E+02  0.51100000000E-03 0. -1.
    9900012    2    1    2    0    0 -0.14976085781E+01  0.61237375751E+01  0.17633340889E+02  0.72461609417E+02  0.70000050965E+02 0.  0.
         12    1    1    2    0    0  0.14976085781E+01 -0.61237375751E+01 -0.17633340889E+02  0.18726390583E+02  0.00000000000E+00 0. -1.
         11    1    3    3    0    0  0.54452232747E+01 -0.73877361240E+01 -0.64070041784E+01  0.11192801452E+02  0.51100000000E-03 0. -1.
        -11    1    3    3    0    0  0.64855256539E+01 -0.78452270566E+01  0.32971531609E+02  0.34506977954E+02  0.51100000000E-03 0.  1.
         12    1    3    3    0    0 -0.13428357507E+02  0.21356700756E+02 -0.89311865421E+01  0.26761830011E+02  0.00000000000E+00 0. -1.
</event>
<event>
 7    1  0.2976321E-013  0.7246159E+02  0.7816164E-02  0.1226708E+00
        -11   -1    0    0    0    0  0.00000000000E+00  0.00000000000E+00  0.45593999997E+02  0.45594000000E+02  0.51100000000E-03 0.  1.
         11   -1    0    0    0    0 -0.00000000000E+00 -0.00000000000E+00 -0.45593999997E+02  0.45594000000E+02  0.51100000000E-03 0. -1.
    9900012    2    1    2    0    0 -0.10023109731E+02 -0.19457616544E+01  0.15698080116E+02  0.72461589868E+02  0.70000025498E+02 0.  0.
         12    1    1    2    0    0  0.10023109731E+02  0.19457616544E+01 -0.15698080116E+02  0.18726410132E+02  0.00000000000E+00 0. -1.
         11    1    3    3    0    0  0.11236692126E+02 -0.43598876100E+01 -0.98928109537E+01  0.15592933615E+02  0.51100000000E-03 0. -1.
        -11    1    3    3    0    0  0.77203926040E+01  0.16029161866E+02  0.39574107005E+01  0.18226343347E+02  0.51100000000E-03 0.  1.
         12    1    3    3    0    0 -0.28980194461E+02 -0.13615035911E+02  0.21633480369E+02  0.38642312906E+02  0.00000000000E+00 0. -1.
</event>
<event>
 7    1  0.2976321E-013  0.7246155E+02  0.7816164E-02  0.1226708E+00
        -11   -1    0    0    0    0  0.00000000000E+00  0.00000000000E+00  0.45593999997E+02  0.45594000000E+02  0.51100000000E-03 0. -1.
         11   -1    0    0    0    0 -0.00000000000E+00 -0.00000000000E+00 -0.45593999997E+02  0.45594000000E+02  0.51100000000E-03 0.  1.
    9900012    2    1    2    0    0  0.65850069989E+01 -0.32878291243E+00 -0.17527388380E+02  0.72461554560E+02  0.69999979503E+02 0.  0.
         12    1    1    2    0    0 -0.65850069989E+01  0.32878291243E+00  0.17527388380E+02  0.18726445440E+02  0.00000000000E+00 0. -1.
         11    1    3    3    0    0 -0.65091428419E+01  0.24698359755E+01  0.29152847564E+01  0.75477093051E+01  0.51100000000E-03 0. -1.
        -11    1    3    3    0    0  0.14026533313E+02  0.13702605872E+02 -0.36776133166E+02  0.41677200186E+02  0.51100000000E-03 0.  1.
         12    1    3    3    0    0 -0.93238347262E+00 -0.16501224760E+02  0.16333460029E+02  0.23236645069E+02  0.00000000000E+00 0. -1.
</event>
<event>
 7    1  0.2976321E-013  0.7246157E+02  0.7816164E-02  0.1226708E+00
        -11   -1    0    0    0    0  0.00000000000E+00  0.00000000000E+00  0.45593999997E+02  0.45594000000E+02  0.51100000000E-03 0.  1.
         11   -1    0    0    0    0 -0.00000000000E+00 -0.00000000000E+00 -0.45593999997E+02  0.45594000000E+02  0.51100000000E-03 0. -1.
    9900012    2    1    2    0    0  0.12372170103E+02  0.14047594950E+02  0.52310111525E+00  0.72461570770E+02  0.70000000620E+02 0.  0.
         12    1    1    2    0    0 -0.12372170103E+02 -0.14047594950E+02 -0.52310111525E+00  0.18726429230E+02  0.00000000000E+00 0. -1.
         11    1    3    3    0    0 -0.15797658611E+02  0.66379304608E+01 -0.21516820811E+02  0.27506394102E+02  0.51100000000E-03 0. -1.
        -11    1    3    3    0    0  0.26777647087E+01  0.92891387298E+01 -0.19923883886E+01  0.98705690782E+01  0.51100000000E-03 0.  1.
        -12    1    3    3    0    0  0.25492064005E+02 -0.18794742408E+01  0.24032310315E+02  0.35084607590E+02  0.00000000000E+00 0.  1.
</event>
<event>
 7    1  0.2991167E-013  0.7246156E+02  0.7816164E-02  0.1226708E+00
        -11   -1    0    0    0    0  0.00000000000E+00  0.00000000000E+00  0.45593999997E+02  0.45594000000E+02  0.51100000000E-03 0.  1.
         11   -1    0    0    0    0 -0.00000000000E+00 -0.00000000000E+00 -0.45593999997E+02  0.45594000000E+02  0.51100000000E-03 0. -1.
    9900012    2    1    2    0    0 -0.53998085929E+01  0.14033912087E+02 -0.11161139624E+02  0.72461557225E+02  0.69999982975E+02 0.  0.
         12    1    1    2    0    0  0.53998085929E+01 -0.14033912087E+02  0.11161139624E+02  0.18726442775E+02  0.00000000000E+00 0. -1.
         11    1    3    3    0    0  0.75402213435E+01  0.34253922819E+02 -0.61122683866E+01  0.35602612144E+02  0.51100000000E-03 0. -1.
        -11    1    3    3    0    0  0.73476934716E+01 -0.13040178481E+02 -0.27149831408E+01  0.15212034311E+02  0.51100000000E-03 0.  1.
        -12    1    3    3    0    0 -0.20287723408E+02 -0.71798322506E+01 -0.23338880961E+01  0.21646910770E+02  0.00000000000E+00 0.  1.
</event>
<event>
 7    1  0.2976321E-013  0.7246159E+02  0.7816164E-02  0.1226708E+00
        -11   -1    0    0    0    0  0.00000000000E+00  0.00000000000E+00  0.45593999997E+02  0.45594000000E+02  0.51100000000E-03 0. -1.
         11   -1    0    0    0    0 -0.00000000000E+00 -0.00000000000E+00 -0.45593999997E+02  0.45594000000E+02  0.51100000000E-03 0.  1.
    9900012    2    1    2    0    0 -0.14360509360E+02  0.64934286197E+01 -0.10113838057E+02  0.72461586447E+02  0.70000021041E+02 0.  0.
         12    1    1    2    0    0  0.14360509360E+02 -0.64934286197E+01  0.10113838057E+02  0.18726413553E+02  0.00000000000E+00 0. -1.
         11    1    3    3    0    0  0.71898661974E+01  0.55092564205E+01  0.68535847360E+01  0.11358596138E+02  0.51100000000E-03 0. -1.
        -11    1    3    3    0    0  0.33796804704E+01 -0.51741533520E+01  0.17248699204E+02  0.18322437815E+02  0.51100000000E-03 0.  1.
        -12    1    3    3    0    0 -0.24930056028E+02  0.61583255512E+01 -0.34216121997E+02  0.42780552494E+02  0.00000000000E+00 0.  1.
</event>
<event>
 7    1  0.2976321E-013  0.7246157E+02  0.7816164E-02  0.1226708E+00
        -11   -1    0    0    0    0  0.00000000000E+00  0.00000000000E+00  0.45593999997E+02  0.45594000000E+02  0.51100000000E-03 0.  1.
         11   -1    0    0    0    0 -0.00000000000E+00 -0.00000000000E+00 -0.45593999997E+02  0.45594000000E+02  0.51100000000E-03 0. -1.
    9900012    2    1    2    0    0 -0.89511901695E+01  0.62443432295E+01 -0.15217214215E+02  0.72461568512E+02  0.69999997678E+02 0.  0.
         12    1    1    2    0    0  0.89511901695E+01 -0.62443432295E+01  0.15217214215E+02  0.18726431488E+02  0.00000000000E+00 0. -1.
         11    1    3    3    0    0  0.47892590596E+01  0.83494532865E+01 -0.35439023830E+01  0.10257173923E+02  0.51100000000E-03 0. -1.
        -11    1    3    3    0    0  0.14264259964E+02  0.12408702314E+02  0.12326611140E+02  0.22569677620E+02  0.51100000000E-03 0.  1.
         12    1    3    3    0    0 -0.28004709193E+02 -0.14513812371E+02 -0.23999922972E+02  0.39634716969E+02  0.00000000000E+00 0. -1.
</event>
<event>
 7    1  0.2976321E-013  0.7246154E+02  0.7816164E-02  0.1226708E+00
        -11   -1    0    0    0    0  0.00000000000E+00  0.00000000000E+00  0.45593999997E+02  0.45594000000E+02  0.51100000000E-03 0.  1.
         11   -1    0    0    0    0 -0.00000000000E+00 -0.00000000000E+00 -0.45593999997E+02  0.45594000000E+02  0.51100000000E-03 0. -1.
    9900012    2    1    2    0    0  0.47599639346E+01 -0.32592200098E+01  0.17815733766E+02  0.72461544346E+02  0.69999966198E+02 0.  0.
         12    1    1    2    0    0 -0.47599639346E+01  0.32592200098E+01 -0.17815733766E+02  0.18726455654E+02  0.00000000000E+00 0. -1.
         11    1    3    3    0    0  0.78823887573E+00  0.18675147003E+02  0.25989199223E+02  0.32012824190E+02  0.51100000000E-03 0.  1.
        -11    1    3    3    0    0  0.13551899211E+02 -0.96421850766E+01  0.75899278903E+01  0.18282032461E+02  0.51100000000E-03 0. -1.
        -12    1    3    3    0    0 -0.95801741521E+01 -0.12292181936E+02 -0.15763393348E+02  0.22166687695E+02  0.00000000000E+00 0.  1.
</event>
<event>
 7    1  0.2976321E-013  0.7246159E+02  0.7816164E-02  0.1226708E+00
        -11   -1    0    0    0    0  0.00000000000E+00  0.00000000000E+00  0.45593999997E+02  0.45594000000E+02  0.51100000000E-03 0.  1.
         11   -1    0    0    0    0 -0.00000000000E+00 -0.00000000000E+00 -0.45593999997E+02  0.45594000000E+02  0.51100000000E-03 0. -1.
    9900012    2    1    2    0    0 -0.13063885637E+02  0.13296169720E+02  0.17958721406E+01  0.72461591004E+02  0.70000026978E+02 0.  0.
         12    1    1    2    0    0  0.13063885637E+02 -0.13296169720E+02 -0.17958721406E+01  0.18726408996E+02  0.00000000000E+00 0. -1.
         11    1    3    3    0    0  0.64809596509E+00  0.29083396219E+02 -0.32827893205E+01  0.29275256959E+02  0.51100000000E-03 0. -1.
        -11    1    3    3    0    0  0.28616277381E+00  0.41412641887E+01 -0.12487004932E+02  0.13158922853E+02  0.51100000000E-03 0.  1.
        -12    1    3    3    0    0 -0.13998144375E+02 -0.19928490688E+02  0.17565666393E+02  0.30027411192E+02  0.00000000000E+00 0.  1.
</event>
<event>
 7    1  0.2976321E-013  0.7246165E+02  0.7816164E-02  0.1226708E+00
        -11   -1    0    0    0    0  0.00000000000E+00  0.00000000000E+00  0.45593999997E+02  0.45594000000E+02  0.51100000000E-03 0. -1.
         11   -1    0    0    0    0 -0.00000000000E+00 -0.00000000000E+00 -0.45593999997E+02  0.45594000000E+02  0.51100000000E-03 0.  1.
    9900012    2    1    2    0    0  0.11110032061E+02  0.10123257613E+02 -0.11169743659E+02  0.72461646097E+02  0.70000098747E+02 0.  0.
         12    1    1    2    0    0 -0.11110032061E+02 -0.10123257613E+02  0.11169743659E+02  0.18726353903E+02  0.00000000000E+00 0. -1.
         11    1    3    3    0    0  0.79456165898E+01  0.26565320351E+02 -0.12708575798E+02  0.30501753514E+02  0.51100000000E-03 0. -1.
        -11    1    3    3    0    0 -0.46567655327E+01  0.49059814327E+01 -0.13222741466E+02  0.14852441254E+02  0.51100000000E-03 0.  1.
         12    1    3    3    0    0  0.78211810042E+01 -0.21348044172E+02  0.14761573605E+02  0.27107451329E+02  0.00000000000E+00 0. -1.
</event>
<event>
 7    1  0.3584770E-013  0.7246155E+02  0.7816164E-02  0.1226708E+00
        -11   -1    0    0    0    0  0.00000000000E+00  0.00000000000E+00  0.45593999997E+02  0.45594000000E+02  0.51100000000E-03 0. -1.
         11   -1    0    0    0    0 -0.00000000000E+00 -0.00000000000E+00 -0.45593999997E+02  0.45594000000E+02  0.51100000000E-03 0.  1.
    9900012    2    1    2    0    0 -0.11465714870E+02  0.13095215062E+02 -0.69088734595E+01  0.72461553260E+02  0.69999977810E+02 0.  0.
         12    1    1    2    0    0  0.11465714870E+02 -0.13095215062E+02  0.69088734595E+01  0.18726446740E+02  0.00000000000E+00 0. -1.
         11    1    3    3    0    0  0.21205737852E+02 -0.10271145124E+02 -0.22939528468E+01  0.23673655399E+02  0.51100000000E-03 0.  1.
        -11    1    3    3    0    0 -0.14113995351E+00  0.14950161784E+02 -0.20161803037E+01  0.15086160583E+02  0.51100000000E-03 0. -1.
        -12    1    3    3    0    0 -0.32530312769E+02  0.84161984015E+01 -0.25987403090E+01  0.33701737278E+02  0.00000000000E+00 0.  1.
</event>
<event>
 7    1  0.2976321E-013  0.7246159E+02  0.7816164E-02  0.1226708E+00
        -11   -1    0    0    0    0  0.00000000000E+00  0.00000000000E+00  0.45593999997E+02  0.45594000000E+02  0.51100000000E-03 0. -1.
         11   -1    0    0    0    0 -0.00000000000E+00 -0.00000000000E+00 -0.45593999997E+02  0.45594000000E+02  0.51100000000E-03 0.  1.
    9900012    2    1    2    0    0  0.12237331299E+02  0.13106424193E+02  0.53988638409E+01  0.72461591822E+02  0.70000028044E+02 0.  0.
         12    1    1    2    0    0 -0.12237331299E+02 -0.13106424193E+02 -0.53988638409E+01  0.18726408178E+02  0.00000000000E+00 0. -1.
         11    1    3    3    0    0  0.10108518796E+02 -0.24519762402E+01  0.74158973878E+00  0.10428053286E+02  0.51100000000E-03 0. -1.
        -11    1    3    3    0    0  0.23810733678E+02 -0.73537552648E+01 -0.10492702579E+02  0.27039333617E+02  0.51100000000E-03 0.  1.
         12    1    3    3    0    0 -0.21681921174E+02  0.22912155698E+02  0.15149976681E+02  0.34994204920E+02  0.00000000000E+00 0. -1.
</event>
<event>
 7    1  0.2976321E-013  0.7246157E+02  0.7816164E-02  0.1226708E+00
        -11   -1    0    0    0    0  0.00000000000E+00  0.00000000000E+00  0.45593999997E+02  0.45594000000E+02  0.51100000000E-03 0.  1.
         11   -1    0    0    0    0 -0.00000000000E+00 -0.00000000000E+00 -0.45593999997E+02  0.45594000000E+02  0.51100000000E-03 0. -1.
    9900012    2    1    2    0    0 -0.13423099802E+00  0.17933136216E+02 -0.53910926678E+01  0.72461567541E+02  0.69999996413E+02 0.  0.
         12    1    1    2    0    0  0.13423099802E+00 -0.17933136216E+02  0.53910926678E+01  0.18726432459E+02  0.00000000000E+00 0. -1.
         11    1    3    3    0    0 -0.14524964215E+01 -0.16445392965E+02  0.10796217829E+02  0.19726099850E+02  0.51100000000E-03 0. -1.
        -11    1    3    3    0    0 -0.17198712038E+02  0.21411315354E+02 -0.10691120008E+02  0.29471005552E+02  0.51100000000E-03 0.  1.
        -12    1    3    3    0    0  0.18516977462E+02  0.12967213826E+02 -0.54961904888E+01  0.23264462139E+02  0.00000000000E+00 0.  1.
</event>
<event>
 7    1  0.2976321E-013  0.7246155E+02  0.7816164E-02  0.1226708E+00
        -11   -1    0    0    0    0  0.00000000000E+00  0.00000000000E+00  0.45593999997E+02  0.45594000000E+02  0.51100000000E-03 0.  1.
         11   -1    0    0    0    0 -0.00000000000E+00 -0.00000000000E+00 -0.45593999997E+02  0.45594000000E+02  0.51100000000E-03 0. -1.
    9900012    2    1    2    0    0 -0.10047479470E+02  0.55218628868E+01 -0.14806651855E+02  0.72461554726E+02  0.69999979719E+02 0.  0.
         12    1    1    2    0    0  0.10047479470E+02 -0.55218628868E+01  0.14806651855E+02  0.18726445274E+02  0.00000000000E+00 0. -1.
         11    1    3    3    0    0 -0.38054301458E+00  0.35083195638E+01 -0.15487363397E+01  0.38537908167E+01  0.51100000000E-03 0. -1.
        -11    1    3    3    0    0 -0.32692396887E+02  0.18398794951E+02 -0.29273240493E+00  0.37515252397E+02  0.51100000000E-03 0.  1.
         12    1    3    3    0    0  0.23025460432E+02 -0.16385251628E+02 -0.12965183111E+02  0.31092511512E+02  0.00000000000E+00 0. -1.
</event>
<event>
 7    1  0.4562670E-013  0.7246152E+02  0.7816164E-02  0.1226708E+00
        -11   -1    0    0    0    0  0.00000000000E+00  0.00000000000E+00  0.45593999997E+02  0.45594000000E+02  0.51100000000E-03 0.  1.
         11   -1    0    0    0    0 -0.00000000000E+00 -0.00000000000E+00 -0.45593999997E+02  0.45594000000E+02  0.51100000000E-03 0. -1.
    9900012    2    1    2    0    0  0.64779595952E+01  0.15164271240E+02  0.88747875263E+01  0.72461523118E+02  0.69999938544E+02 0.  0.
         12    1    1    2    0    0 -0.64779595952E+01 -0.15164271240E+02 -0.88747875263E+01  0.18726476882E+02  0.00000000000E+00 0. -1.
         11    1    3    3    0    0  0.22634025733E+02 -0.60190115031E+00 -0.16013880999E+02  0.27732756639E+02  0.51100000000E-03 0. -1.
        -11    1    3    3    0    0  0.86525064008E+01  0.47402751095E+01  0.84603746945E+01  0.12996692478E+02  0.51100000000E-03 0.  1.
        -12    1    3    3    0    0 -0.24808572538E+02  0.11025897281E+02  0.16428293831E+02  0.31732074002E+02  0.00000000000E+00 0.  1.
</event>
<event>
 7    1  0.2976321E-013  0.7246154E+02  0.7816164E-02  0.1226708E+00
        -11   -1    0    0    0    0  0.00000000000E+00  0.00000000000E+00  0.45593999997E+02  0.45594000000E+02  0.51100000000E-03 0.  1.
         11   -1    0    0    0    0 -0.00000000000E+00 -0.00000000000E+00 -0.45593999997E+02  0.45594000000E+02  0.51100000000E-03 0. -1.
    9900012    2    1    2    0    0 -0.25310810207E+01  0.63016888171E+01  0.17451720770E+02  0.72461542489E+02  0.69999963778E+02 0.  0.
         12    1    1    2    0    0  0.25310810207E+01 -0.63016888171E+01 -0.17451720770E+02  0.18726457511E+02  0.00000000000E+00 0. -1.
         11    1    3    3    0    0 -0.24422172254E+02 -0.21754816300E+02  0.11681326600E+02  0.34729928322E+02  0.51100000000E-03 0. -1.
        -11    1    3    3    0    0 -0.57315220785E+00  0.97375477440E+00  0.20601298353E+01  0.23496461465E+01  0.51100000000E-03 0.  1.
        -12    1    3    3    0    0  0.22464243442E+02  0.27082750343E+02  0.37102643348E+01  0.35381968020E+02  0.00000000000E+00 0.  1.
</event>
<event>
 7    1  0.2976321E-013  0.7246148E+02  0.7816164E-02  0.1226708E+00
        -11   -1    0    0    0    0  0.00000000000E+00  0.00000000000E+00  0.45593999997E+02  0.45594000000E+02  0.51100000000E-03 0. -1.
         11   -1    0    0    0    0 -0.00000000000E+00 -0.00000000000E+00 -0.45593999997E+02  0.45594000000E+02  0.51100000000E-03 0.  1.
    9900012    2    1    2    0    0 -0.13949297350E+02 -0.10220794803E+02 -0.71857388300E+01  0.72461484427E+02  0.69999888142E+02 0.  0.
         12    1    1    2    0    0  0.13949297350E+02  0.10220794803E+02  0.71857388300E+01  0.18726515573E+02  0.00000000000E+00 0. -1.
         11    1    3    3    0    0  0.53945637538E+00  0.15752083783E+02 -0.14697748249E+02  0.21550938740E+02  0.51100000000E-03 0. -1.
        -11    1    3    3    0    0 -0.16930986988E+02  0.52651629127E+01 -0.27430117153E+01  0.17941693744E+02  0.51100000000E-03 0.  1.
         12    1    3    3    0    0  0.24422332625E+01 -0.31238041499E+02  0.10255021134E+02  0.32968851944E+02  0.00000000000E+00 0. -1.
</event>
<event>
 7    1  0.2976321E-013  0.7246146E+02  0.7816164E-02  0.1226708E+00
        -11   -1    0    0    0    0  0.00000000000E+00  0.00000000000E+00  0.45593999997E+02  0.45594000000E+02  0.51100000000E-03 0.  1.
         11   -1    0    0    0    0 -0.00000000000E+00 -0.00000000000E+00 -0.45593999997E+02  0.45594000000E+02  0.51100000000E-03 0. -1.
    9900012    2    1    2    0    0  0.51294214270E+01 -0.13862662093E+02 -0.11497778717E+02  0.72461460547E+02  0.69999857034E+02 0.  0.
         12    1    1    2    0    0 -0.51294214270E+01  0.13862662093E+02  0.11497778717E+02  0.18726539453E+02  0.00000000000E+00 0. -1.
         11    1    3    3    0    0 -0.25505441284E+02 -0.18150774411E+02 -0.13996003211E+01  0.31335874460E+02  0.51100000000E-03 0. -1.
        -11    1    3    3    0    0  0.39257482359E+01  0.29221108265E+01 -0.13317746433E+02  0.14188467190E+02  0.51100000000E-03 0.  1.
        -12    1    3    3    0    0  0.26709114475E+02  0.13660014919E+01  0.32195680375E+01  0.26937118897E+02  0.00000000000E+00 0.  1.
</event>
<event>
 7    1  0.2976321E-013  0.7246158E+02  0.7816164E-02  0.1226708E+00
        -11   -1    0    0    0    0  0.00000000000E+00  0.00000000000E+00  0.45593999997E+02  0.45594000000E+02  0.51100000000E-03 0.  1.
         11   -1    0    0    0    0 -0.00000000000E+00 -0.00000000000E+00 -0.45593999997E+02  0.45594000000E+02  0.51100000000E-03 0. -1.
    9900012    2    1    2    0    0 -0.13339917399E+02 -0.10445027489E+02 -0.79766514779E+01  0.72461575775E+02  0.70000007140E+02 0.  0.
         12    1    1    2    0    0  0.13339917399E+02  0.10445027489E+02  0.79766514779E+01  0.18726424225E+02  0.00000000000E+00 0. -1.
         11    1    3    3    0    0 -0.91556912041E+01 -0.12405197645E+02 -0.27916608396E+02  0.31891262669E+02  0.51100000000E-03 0. -1.
        -11    1    3    3    0    0 -0.15863404919E+01 -0.10819784149E+02 -0.53061313640E+01  0.12154802980E+02  0.51100000000E-03 0.  1.
         12    1    3    3    0    0 -0.25978857030E+01  0.12779954304E+02  0.25246088282E+02  0.28415510126E+02  0.00000000000E+00 0. -1.
</event>
<event>
 7    1  0.2976321E-013  0.7246160E+02  0.7816164E-02  0.1226708E+00
        -11   -1    0    0    0    0  0.00000000000E+00  0.00000000000E+00  0.45593999997E+02  0.45594000000E+02  0.51100000000E-03 0.  1.
         11   -1    0    0    0    0 -0.00000000000E+00 -0.00000000000E+00 -0.45593999997E+02  0.45594000000E+02  0.51100000000E-03 0. -1.
    9900012    2    1    2    0    0  0.37042419524E+00 -0.17270891425E+02  0.72289197251E+01  0.72461596579E+02  0.70000034240E+02 0.  0.
         12    1    1    2    0    0 -0.37042419524E+00  0.17270891425E+02 -0.72289197251E+01  0.18726403421E+02  0.00000000000E+00 0. -1.
         11    1    3    3    0    0  0.14666610035E+02 -0.15634438357E+02 -0.27268679318E+01  0.21609741360E+02  0.51100000000E-03 0. -1.
        -11    1    3    3    0    0  0.46990366826E+01 -0.10364390576E+02  0.23384046797E+02  0.26006060497E+02  0.51100000000E-03 0.  1.
        -12    1    3    3    0    0 -0.18995222522E+02  0.87279375076E+01 -0.13428259140E+02  0.24845794721E+02  0.00000000000E+00 0.  1.
</event>
<event>
 7    1  0.2976321E-013  0.7246158E+02  0.7816164E-02  0.1226708E+00
        -11   -1    0    0    0    0  0.00000000000E+00  0.00000000000E+00  0.45593999997E+02  0.45594000000E+02  0.51100000000E-03 0.  1.
         11   -1    0    0    0    0 -0.00000000000E+00 -0.00000000000E+00 -0.45593999997E+02  0.45594000000E+02  0.51100000000E-03 0. -1.
    9900012    2    1    2    0    0  0.16282232992E+02  0.61993202663E+01  0.68655762641E+01  0.72461579616E+02  0.70000012143E+02 0.  0.
         12    1    1    2    0    0 -0.16282232992E+02 -0.61993202663E+01 -0.68655762641E+01  0.18726420384E+02  0.00000000000E+00 0. -1.
         11    1    3    3    0    0  0.14369706296E+02 -0.87187226687E+00  0.16378036081E+02  0.21805703071E+02  0.51100000000E-03 0. -1.
        -11    1    3    3    0    0  0.94708269531E+01 -0.13281939723E+02  0.11876834575E+02  0.20178346953E+02  0.51100000000E-03 0.  1.
         12    1    3    3    0    0 -0.75583002577E+01  0.20353132256E+02 -0.21389294392E+02  0.30477529592E+02  0.00000000000E+00 0. -1.
</event>
<event>
 7    1  0.2976321E-013  0.7246166E+02  0.7816164E-02  0.1226708E+00
        -11   -1    0    0    0    0  0.00000000000E+00  0.00000000000E+00  0.45593999997E+02  0.45594000000E+02  0.51100000000E-03 0.  1.
         11   -1    0    0    0    0 -0.00000000000E+00 -0.00000000000E+00 -0.45593999997E+02  0.45594000000E+02  0.51100000000E-03 0. -1.
    9900012    2    1    2    0    0  0.14062055835E+02  0.33882465278E+00  0.12362017853E+02  0.72461662882E+02  0.70000120613E+02 0.  0.
         12    1    1    2    0    0 -0.14062055835E+02 -0.33882465278E+00 -0.12362017853E+02  0.18726337118E+02  0.00000000000E+00 0. -1.
         11    1    3    3    0    0  0.72450735776E+01 -0.10216946241E+02  0.17177117660E+02  0.21258655954E+02  0.51100000000E-03 0. -1.
        -11    1    3    3    0    0 -0.25039232771E+01 -0.19411874984E+02 -0.11582877496E+01  0.19606941448E+02  0.51100000000E-03 0.  1.
         12    1    3    3    0    0  0.93209055343E+01  0.29967645877E+02 -0.36568120570E+01  0.31596065480E+02  0.00000000000E+00 0. -1.
</event>
<event>
 7    1  0.2976321E-013  0.7246152E+02  0.7816164E-02  0.1226708E+00
        -11   -1    0    0    0    0  0.00000000000E+00  0.00000000000E+00  0.45593999997E+02  0.45594000000E+02  0.51100000000E-03 0.  1.
         11   -1    0    0    0    0 -0.00000000000E+00 -0.00000000000E+00 -0.45593999997E+02  0.45594000000E+02  0.51100000000E-03 0. -1.
    9900012    2    1    2    0    0 -0.79705590634E+01 -0.21503432076E+00  0.16944172535E+02  0.72461520501E+02  0.69999935134E+02 0.  0.
         12    1    1    2    0    0  0.79705590634E+01  0.21503432076E+00 -0.16944172535E+02  0.18726479499E+02  0.00000000000E+00 0. -1.
         11    1    3    3    0    0  0.15733616349E+02  0.13567090480E+02 -0.47270973237E+01  0.21306291955E+02  0.51100000000E-03 0. -1.
        -11    1    3    3    0    0 -0.85082238163E+01  0.71087590040E+01  0.22741317100E+02  0.25300036181E+02  0.51100000000E-03 0.  1.
         12    1    3    3    0    0 -0.15195951596E+02 -0.20890883805E+02 -0.10700472411E+01  0.25855192364E+02  0.00000000000E+00 0. -1.
</event>
<event>
 7    1  0.2976321E-013  0.7246154E+02  0.7816164E-02  0.1226708E+00
        -11   -1    0    0    0    0  0.00000000000E+00  0.00000000000E+00  0.45593999997E+02  0.45594000000E+02  0.51100000000E-03 0.  1.
         11   -1    0    0    0    0 -0.00000000000E+00 -0.00000000000E+00 -0.45593999997E+02  0.45594000000E+02  0.51100000000E-03 0. -1.
    9900012    2    1    2    0    0  0.16980535585E+02 -0.24607275526E+01  0.75024317418E+01  0.72461541422E+02  0.69999962388E+02 0.  0.
         12    1    1    2    0    0 -0.16980535585E+02  0.24607275526E+01 -0.75024317418E+01  0.18726458578E+02  0.00000000000E+00 0. -1.
         11    1    3    3    0    0  0.26439865535E+01  0.12500006104E+02  0.11291194146E+01  0.12826368481E+02  0.51100000000E-03 0. -1.
        -11    1    3    3    0    0 -0.10611047201E+02  0.11717464226E+02  0.15337581592E+02  0.22025773538E+02  0.51100000000E-03 0.  1.
         12    1    3    3    0    0  0.24947596232E+02 -0.26678197883E+02 -0.89642692649E+01  0.37609399403E+02  0.00000000000E+00 0. -1.
</event>
<event>
 7    1  0.2976321E-013  0.7246156E+02  0.7816164E-02  0.1226708E+00
        -11   -1    0    0    0    0  0.00000000000E+00  0.00000000000E+00  0.45593999997E+02  0.45594000000E+02  0.51100000000E-03 0. -1.
         11   -1    0    0    0    0 -0.00000000000E+00 -0.00000000000E+00 -0.45593999997E+02  0.45594000000E+02  0.51100000000E-03 0.  1.
    9900012    2    1    2    0    0 -0.40733844583E+01 -0.38108268071E+01 -0.17876367914E+02  0.72461564362E+02  0.69999992272E+02 0.  0.
         12    1    1    2    0    0  0.40733844583E+01  0.38108268071E+01  0.17876367914E+02  0.18726435638E+02  0.00000000000E+00 0. -1.
         11    1    3    3    0    0 -0.30421178809E+02  0.51870784243E+01 -0.43959125339E+01  0.31171749229E+02  0.51100000000E-03 0. -1.
        -11    1    3    3    0    0  0.13806917359E+02 -0.24072523798E+01  0.75600680974E+01  0.15924209898E+02  0.51100000000E-03 0.  1.
        -12    1    3    3    0    0  0.12540876992E+02 -0.65906528516E+01 -0.21040523478E+02  0.25365605236E+02  0.00000000000E+00 0.  1.
</event>
<event>
 7    1  0.2976321E-013  0.7246130E+02  0.7816164E-02  0.1226709E+00
        -11   -1    0    0    0    0  0.00000000000E+00  0.00000000000E+00  0.45593999997E+02  0.45594000000E+02  0.51100000000E-03 0.  1.
         11   -1    0    0    0    0 -0.00000000000E+00 -0.00000000000E+00 -0.45593999997E+02  0.45594000000E+02  0.51100000000E-03 0. -1.
    9900012    2    1    2    0    0  0.94757610117E+01  0.10927163634E+01  0.16115377075E+02  0.72461295696E+02  0.69999642284E+02 0.  0.
         12    1    1    2    0    0 -0.94757610117E+01 -0.10927163634E+01 -0.16115377075E+02  0.18726704304E+02  0.00000000000E+00 0. -1.
         11    1    3    3    0    0 -0.53691908936E+00 -0.22183729325E+02  0.11786496977E+01  0.22221506346E+02  0.51100000000E-03 0. -1.
        -11    1    3    3    0    0  0.81036328374E+01 -0.70555496958E+01 -0.69416088447E+01  0.12792012363E+02  0.51100000000E-03 0.  1.
        -12    1    3    3    0    0  0.19090472637E+01  0.30331995385E+02  0.21878336222E+02  0.37447776988E+02  0.00000000000E+00 0.  1.
</event>
<event>
 7    1  0.2976321E-013  0.7246158E+02  0.7816164E-02  0.1226708E+00
        -11   -1    0    0    0    0  0.00000000000E+00  0.00000000000E+00  0.45593999997E+02  0.45594000000E+02  0.51100000000E-03 0.  1.
         11   -1    0    0    0    0 -0.00000000000E+00 -0.00000000000E+00 -0.45593999997E+02  0.45594000000E+02  0.51100000000E-03 0. -1.
    9900012    2    1    2    0    0  0.15138516606E+02 -0.75875383196E+01  0.79958276892E+01  0.72461583279E+02  0.70000016914E+02 0.  0.
         12    1    1    2    0    0 -0.15138516606E+02  0.75875383196E+01 -0.79958276892E+01  0.18726416721E+02  0.00000000000E+00 0. -1.
         11    1    3    3    0    0  0.14088334783E+02  0.24185280244E+02 -0.11067722586E+02  0.30098229864E+02  0.51100000000E-03 0. -1.
        -11    1    3    3    0    0  0.67114962517E+01 -0.29880731768E+01 -0.55683174487E-01  0.73468268064E+01  0.51100000000E-03 0.  1.
        -12    1    3    3    0    0 -0.56613144284E+01 -0.28784745387E+02  0.19119233450E+02  0.35016526609E+02  0.00000000000E+00 0.  1.
</event>
<event>
 7    1  0.2976321E-013  0.7246154E+02  0.7816164E-02  0.1226708E+00
        -11   -1    0    0    0    0  0.00000000000E+00  0.00000000000E+00  0.45593999997E+02  0.45594000000E+02  0.51100000000E-03 0. -1.
         11   -1    0    0    0    0 -0.00000000000E+00 -0.00000000000E+00 -0.45593999997E+02  0.45594000000E+02  0.51100000000E-03 0.  1.
    9900012    2    1    2    0    0  0.17621532588E+02 -0.49306314996E+01  0.39813026947E+01  0.72461539873E+02  0.69999960371E+02 0.  0.
         12    1    1    2    0    0 -0.17621532588E+02  0.49306314996E+01 -0.39813026947E+01  0.18726460127E+02  0.00000000000E+00 0. -1.
         11    1    3    3    0    0 -0.99944000092E+01  0.68911627340E+01 -0.28882378253E+01  0.12478704795E+02  0.51100000000E-03 0. -1.
        -11    1    3    3    0    0 -0.40547734820E+01 -0.23391758415E+02 -0.49540386499E+01  0.24251970001E+02  0.51100000000E-03 0.  1.
         12    1    3    3    0    0  0.31670706079E+02  0.11569964182E+02  0.11823579170E+02  0.35730865076E+02  0.00000000000E+00 0. -1.
</event>
<event>
 7    1  0.2976321E-013  0.7246161E+02  0.7816164E-02  0.1226708E+00
        -11   -1    0    0    0    0  0.00000000000E+00  0.00000000000E+00  0.45593999997E+02  0.45594000000E+02  0.51100000000E-03 0.  1.
         11   -1    0    0    0    0 -0.00000000000E+00 -0.00000000000E+00 -0.45593999997E+02  0.45594000000E+02  0.51100000000E-03 0. -1.
    9900012    2    1    2    0    0 -0.51147025782E+01  0.28105838673E+01  0.17793770402E+02  0.72461606080E+02  0.70000046617E+02 0.  0.
         12    1    1    2    0    0  0.51147025782E+01 -0.28105838673E+01 -0.17793770402E+02  0.18726393920E+02  0.00000000000E+00 0. -1.
         11    1    3    3    0    0  0.12871742737E+01 -0.52705598260E+01 -0.93086285061E+01  0.10774329836E+02  0.51100000000E-03 0. -1.
        -11    1    3    3    0    0  0.20748892824E+02  0.16676812921E+02  0.98143253874E+01  0.28371704667E+02  0.51100000000E-03 0.  1.
         12    1    3    3    0    0 -0.27150769676E+02 -0.85956692277E+01  0.17288073521E+02  0.33315571577E+02  0.00000000000E+00 0. -1.
</event>
<event>
 7    1  0.2976321E-013  0.7246159E+02  0.7816164E-02  0.1226708E+00
        -11   -1    0    0    0    0  0.00000000000E+00  0.00000000000E+00  0.45593999997E+02  0.45594000000E+02  0.51100000000E-03 0. -1.
         11   -1    0    0    0    0 -0.00000000000E+00 -0.00000000000E+00 -0.45593999997E+02  0.45594000000E+02  0.51100000000E-03 0.  1.
    9900012    2    1    2    0    0  0.16268444600E+02 -0.87264364778E+01  0.31409115671E+01  0.72461593276E+02  0.70000029938E+02 0.  0.
         12    1    1    2    0    0 -0.16268444600E+02  0.87264364778E+01 -0.31409115671E+01  0.18726406724E+02  0.00000000000E+00 0. -1.
         11    1    3    3    0    0 -0.53912732855E+01 -0.36512335063E+01  0.39026849515E+01  0.75913295178E+01  0.51100000000E-03 0. -1.
        -11    1    3    3    0    0  0.15684799272E+02  0.25977550369E+02  0.92110448907E+01  0.31712606320E+02  0.51100000000E-03 0.  1.
         12    1    3    3    0    0  0.59749186142E+01 -0.31052753340E+02 -0.99728182752E+01  0.33157657438E+02  0.00000000000E+00 0. -1.
</event>
<event>
 7    1  0.2976321E-013  0.7246161E+02  0.7816164E-02  0.1226708E+00
        -11   -1    0    0    0    0  0.00000000000E+00  0.00000000000E+00  0.45593999997E+02  0.45594000000E+02  0.51100000000E-03 0.  1.
         11   -1    0    0    0    0 -0.00000000000E+00 -0.00000000000E+00 -0.45593999997E+02  0.45594000000E+02  0.51100000000E-03 0. -1.
    9900012    2    1    2    0    0 -0.17328001368E+02  0.33143332317E+01 -0.62795830989E+01  0.72461612199E+02  0.70000054588E+02 0.  0.
         12    1    1    2    0    0  0.17328001368E+02 -0.33143332317E+01  0.62795830989E+01  0.18726387801E+02  0.00000000000E+00 0. -1.
         11    1    3    3    0    0 -0.19371691958E+01  0.26042053786E+02 -0.98955288498E+01  0.27926021581E+02  0.51100000000E-03 0. -1.
        -11    1    3    3    0    0 -0.38662349926E+01  0.87085861939E+01  0.54977182363E+01  0.11000552376E+02  0.51100000000E-03 0.  1.
        -12    1    3    3    0    0 -0.11524597180E+02 -0.31436306748E+02 -0.18817724854E+01  0.33535038241E+02  0.00000000000E+00 0.  1.
</event>
<event>
 7    1  0.2976321E-013  0.7246155E+02  0.7816164E-02  0.1226708E+00
        -11   -1    0    0    0    0  0.00000000000E+00  0.00000000000E+00  0.45593999997E+02  0.45594000000E+02  0.51100000000E-03 0.  1.
         11   -1    0    0    0    0 -0.00000000000E+00 -0.00000000000E+00 -0.45593999997E+02  0.45594000000E+02  0.51100000000E-03 0. -1.
    9900012    2    1    2    0    0 -0.76601119165E+01  0.15143976408E+02  0.79159771195E+01  0.72461547325E+02  0.69999970079E+02 0.  0.
         12    1    1    2    0    0  0.76601119165E+01 -0.15143976408E+02 -0.79159771195E+01  0.18726452675E+02  0.00000000000E+00 0. -1.
         11    1    3    3    0    0 -0.15515589441E+01  0.77309655000E+01  0.48627196361E+01  0.92639735125E+01  0.51100000000E-03 0. -1.
        -11    1    3    3    0    0  0.19767429824E+01  0.95585324900E+01  0.31796957404E+02  0.33261382361E+02  0.51100000000E-03 0.  1.
         12    1    3    3    0    0 -0.80852959548E+01 -0.21455215820E+01 -0.28743699920E+02  0.29936191452E+02  0.00000000000E+00 0. -1.
</event>
<event>
 7    1  0.2976321E-013  0.7246158E+02  0.7816164E-02  0.1226708E+00
        -11   -1    0    0    0    0  0.00000000000E+00  0.00000000000E+00  0.45593999997E+02  0.45594000000E+02  0.51100000000E-03 0.  1.
         11   -1    0    0    0    0 -0.00000000000E+00 -0.00000000000E+00 -0.45593999997E+02  0.45594000000E+02  0.51100000000E-03 0. -1.
    9900012    2    1    2    0    0  0.97546021266E+01 -0.94918476028E+01 -0.12862009719E+02  0.72461582094E+02  0.70000015372E+02 0.  0.
         12    1    1    2    0    0 -0.97546021266E+01  0.94918476028E+01  0.12862009719E+02  0.18726417906E+02  0.00000000000E+00 0. -1.
         11    1    3    3    0    0  0.28618556112E+02  0.23753485280E+01 -0.11542493095E+02  0.30949849461E+02  0.51100000000E-03 0. -1.
        -11    1    3    3    0    0 -0.19155619067E+01  0.11750386736E+02 -0.33603314447E+01  0.12370642406E+02  0.51100000000E-03 0.  1.
        -12    1    3    3    0    0 -0.16948392079E+02 -0.23617582866E+02  0.20408148206E+01  0.29141090227E+02  0.00000000000E+00 0.  1.
</event>
<event>
 7    1  0.2976321E-013  0.7246216E+02  0.7816164E-02  0.1226706E+00
        -11   -1    0    0    0    0  0.00000000000E+00  0.00000000000E+00  0.45593999997E+02  0.45594000000E+02  0.51100000000E-03 0. -1.
         11   -1    0    0    0    0 -0.00000000000E+00 -0.00000000000E+00 -0.45593999997E+02  0.45594000000E+02  0.51100000000E-03 0.  1.
    9900012    2    1    2    0    0  0.15818676869E+02  0.55368871474E+01 -0.83528057594E+01  0.72462161668E+02  0.70000770370E+02 0.  0.
         12    1    1    2    0    0 -0.15818676869E+02 -0.55368871474E+01  0.83528057594E+01  0.18725838332E+02  0.00000000000E+00 0. -1.
         11    1    3    3    0    0 -0.72020480041E+01  0.54327070476E+01 -0.11461484877E+01  0.90938142677E+01  0.51100000000E-03 0. -1.
        -11    1    3    3    0    0 -0.75916156065E-02 -0.11958318485E+02 -0.27761562314E+02  0.30227566575E+02  0.51100000000E-03 0.  1.
         12    1    3    3    0    0  0.23028316489E+02  0.12062498585E+02  0.20554905043E+02  0.33140780826E+02  0.00000000000E+00 0. -1.
</event>
<event>
 7    1  0.2976321E-013  0.7246101E+02  0.7816164E-02  0.1226710E+00
        -11   -1    0    0    0    0  0.00000000000E+00  0.00000000000E+00  0.45593999997E+02  0.45594000000E+02  0.51100000000E-03 0. -1.
         11   -1    0    0    0    0 -0.00000000000E+00 -0.00000000000E+00 -0.45593999997E+02  0.45594000000E+02  0.51100000000E-03 0.  1.
    9900012    2    1    2    0    0  0.13067907351E+01  0.11233394773E+02 -0.14926598536E+02  0.72461008677E+02  0.69999268385E+02 0.  0.
         12    1    1    2    0    0 -0.13067907351E+01 -0.11233394773E+02  0.14926598536E+02  0.18726991323E+02  0.00000000000E+00 0. -1.
         11    1    3    3    0    0  0.15492448456E+02 -0.71262177529E+01 -0.33435676120E+00  0.17056105456E+02  0.51100000000E-03 0. -1.
        -11    1    3    3    0    0  0.64375507285E+01  0.28122455302E+02 -0.15139635676E+02  0.32581023929E+02  0.51100000000E-03 0.  1.
         12    1    3    3    0    0 -0.20623208450E+02 -0.97628427761E+01  0.54739390080E+00  0.22823879292E+02  0.00000000000E+00 0. -1.
</event>
<event>
 7    1  0.2976321E-013  0.7246160E+02  0.7816164E-02  0.1226708E+00
        -11   -1    0    0    0    0  0.00000000000E+00  0.00000000000E+00  0.45593999997E+02  0.45594000000E+02  0.51100000000E-03 0. -1.
         11   -1    0    0    0    0 -0.00000000000E+00 -0.00000000000E+00 -0.45593999997E+02  0.45594000000E+02  0.51100000000E-03 0.  1.
    9900012    2    1    2    0    0  0.98295407149E+01 -0.10745310045E+02 -0.11772696857E+02  0.72461602858E+02  0.70000042421E+02 0.  0.
         12    1    1    2    0    0 -0.98295407149E+01  0.10745310045E+02  0.11772696857E+02  0.18726397142E+02  0.00000000000E+00 0. -1.
         11    1    3    3    0    0 -0.19673441886E+02 -0.10648197952E+02 -0.11272271388E+02  0.25049801152E+02  0.51100000000E-03 0. -1.
        -11    1    3    3    0    0 -0.62279529548E+00 -0.63402988504E+01 -0.12784707600E+02  0.14284117480E+02  0.51100000000E-03 0.  1.
        -12    1    3    3    0    0  0.30125777896E+02  0.62431867580E+01  0.12284282131E+02  0.33127684226E+02  0.00000000000E+00 0.  1.
</event>
<event>
 7    1  0.2976321E-013  0.7246159E+02  0.7816164E-02  0.1226708E+00
        -11   -1    0    0    0    0  0.00000000000E+00  0.00000000000E+00  0.45593999997E+02  0.45594000000E+02  0.51100000000E-03 0.  1.
         11   -1    0    0    0    0 -0.00000000000E+00 -0.00000000000E+00 -0.45593999997E+02  0.45594000000E+02  0.51100000000E-03 0. -1.
    9900012    2    1    2    0    0  0.13524045003E+02  0.12073185971E+02  0.46922005872E+01  0.72461591934E+02  0.70000028189E+02 0.  0.
         12    1    1    2    0    0 -0.13524045003E+02 -0.12073185971E+02 -0.46922005872E+01  0.18726408066E+02  0.00000000000E+00 0. -1.
         11    1    3    3    0    0  0.31295341827E+01  0.12881340603E+02 -0.54964676790E+01  0.14350403379E+02  0.51100000000E-03 0. -1.
        -11    1    3    3    0    0  0.20900870692E+01  0.20801991264E+02  0.23461808425E+02  0.31425272622E+02  0.51100000000E-03 0.  1.
         12    1    3    3    0    0  0.83044237508E+01 -0.21610145896E+02 -0.13273140159E+02  0.26685915933E+02  0.00000000000E+00 0. -1.
</event>
<event>
 7    1  0.2976321E-013  0.7246154E+02  0.7816164E-02  0.1226708E+00
        -11   -1    0    0    0    0  0.00000000000E+00  0.00000000000E+00  0.45593999997E+02  0.45594000000E+02  0.51100000000E-03 0.  1.
         11   -1    0    0    0    0 -0.00000000000E+00 -0.00000000000E+00 -0.45593999997E+02  0.45594000000E+02  0.51100000000E-03 0. -1.
    9900012    2    1    2    0    0 -0.11928727426E+00  0.15765719903E+02  0.10104852082E+02  0.72461543071E+02  0.69999964537E+02 0.  0.
         12    1    1    2    0    0  0.11928727426E+00 -0.15765719903E+02 -0.10104852082E+02  0.18726456929E+02  0.00000000000E+00 0. -1.
         11    1    3    3    0    0 -0.12593050326E+02  0.88224759124E+01 -0.18834261764E+02  0.24313584972E+02  0.51100000000E-03 0. -1.
        -11    1    3    3    0    0 -0.45594398610E+01  0.17729902884E+02  0.14382514091E+02  0.23280778766E+02  0.51100000000E-03 0.  1.
        -12    1    3    3    0    0  0.17033202913E+02 -0.10786658894E+02  0.14556599755E+02  0.24867179333E+02  0.00000000000E+00 0.  1.
</event>
<event>
 7    1  0.2976321E-013  0.7246152E+02  0.7816164E-02  0.1226708E+00
        -11   -1    0    0    0    0  0.00000000000E+00  0.00000000000E+00  0.45593999997E+02  0.45594000000E+02  0.51100000000E-03 0.  1.
         11   -1    0    0    0    0 -0.00000000000E+00 -0.00000000000E+00 -0.45593999997E+02  0.45594000000E+02  0.51100000000E-03 0. -1.
    9900012    2    1    2    0    0  0.15418177948E+02  0.74266486369E+01  0.76030108772E+01  0.72461518868E+02  0.69999933007E+02 0.  0.
         12    1    1    2    0    0 -0.15418177948E+02 -0.74266486369E+01 -0.76030108772E+01  0.18726481132E+02  0.00000000000E+00 0. -1.
         11    1    3    3    0    0  0.31609199666E+02 -0.16229063188E+01  0.17909837428E+00  0.31651341281E+02  0.51100000000E-03 0. -1.
        -11    1    3    3    0    0  0.67590235966E+01  0.76280940418E+01  0.13605754061E+02  0.16999669483E+02  0.51100000000E-03 0.  1.
        -12    1    3    3    0    0 -0.22950045315E+02  0.14214609139E+01 -0.61818415586E+01  0.23810508103E+02  0.00000000000E+00 0.  1.
</event>
<event>
 7    1  0.2976321E-013  0.7246156E+02  0.7816164E-02  0.1226708E+00
        -11   -1    0    0    0    0  0.00000000000E+00  0.00000000000E+00  0.45593999997E+02  0.45594000000E+02  0.51100000000E-03 0.  1.
         11   -1    0    0    0    0 -0.00000000000E+00 -0.00000000000E+00 -0.45593999997E+02  0.45594000000E+02  0.51100000000E-03 0. -1.
    9900012    2    1    2    0    0  0.12385594921E+02  0.12724082720E+02  0.59476377517E+01  0.72461557801E+02  0.69999983725E+02 0.  0.
         12    1    1    2    0    0 -0.12385594921E+02 -0.12724082720E+02 -0.59476377517E+01  0.18726442199E+02  0.00000000000E+00 0. -1.
         11    1    3    3    0    0  0.13563093392E+02  0.13130840949E+02 -0.16036311709E+02  0.24769735160E+02  0.51100000000E-03 0. -1.
        -11    1    3    3    0    0  0.13987594506E+02 -0.68533393312E+01 -0.47525080467E+01  0.16285189377E+02  0.51100000000E-03 0.  1.
        -12    1    3    3    0    0 -0.15165092978E+02  0.64465811024E+01  0.26736457507E+02  0.31406633264E+02  0.00000000000E+00 0.  1.
</event>
<event>
 7    1  0.2976321E-013  0.7246175E+02  0.7816164E-02  0.1226708E+00
        -11   -1    0    0    0    0  0.00000000000E+00  0.00000000000E+00  0.45593999997E+02  0.45594000000E+02  0.51100000000E-03 0. -1.
         11   -1    0    0    0    0 -0.00000000000E+00 -0.00000000000E+00 -0.45593999997E+02  0.45594000000E+02  0.51100000000E-03 0.  1.
    9900012    2    1    2    0    0  0.17534985102E+02  0.33224408624E+01  0.56708191413E+01  0.72461748225E+02  0.70000231787E+02 0.  0.
         12    1    1    2    0    0 -0.17534985102E+02 -0.33224408624E+01 -0.56708191413E+01  0.18726251775E+02  0.00000000000E+00 0. -1.
         11    1    3    3    0    0 -0.11781746737E+02  0.28627726543E+01  0.13615677672E+02  0.18231612714E+02  0.51100000000E-03 0. -1.
        -11    1    3    3    0    0 -0.20725378135E+01 -0.17083348873E+02 -0.59783441400E+01  0.18217486671E+02  0.51100000000E-03 0.  1.
        -12    1    3    3    0    0  0.31389269652E+02  0.17543017081E+02 -0.19665143907E+01  0.36012648839E+02  0.00000000000E+00 0.  1.
</event>
<event>
 7    1  0.2976321E-013  0.7246158E+02  0.7816164E-02  0.1226708E+00
        -11   -1    0    0    0    0  0.00000000000E+00  0.00000000000E+00  0.45593999997E+02  0.45594000000E+02  0.51100000000E-03 0. -1.
         11   -1    0    0    0    0 -0.00000000000E+00 -0.00000000000E+00 -0.45593999997E+02  0.45594000000E+02  0.51100000000E-03 0.  1.
    9900012    2    1    2    0    0  0.13602328398E+02 -0.10012989625E+02  0.80867472856E+01  0.72461580674E+02  0.70000013522E+02 0.  0.
         12    1    1    2    0    0 -0.13602328398E+02  0.10012989625E+02 -0.80867472856E+01  0.18726419326E+02  0.00000000000E+00 0. -1.
         11    1    3    3    0    0 -0.90128127334E+00  0.74369224536E+01  0.59390281100E+01  0.95599256622E+01  0.51100000000E-03 0. -1.
        -11    1    3    3    0    0  0.15245302084E+02  0.12506168771E+02  0.19947306467E+02  0.28048503142E+02  0.51100000000E-03 0.  1.
         12    1    3    3    0    0 -0.74169241226E+00 -0.29956080850E+02 -0.17799587291E+02  0.34853151870E+02  0.00000000000E+00 0. -1.
</event>
<event>
 7    1  0.2976321E-013  0.7246148E+02  0.7816164E-02  0.1226708E+00
        -11   -1    0    0    0    0  0.00000000000E+00  0.00000000000E+00  0.45593999997E+02  0.45594000000E+02  0.51100000000E-03 0. -1.
         11   -1    0    0    0    0 -0.00000000000E+00 -0.00000000000E+00 -0.45593999997E+02  0.45594000000E+02  0.51100000000E-03 0.  1.
    9900012    2    1    2    0    0  0.17760281693E+02 -0.40394630629E+01 -0.43517630029E+01  0.72461475793E+02  0.69999876895E+02 0.  0.
         12    1    1    2    0    0 -0.17760281693E+02  0.40394630629E+01  0.43517630029E+01  0.18726524207E+02  0.00000000000E+00 0. -1.
         11    1    3    3    0    0  0.25574400429E+01  0.20401075628E+02  0.55689284708E+01  0.21301580949E+02  0.51100000000E-03 0. -1.
        -11    1    3    3    0    0 -0.12951571202E+02 -0.24571736763E+01 -0.79304969641E+01  0.15384202333E+02  0.51100000000E-03 0.  1.
        -12    1    3    3    0    0  0.28154412852E+02 -0.21983365015E+02 -0.19901945096E+01  0.35775692510E+02  0.00000000000E+00 0.  1.
</event>
<event>
 7    1  0.2976321E-013  0.7246154E+02  0.7816164E-02  0.1226708E+00
        -11   -1    0    0    0    0  0.00000000000E+00  0.00000000000E+00  0.45593999997E+02  0.45594000000E+02  0.51100000000E-03 0. -1.
         11   -1    0    0    0    0 -0.00000000000E+00 -0.00000000000E+00 -0.45593999997E+02  0.45594000000E+02  0.51100000000E-03 0.  1.
    9900012    2    1    2    0    0 -0.12828250971E+02 -0.50974554649E+01 -0.12654336717E+02  0.72461539765E+02  0.69999960230E+02 0.  0.
         12    1    1    2    0    0  0.12828250971E+02  0.50974554649E+01  0.12654336717E+02  0.18726460235E+02  0.00000000000E+00 0. -1.
         11    1    3    3    0    0 -0.50299101311E+01  0.94243183709E+01 -0.78866111604E+01  0.13278418902E+02  0.51100000000E-03 0. -1.
        -11    1    3    3    0    0 -0.26158192467E+02 -0.13715315494E+02  0.14200668171E+02  0.32772242660E+02  0.51100000000E-03 0.  1.
         12    1    3    3    0    0  0.18359851627E+02 -0.80645834133E+00 -0.18968393728E+02  0.26410878203E+02  0.00000000000E+00 0. -1.
</event>
<event>
 7    1  0.2976321E-013  0.7246139E+02  0.7816164E-02  0.1226708E+00
        -11   -1    0    0    0    0  0.00000000000E+00  0.00000000000E+00  0.45593999997E+02  0.45594000000E+02  0.51100000000E-03 0.  1.
         11   -1    0    0    0    0 -0.00000000000E+00 -0.00000000000E+00 -0.45593999997E+02  0.45594000000E+02  0.51100000000E-03 0. -1.
    9900012    2    1    2    0    0  0.16514625820E+01 -0.92518364676E+01 -0.16197595863E+02  0.72461390098E+02  0.69999765261E+02 0.  0.
         12    1    1    2    0    0 -0.16514625820E+01  0.92518364676E+01  0.16197595863E+02  0.18726609902E+02  0.00000000000E+00 0. -1.
         11    1    3    3    0    0 -0.22578810452E+02  0.26787762697E+01 -0.21785523462E+02  0.31489483268E+02  0.51100000000E-03 0. -1.
        -11    1    3    3    0    0 -0.36573762796E+01 -0.40505260929E+01  0.10257103648E+02  0.11618577296E+02  0.51100000000E-03 0.  1.
        -12    1    3    3    0    0  0.27887649313E+02 -0.78800866444E+01 -0.46691760484E+01  0.29353329534E+02  0.00000000000E+00 0.  1.
</event>
<event>
 7    1  0.2976321E-013  0.7246148E+02  0.7816164E-02  0.1226708E+00
        -11   -1    0    0    0    0  0.00000000000E+00  0.00000000000E+00  0.45593999997E+02  0.45594000000E+02  0.51100000000E-03 0.  1.
         11   -1    0    0    0    0 -0.00000000000E+00 -0.00000000000E+00 -0.45593999997E+02  0.45594000000E+02  0.51100000000E-03 0. -1.
    9900012    2    1    2    0    0  0.97444865461E+01  0.14060668441E+02  0.76174242897E+01  0.72461479558E+02  0.69999881799E+02 0.  0.
         12    1    1    2    0    0 -0.97444865461E+01 -0.14060668441E+02 -0.76174242897E+01  0.18726520442E+02  0.00000000000E+00 0. -1.
         11    1    3    3    0    0 -0.99308245796E+01 -0.10289120230E+01 -0.21104813947E+01  0.10204610172E+02  0.51100000000E-03 0. -1.
        -11    1    3    3    0    0 -0.15083428948E+02  0.20739792289E+02  0.85137304916E+01  0.27020962606E+02  0.51100000000E-03 0.  1.
         12    1    3    3    0    0  0.34758740074E+02 -0.56502118244E+01  0.12141751929E+01  0.35235906780E+02  0.00000000000E+00 0. -1.
</event>
<event>
 7    1  0.2976321E-013  0.7246156E+02  0.7816164E-02  0.1226708E+00
        -11   -1    0    0    0    0  0.00000000000E+00  0.00000000000E+00  0.45593999997E+02  0.45594000000E+02  0.51100000000E-03 0.  1.
         11   -1    0    0    0    0 -0.00000000000E+00 -0.00000000000E+00 -0.45593999997E+02  0.45594000000E+02  0.51100000000E-03 0. -1.
    9900012    2    1    2    0    0  0.40632603659E+01  0.17508147297E+02  0.52568178656E+01  0.72461563055E+02  0.69999990570E+02 0.  0.
         12    1    1    2    0    0 -0.40632603659E+01 -0.17508147297E+02 -0.52568178656E+01  0.18726436945E+02  0.00000000000E+00 0. -1.
         11    1    3    3    0    0  0.21116618621E+02  0.55027363539E+01  0.13023590001E+01  0.21860645658E+02  0.51100000000E-03 0. -1.
        -11    1    3    3    0    0  0.84670814718E+01  0.16957837669E+02  0.13102220767E+02  0.23041873108E+02  0.51100000000E-03 0.  1.
        -12    1    3    3    0    0 -0.25520439727E+02 -0.49524267256E+01 -0.91477619015E+01  0.27559044289E+02  0.00000000000E+00 0.  1.
</event>
<event>
 7    1  0.2976321E-013  0.7246158E+02  0.7816164E-02  0.1226708E+00
        -11   -1    0    0    0    0  0.00000000000E+00  0.00000000000E+00  0.45593999997E+02  0.45594000000E+02  0.51100000000E-03 0. -1.
         11   -1    0    0    0    0 -0.00000000000E+00 -0.00000000000E+00 -0.45593999997E+02  0.45594000000E+02  0.51100000000E-03 0.  1.
    9900012    2    1    2    0    0 -0.70977517690E+01 -0.16582216683E+00 -0.17328394244E+02  0.72461579514E+02  0.70000012010E+02 0.  0.
         12    1    1    2    0    0  0.70977517690E+01  0.16582216683E+00  0.17328394244E+02  0.18726420486E+02  0.00000000000E+00 0. -1.
         11    1    3    3    0    0 -0.25628143195E+02 -0.52669823456E+01  0.97464868860E-01  0.26163950892E+02  0.51100000000E-03 0. -1.
        -11    1    3    3    0    0 -0.46658061615E+01 -0.12344098588E+02 -0.93428940554E+01  0.16168988425E+02  0.51100000000E-03 0.  1.
         12    1    3    3    0    0  0.23196197587E+02  0.17445258767E+02 -0.80829650571E+01  0.30128640196E+02  0.00000000000E+00 0. -1.
</event>
<event>
 7    1  0.2976321E-013  0.7246159E+02  0.7816164E-02  0.1226708E+00
        -11   -1    0    0    0    0  0.00000000000E+00  0.00000000000E+00  0.45593999997E+02  0.45594000000E+02  0.51100000000E-03 0. -1.
         11   -1    0    0    0    0 -0.00000000000E+00 -0.00000000000E+00 -0.45593999997E+02  0.45594000000E+02  0.51100000000E-03 0.  1.
    9900012    2    1    2    0    0 -0.36548091268E+01 -0.38294223970E+01 -0.17962636762E+02  0.72461590171E+02  0.70000025893E+02 0.  0.
         12    1    1    2    0    0  0.36548091268E+01  0.38294223970E+01  0.17962636762E+02  0.18726409829E+02  0.00000000000E+00 0. -1.
         11    1    3    3    0    0  0.10883927708E+01 -0.57879425095E+00 -0.34405098437E+01  0.36546832769E+01  0.51100000000E-03 0. -1.
        -11    1    3    3    0    0  0.21136214337E+02  0.53714785091E+01 -0.30271440241E+02  0.37308878734E+02  0.51100000000E-03 0.  1.
         12    1    3    3    0    0 -0.25879416234E+02 -0.86221066552E+01  0.15749313323E+02  0.31498028160E+02  0.00000000000E+00 0. -1.
</event>
<event>
 7    1  0.2976321E-013  0.7246156E+02  0.7816164E-02  0.1226708E+00
        -11   -1    0    0    0    0  0.00000000000E+00  0.00000000000E+00  0.45593999997E+02  0.45594000000E+02  0.51100000000E-03 0.  1.
         11   -1    0    0    0    0 -0.00000000000E+00 -0.00000000000E+00 -0.45593999997E+02  0.45594000000E+02  0.51100000000E-03 0. -1.
    9900012    2    1    2    0    0 -0.34394986892E+01 -0.18323685650E+02  0.17583645206E+01  0.72461562730E+02  0.69999990146E+02 0.  0.
         12    1    1    2    0    0  0.34394986892E+01  0.18323685650E+02 -0.17583645206E+01  0.18726437270E+02  0.00000000000E+00 0. -1.
         11    1    3    3    0    0  0.23318000369E+02 -0.53736493232E+01 -0.88200083748E+00  0.23945420731E+02  0.51100000000E-03 0. -1.
        -11    1    3    3    0    0 -0.95825405092E+01 -0.79462036745E+01  0.20020065660E+02  0.23574780269E+02  0.51100000000E-03 0.  1.
         12    1    3    3    0    0 -0.17174958549E+02 -0.50038326525E+01 -0.17379700302E+02  0.24941361730E+02  0.00000000000E+00 0. -1.
</event>
<event>
 7    1  0.2976321E-013  0.7246157E+02  0.7816164E-02  0.1226708E+00
        -11   -1    0    0    0    0  0.00000000000E+00  0.00000000000E+00  0.45593999997E+02  0.45594000000E+02  0.51100000000E-03 0. -1.
         11   -1    0    0    0    0 -0.00000000000E+00 -0.00000000000E+00 -0.45593999997E+02  0.45594000000E+02  0.51100000000E-03 0.  1.
    9900012    2    1    2    0    0 -0.68177611784E+01 -0.16090128484E+01 -0.17366880284E+02  0.72461566260E+02  0.69999994744E+02 0.  0.
         12    1    1    2    0    0  0.68177611784E+01  0.16090128484E+01  0.17366880284E+02  0.18726433740E+02  0.00000000000E+00 0. -1.
         11    1    3    3    0    0 -0.55656457033E+01  0.20599405242E+00  0.87160788211E+01  0.10343542716E+02  0.51100000000E-03 0. -1.
        -11    1    3    3    0    0  0.24205210051E+02 -0.11536326029E+02 -0.41404970443E+01  0.27131581743E+02  0.51100000000E-03 0.  1.
        -12    1    3    3    0    0 -0.25457325526E+02  0.97213191284E+01 -0.21942462061E+02  0.34986441800E+02  0.00000000000E+00 0.  1.
</event>
<event>
 7    1  0.2976321E-013  0.7246154E+02  0.7816164E-02  0.1226708E+00
        -11   -1    0    0    0    0  0.00000000000E+00  0.00000000000E+00  0.45593999997E+02  0.45594000000E+02  0.51100000000E-03 0.  1.
         11   -1    0    0    0    0 -0.00000000000E+00 -0.00000000000E+00 -0.45593999997E+02  0.45594000000E+02  0.51100000000E-03 0. -1.
    9900012    2    1    2    0    0 -0.15725997969E+01 -0.75127063875E+01  0.17081174071E+02  0.72461539175E+02  0.69999959461E+02 0.  0.
         12    1    1    2    0    0  0.15725997969E+01  0.75127063875E+01 -0.17081174071E+02  0.18726460825E+02  0.00000000000E+00 0. -1.
         11    1    3    3    0    0  0.45296400875E+01 -0.38146163336E+01  0.11274033838E+02  0.12734707548E+02  0.51100000000E-03 0. -1.
        -11    1    3    3    0    0 -0.84212705121E+01 -0.34136526599E+01  0.32084170005E+02  0.33346136008E+02  0.51100000000E-03 0.  1.
         12    1    3    3    0    0  0.23190306277E+01 -0.28443739406E+00 -0.26277029772E+02  0.26380695619E+02  0.00000000000E+00 0. -1.
</event>
<event>
 7    1  0.2976321E-013  0.7246161E+02  0.7816164E-02  0.1226708E+00
        -11   -1    0    0    0    0  0.00000000000E+00  0.00000000000E+00  0.45593999997E+02  0.45594000000E+02  0.51100000000E-03 0.  1.
         11   -1    0    0    0    0 -0.00000000000E+00 -0.00000000000E+00 -0.45593999997E+02  0.45594000000E+02  0.51100000000E-03 0. -1.
    9900012    2    1    2    0    0  0.17642190943E+02 -0.62587250087E+01  0.50901536730E+00  0.72461611222E+02  0.70000053316E+02 0.  0.
         12    1    1    2    0    0 -0.17642190943E+02  0.62587250087E+01 -0.50901536730E+00  0.18726388778E+02  0.00000000000E+00 0. -1.
         11    1    3    3    0    0  0.33312284087E+02 -0.13329300764E+01 -0.11071713526E+02  0.35129301364E+02  0.51100000000E-03 0. -1.
        -11    1    3    3    0    0  0.67253367779E+01 -0.10425194050E+02  0.34029895848E+01  0.12864492378E+02  0.51100000000E-03 0.  1.
         12    1    3    3    0    0 -0.22395429921E+02  0.54993991180E+01  0.81777393090E+01  0.24467817480E+02  0.00000000000E+00 0. -1.
</event>
<event>
 7    1  0.2976321E-013  0.7246157E+02  0.7816164E-02  0.1226708E+00
        -11   -1    0    0    0    0  0.00000000000E+00  0.00000000000E+00  0.45593999997E+02  0.45594000000E+02  0.51100000000E-03 0. -1.
         11   -1    0    0    0    0 -0.00000000000E+00 -0.00000000000E+00 -0.45593999997E+02  0.45594000000E+02  0.51100000000E-03 0.  1.
    9900012    2    1    2    0    0 -0.26105397404E+01  0.35927593105E+01 -0.18192209753E+02  0.72461565932E+02  0.69999994317E+02 0.  0.
         12    1    1    2    0    0  0.26105397404E+01 -0.35927593105E+01  0.18192209753E+02  0.18726434068E+02  0.00000000000E+00 0. -1.
         11    1    3    3    0    0 -0.51400431967E+01  0.76442968198E+01  0.14745277390E+02  0.17386158964E+02  0.51100000000E-03 0. -1.
        -11    1    3    3    0    0  0.12164896200E+02 -0.11280276251E+02  0.32766411613E+01  0.16910520672E+02  0.51100000000E-03 0.  1.
        -12    1    3    3    0    0 -0.96353927433E+01  0.72287387416E+01 -0.36214128305E+02  0.38164886296E+02  0.00000000000E+00 0.  1.
</event>
<event>
 7    1  0.2976321E-013  0.7246167E+02  0.7816164E-02  0.1226708E+00
        -11   -1    0    0    0    0  0.00000000000E+00  0.00000000000E+00  0.45593999997E+02  0.45594000000E+02  0.51100000000E-03 0. -1.
         11   -1    0    0    0    0 -0.00000000000E+00 -0.00000000000E+00 -0.45593999997E+02  0.45594000000E+02  0.51100000000E-03 0.  1.
    9900012    2    1    2    0    0 -0.16848736688E+02  0.51742277356E+01 -0.63263684061E+01  0.72461668329E+02  0.70000127708E+02 0.  0.
         12    1    1    2    0    0  0.16848736688E+02 -0.51742277356E+01  0.63263684061E+01  0.18726331671E+02  0.00000000000E+00 0. -1.
         11    1    3    3    0    0  0.14318514291E+02  0.63763219762E+00 -0.10054964956E+02  0.17507962384E+02  0.51100000000E-03 0. -1.
        -11    1    3    3    0    0 -0.46968774383E+00 -0.14795150196E+02  0.10369628022E+02  0.18073357780E+02  0.51100000000E-03 0.  1.
        -12    1    3    3    0    0 -0.30697563235E+02  0.19331745734E+02 -0.66410314713E+01  0.36880348164E+02  0.00000000000E+00 0.  1.
</event>
<event>
 7    1  0.2976321E-013  0.7246157E+02  0.7816164E-02  0.1226708E+00
        -11   -1    0    0    0    0  0.00000000000E+00  0.00000000000E+00  0.45593999997E+02  0.45594000000E+02  0.51100000000E-03 0.  1.
         11   -1    0    0    0    0 -0.00000000000E+00 -0.00000000000E+00 -0.45593999997E+02  0.45594000000E+02  0.51100000000E-03 0. -1.
    9900012    2    1    2    0    0 -0.42243436428E+01  0.10532611549E+02  0.14896249097E+02  0.72461568882E+02  0.69999998160E+02 0.  0.
         12    1    1    2    0    0  0.42243436428E+01 -0.10532611549E+02 -0.14896249097E+02  0.18726431118E+02  0.00000000000E+00 0. -1.
         11    1    3    3    0    0 -0.30295295729E+02  0.89389507567E+01 -0.67709371564E+01  0.32304107698E+02  0.51100000000E-03 0. -1.
        -11    1    3    3    0    0 -0.10647792155E+00 -0.52102169104E+01 -0.43320469981E+00  0.52292795273E+01  0.51100000000E-03 0.  1.
        -12    1    3    3    0    0  0.26177430007E+02  0.68038777025E+01  0.22100390953E+02  0.34928181657E+02  0.00000000000E+00 0.  1.
</event>
<event>
 7    1  0.2976321E-013  0.7246156E+02  0.7816164E-02  0.1226708E+00
        -11   -1    0    0    0    0  0.00000000000E+00  0.00000000000E+00  0.45593999997E+02  0.45594000000E+02  0.51100000000E-03 0.  1.
         11   -1    0    0    0    0 -0.00000000000E+00 -0.00000000000E+00 -0.45593999997E+02  0.45594000000E+02  0.51100000000E-03 0. -1.
    9900012    2    1    2    0    0  0.85485672747E+01 -0.16625053541E+02 -0.10995868546E+01  0.72461561499E+02  0.69999988542E+02 0.  0.
         12    1    1    2    0    0 -0.85485672747E+01  0.16625053541E+02  0.10995868546E+01  0.18726438501E+02  0.00000000000E+00 0. -1.
         11    1    3    3    0    0  0.21343830259E+02 -0.12533668341E+02  0.27063849828E+01  0.24899326339E+02  0.51100000000E-03 0. -1.
        -11    1    3    3    0    0  0.74958778200E+01  0.15645506412E+02  0.47565334306E+01  0.17988737191E+02  0.51100000000E-03 0.  1.
        -12    1    3    3    0    0 -0.20291140804E+02 -0.19736891612E+02 -0.85625052680E+01  0.29573497969E+02  0.00000000000E+00 0.  1.
</event>
<event>
 7    1  0.2976321E-013  0.7246120E+02  0.7816164E-02  0.1226709E+00
        -11   -1    0    0    0    0  0.00000000000E+00  0.00000000000E+00  0.45593999997E+02  0.45594000000E+02  0.51100000000E-03 0.  1.
         11   -1    0    0    0    0 -0.00000000000E+00 -0.00000000000E+00 -0.45593999997E+02  0.45594000000E+02  0.51100000000E-03 0. -1.
    9900012    2    1    2    0    0  0.33277234759E+01  0.17906397411E+02  0.43566504384E+01  0.72461195285E+02  0.69999511479E+02 0.  0.
         12    1    1    2    0    0 -0.33277234759E+01 -0.17906397411E+02 -0.43566504384E+01  0.18726804715E+02  0.00000000000E+00 0. -1.
         11    1    3    3    0    0 -0.94029958790E+01 -0.15698306591E+02  0.66836237098E+01  0.19481375400E+02  0.51100000000E-03 0. -1.
        -11    1    3    3    0    0  0.14865362997E+02  0.69547808795E+01  0.14069513982E+02  0.21617104757E+02  0.51100000000E-03 0.  1.
         12    1    3    3    0    0 -0.21346436423E+01  0.26649923123E+02 -0.16396487254E+02  0.31362715128E+02  0.00000000000E+00 0. -1.
</event>
<event>
 7    1  0.2976321E-013  0.7246162E+02  0.7816164E-02  0.1226708E+00
        -11   -1    0    0    0    0  0.00000000000E+00  0.00000000000E+00  0.45593999997E+02  0.45594000000E+02  0.51100000000E-03 0.  1.
         11   -1    0    0    0    0 -0.00000000000E+00 -0.00000000000E+00 -0.45593999997E+02  0.45594000000E+02  0.51100000000E-03 0. -1.
    9900012    2    1    2    0    0  0.17775046241E+02  0.47811480011E+01 -0.34446547660E+01  0.72461620437E+02  0.70000065320E+02 0.  0.
         12    1    1    2    0    0 -0.17775046241E+02 -0.47811480011E+01  0.34446547660E+01  0.18726379563E+02  0.00000000000E+00 0. -1.
         11    1    3    3    0    0  0.24542427909E+02  0.65586040933E+01 -0.26239895532E+02  0.36522296931E+02  0.51100000000E-03 0. -1.
        -11    1    3    3    0    0  0.76383358519E+01 -0.87810303095E+01  0.79026051270E+01  0.14067758739E+02  0.51100000000E-03 0.  1.
        -12    1    3    3    0    0 -0.14405717520E+02  0.70035742173E+01  0.14892635639E+02  0.21871564767E+02  0.00000000000E+00 0.  1.
</event>
<event>
 7    1  0.2976321E-013  0.7246155E+02  0.7816164E-02  0.1226708E+00
        -11   -1    0    0    0    0  0.00000000000E+00  0.00000000000E+00  0.45593999997E+02  0.45594000000E+02  0.51100000000E-03 0.  1.
         11   -1    0    0    0    0 -0.00000000000E+00 -0.00000000000E+00 -0.45593999997E+02  0.45594000000E+02  0.51100000000E-03 0. -1.
    9900012    2    1    2    0    0 -0.17280924488E+02  0.53493308835E+01  0.48409109998E+01  0.72461545147E+02  0.69999967241E+02 0.  0.
         12    1    1    2    0    0  0.17280924488E+02 -0.53493308835E+01 -0.48409109998E+01  0.18726454853E+02  0.00000000000E+00 0. -1.
         11    1    3    3    0    0  0.15123590007E+02 -0.54403656698E+01 -0.14731242426E+01  0.16139722693E+02  0.51100000000E-03 0. -1.
        -11    1    3    3    0    0 -0.10986468231E+02  0.17629253759E+02  0.20943379885E+02  0.29497766586E+02  0.51100000000E-03 0.  1.
        -12    1    3    3    0    0 -0.21418046264E+02 -0.68395572061E+01 -0.14629344642E+02  0.26824055868E+02  0.00000000000E+00 0.  1.
</event>
<event>
 7    1  0.2976321E-013  0.7246158E+02  0.7816164E-02  0.1226708E+00
        -11   -1    0    0    0    0  0.00000000000E+00  0.00000000000E+00  0.45593999997E+02  0.45594000000E+02  0.51100000000E-03 0. -1.
         11   -1    0    0    0    0 -0.00000000000E+00 -0.00000000000E+00 -0.45593999997E+02  0.45594000000E+02  0.51100000000E-03 0.  1.
    9900012    2    1    2    0    0 -0.55155478722E+01 -0.95995792240E+01 -0.15103164465E+02  0.72461581056E+02  0.70000014020E+02 0.  0.
         12    1    1    2    0    0  0.55155478722E+01  0.95995792240E+01  0.15103164465E+02  0.18726418944E+02  0.00000000000E+00 0. -1.
         11    1    3    3    0    0  0.19740984958E+02 -0.77832948244E+01  0.45278733398E+00  0.21224777550E+02  0.51100000000E-03 0. -1.
        -11    1    3    3    0    0 -0.15376335858E+02 -0.21691733754E+02 -0.75292234903E+01  0.27634258165E+02  0.51100000000E-03 0.  1.
        -12    1    3    3    0    0 -0.98801969715E+01  0.19875449355E+02 -0.80267283082E+01  0.23602545341E+02  0.00000000000E+00 0.  1.
</event>
<event>
 7    1  0.2976321E-013  0.7246161E+02  0.7816164E-02  0.1226708E+00
        -11   -1    0    0    0    0  0.00000000000E+00  0.00000000000E+00  0.45593999997E+02  0.45594000000E+02  0.51100000000E-03 0.  1.
         11   -1    0    0    0    0 -0.00000000000E+00 -0.00000000000E+00 -0.45593999997E+02  0.45594000000E+02  0.51100000000E-03 0. -1.
    9900012    2    1    2    0    0 -0.12122406068E+02  0.11008021707E+02  0.90856222509E+01  0.72461606795E+02  0.70000047549E+02 0.  0.
         12    1    1    2    0    0  0.12122406068E+02 -0.11008021707E+02 -0.90856222509E+01  0.18726393205E+02  0.00000000000E+00 0. -1.
         11    1    3    3    0    0 -0.23899892660E+00 -0.73418722102E+01 -0.85635992907E+01  0.11282528135E+02  0.51100000000E-03 0. -1.
        -11    1    3    3    0    0 -0.72856632350E+01 -0.17683354530E+02  0.15798203437E+02  0.24806554543E+02  0.51100000000E-03 0.  1.
         12    1    3    3    0    0 -0.45977439063E+01  0.36033248447E+02  0.18510181051E+01  0.36372524118E+02  0.00000000000E+00 0. -1.
</event>
<event>
 7    1  0.2976321E-013  0.7246160E+02  0.7816164E-02  0.1226708E+00
        -11   -1    0    0    0    0  0.00000000000E+00  0.00000000000E+00  0.45593999997E+02  0.45594000000E+02  0.51100000000E-03 0. -1.
         11   -1    0    0    0    0 -0.00000000000E+00 -0.00000000000E+00 -0.45593999997E+02  0.45594000000E+02  0.51100000000E-03 0.  1.
    9900012    2    1    2    0    0 -0.16320729354E+02 -0.61833330922E+01 -0.67880871465E+01  0.72461603072E+02  0.70000042700E+02 0.  0.
         12    1    1    2    0    0  0.16320729354E+02  0.61833330922E+01  0.67880871465E+01  0.18726396928E+02  0.00000000000E+00 0. -1.
         11    1    3    3    0    0 -0.50602408796E+01  0.23820879721E+01 -0.57201208235E+01  0.80000102102E+01  0.51100000000E-03 0. -1.
        -11    1    3    3    0    0 -0.34577153749E+02 -0.89234552410E+01 -0.13327470711E+02  0.38115995207E+02  0.51100000000E-03 0.  1.
         12    1    3    3    0    0  0.23316665274E+02  0.35803417671E+00  0.12259504388E+02  0.26345597655E+02  0.00000000000E+00 0. -1.
</event>
<event>
 7    1  0.2976321E-013  0.7246159E+02  0.7816164E-02  0.1226708E+00
        -11   -1    0    0    0    0  0.00000000000E+00  0.00000000000E+00  0.45593999997E+02  0.45594000000E+02  0.51100000000E-03 0. -1.
         11   -1    0    0    0    0 -0.00000000000E+00 -0.00000000000E+00 -0.45593999997E+02  0.45594000000E+02  0.51100000000E-03 0.  1.
    9900012    2    1    2    0    0 -0.47010020935E+01  0.65371877775E+01 -0.16906924694E+02  0.72461592247E+02  0.70000028598E+02 0.  0.
         12    1    1    2    0    0  0.47010020935E+01 -0.65371877775E+01  0.16906924694E+02  0.18726407753E+02  0.00000000000E+00 0. -1.
         11    1    3    3    0    0  0.10270107912E+01  0.19008355085E+01 -0.20706022101E+02  0.20818436020E+02  0.51100000000E-03 0. -1.
        -11    1    3    3    0    0  0.93838098133E+00  0.27581578692E+02  0.14878783321E+01  0.27637616109E+02  0.51100000000E-03 0.  1.
         12    1    3    3    0    0 -0.66663938660E+01 -0.22945226423E+02  0.23112190756E+01  0.24005540119E+02  0.00000000000E+00 0. -1.
</event>
<event>
 7    1  0.2976321E-013  0.7246161E+02  0.7816164E-02  0.1226708E+00
        -11   -1    0    0    0    0  0.00000000000E+00  0.00000000000E+00  0.45593999997E+02  0.45594000000E+02  0.51100000000E-03 0.  1.
         11   -1    0    0    0    0 -0.00000000000E+00 -0.00000000000E+00 -0.45593999997E+02  0.45594000000E+02  0.51100000000E-03 0. -1.
    9900012    2    1    2    0    0  0.56345816477E-01  0.18564838496E+02 -0.24538421097E+01  0.72461608347E+02  0.70000049571E+02 0.  0.
         12    1    1    2    0    0 -0.56345816477E-01 -0.18564838496E+02  0.24538421097E+01  0.18726391653E+02  0.00000000000E+00 0. -1.
         11    1    3    3    0    0  0.40621046606E+01  0.12873985609E+00 -0.26974590955E+01  0.48778636776E+01  0.51100000000E-03 0. -1.
        -11    1    3    3    0    0 -0.18703318080E+02 -0.11520421306E+02  0.19228070290E+02  0.29193370850E+02  0.51100000000E-03 0.  1.
         12    1    3    3    0    0  0.14697559235E+02  0.29956519946E+02 -0.18984453304E+02  0.38390373820E+02  0.00000000000E+00 0. -1.
</event>
<event>
 7    1  0.2976321E-013  0.7246160E+02  0.7816164E-02  0.1226708E+00
        -11   -1    0    0    0    0  0.00000000000E+00  0.00000000000E+00  0.45593999997E+02  0.45594000000E+02  0.51100000000E-03 0. -1.
         11   -1    0    0    0    0 -0.00000000000E+00 -0.00000000000E+00 -0.45593999997E+02  0.45594000000E+02  0.51100000000E-03 0.  1.
    9900012    2    1    2    0    0  0.85398072454E+01 -0.17476166109E+01 -0.16573938450E+02  0.72461603995E+02  0.70000043901E+02 0.  0.
         12    1    1    2    0    0 -0.85398072454E+01  0.17476166109E+01  0.16573938450E+02  0.18726396005E+02  0.00000000000E+00 0. -1.
         11    1    3    3    0    0  0.18874186164E+02 -0.56981854500E+01 -0.44917735558E+01  0.20220787589E+02  0.51100000000E-03 0. -1.
        -11    1    3    3    0    0  0.43302072505E+01 -0.10908117308E+02 -0.25051062768E+02  0.27663937972E+02  0.51100000000E-03 0.  1.
         12    1    3    3    0    0 -0.14664586169E+02  0.14858686147E+02  0.12968897874E+02  0.24576878435E+02  0.00000000000E+00 0. -1.
</event>
<event>
 7    1  0.2976321E-013  0.7246139E+02  0.7816164E-02  0.1226708E+00
        -11   -1    0    0    0    0  0.00000000000E+00  0.00000000000E+00  0.45593999997E+02  0.45594000000E+02  0.51100000000E-03 0.  1.
         11   -1    0    0    0    0 -0.00000000000E+00 -0.00000000000E+00 -0.45593999997E+02  0.45594000000E+02  0.51100000000E-03 0. -1.
    9900012    2    1    2    0    0  0.11475933237E+02  0.11063038566E+02  0.98284328229E+01  0.72461389048E+02  0.69999763893E+02 0.  0.
         12    1    1    2    0    0 -0.11475933237E+02 -0.11063038566E+02 -0.98284328229E+01  0.18726610952E+02  0.00000000000E+00 0. -1.
         11    1    3    3    0    0 -0.20981951137E+01  0.80831345487E+01  0.19078946437E+02  0.20826561989E+02  0.51100000000E-03 0.  1.
        -11    1    3    3    0    0  0.23879909501E+01  0.25311253697E+02 -0.78967119091E+01  0.26621797905E+02  0.51100000000E-03 0. -1.
        -12    1    3    3    0    0  0.11186137401E+02 -0.22331349679E+02 -0.13538017048E+01  0.25013029154E+02  0.00000000000E+00 0.  1.
</event>
<event>
 7    1  0.2976321E-013  0.7246147E+02  0.7816164E-02  0.1226708E+00
        -11   -1    0    0    0    0  0.00000000000E+00  0.00000000000E+00  0.45593999997E+02  0.45594000000E+02  0.51100000000E-03 0. -1.
         11   -1    0    0    0    0 -0.00000000000E+00 -0.00000000000E+00 -0.45593999997E+02  0.45594000000E+02  0.51100000000E-03 0.  1.
    9900012    2    1    2    0    0 -0.84096154858E+01  0.10409322737E+02  0.13099895854E+02  0.72461470587E+02  0.69999870113E+02 0.  0.
         12    1    1    2    0    0  0.84096154858E+01 -0.10409322737E+02 -0.13099895854E+02  0.18726529413E+02  0.00000000000E+00 0. -1.
         11    1    3    3    0    0  0.28060923594E+00  0.63159791686E+01 -0.69628431074E+00  0.63604360310E+01  0.51100000000E-03 0. -1.
        -11    1    3    3    0    0 -0.35575008393E+02  0.17419457316E+01  0.15953979278E+02  0.39027490979E+02  0.51100000000E-03 0.  1.
         12    1    3    3    0    0  0.26884783671E+02  0.23513978364E+01 -0.21577991132E+01  0.27073543577E+02  0.00000000000E+00 0. -1.
</event>
<event>
 7    1  0.2976321E-013  0.7246157E+02  0.7816164E-02  0.1226708E+00
        -11   -1    0    0    0    0  0.00000000000E+00  0.00000000000E+00  0.45593999997E+02  0.45594000000E+02  0.51100000000E-03 0.  1.
         11   -1    0    0    0    0 -0.00000000000E+00 -0.00000000000E+00 -0.45593999997E+02  0.45594000000E+02  0.51100000000E-03 0. -1.
    9900012    2    1    2    0    0  0.16321485252E+02  0.87584558523E+00 -0.91389985617E+01  0.72461567317E+02  0.69999996121E+02 0.  0.
         12    1    1    2    0    0 -0.16321485252E+02 -0.87584558523E+00  0.91389985617E+01  0.18726432683E+02  0.00000000000E+00 0. -1.
         11    1    3    3    0    0 -0.18789459298E+01 -0.18947825751E+01 -0.96120241380E+00  0.28362914440E+01  0.51100000000E-03 0. -1.
        -11    1    3    3    0    0 -0.14897767070E+02 -0.19763875520E+01  0.20607166723E+02  0.25504997393E+02  0.51100000000E-03 0.  1.
         12    1    3    3    0    0  0.33098198251E+02  0.47470157123E+01 -0.28784962871E+02  0.44120278480E+02  0.00000000000E+00 0. -1.
</event>
<event>
 7    1  0.2976321E-013  0.7246151E+02  0.7816164E-02  0.1226708E+00
        -11   -1    0    0    0    0  0.00000000000E+00  0.00000000000E+00  0.45593999997E+02  0.45594000000E+02  0.51100000000E-03 0.  1.
         11   -1    0    0    0    0 -0.00000000000E+00 -0.00000000000E+00 -0.45593999997E+02  0.45594000000E+02  0.51100000000E-03 0. -1.
    9900012    2    1    2    0    0 -0.11559265676E+02  0.13600203630E+02  0.56656269164E+01  0.72461508334E+02  0.69999919285E+02 0.  0.
         12    1    1    2    0    0  0.11559265676E+02 -0.13600203630E+02 -0.56656269164E+01  0.18726491666E+02  0.00000000000E+00 0. -1.
         11    1    3    3    0    0 -0.10803976264E+01 -0.12999616838E+02  0.78067471182E+01  0.15202058998E+02  0.51100000000E-03 0. -1.
        -11    1    3    3    0    0 -0.12695750436E+02  0.16795651203E+02  0.22398883679E+02  0.30740624080E+02  0.51100000000E-03 0.  1.
         12    1    3    3    0    0  0.22168823866E+01  0.98041692652E+01 -0.24540003881E+02  0.26518825256E+02  0.00000000000E+00 0. -1.
</event>
<event>
 7    1  0.2976321E-013  0.7246158E+02  0.7816164E-02  0.1226708E+00
        -11   -1    0    0    0    0  0.00000000000E+00  0.00000000000E+00  0.45593999997E+02  0.45594000000E+02  0.51100000000E-03 0.  1.
         11   -1    0    0    0    0 -0.00000000000E+00 -0.00000000000E+00 -0.45593999997E+02  0.45594000000E+02  0.51100000000E-03 0. -1.
    9900012    2    1    2    0    0  0.18156633381E+02  0.13204920798E+01 -0.43899705866E+01  0.72461578110E+02  0.70000010181E+02 0.  0.
         12    1    1    2    0    0 -0.18156633381E+02 -0.13204920798E+01  0.43899705866E+01  0.18726421890E+02  0.00000000000E+00 0. -1.
         11    1    3    3    0    0  0.19056774066E+02  0.19347564401E+02 -0.23852218902E+02  0.36144394211E+02  0.51100000000E-03 0. -1.
        -11    1    3    3    0    0 -0.24521161627E+01 -0.10210695182E+02 -0.42297630096E+01  0.11320868568E+02  0.51100000000E-03 0.  1.
        -12    1    3    3    0    0  0.15519754778E+01 -0.78163771395E+01  0.23692011325E+02  0.24996315331E+02  0.00000000000E+00 0.  1.
</event>
<event>
 7    1  0.2976321E-013  0.7246157E+02  0.7816164E-02  0.1226708E+00
        -11   -1    0    0    0    0  0.00000000000E+00  0.00000000000E+00  0.45593999997E+02  0.45594000000E+02  0.51100000000E-03 0.  1.
         11   -1    0    0    0    0 -0.00000000000E+00 -0.00000000000E+00 -0.45593999997E+02  0.45594000000E+02  0.51100000000E-03 0. -1.
    9900012    2    1    2    0    0 -0.11312016544E+02  0.77711688447E+00  0.14903477619E+02  0.72461567503E+02  0.69999996363E+02 0.  0.
         12    1    1    2    0    0  0.11312016544E+02 -0.77711688447E+00 -0.14903477619E+02  0.18726432497E+02  0.00000000000E+00 0. -1.
         11    1    3    3    0    0 -0.95614034482E+01  0.41084274806E+01  0.30538807126E+02  0.32263266313E+02  0.51100000000E-03 0. -1.
        -11    1    3    3    0    0  0.88690621818E+01 -0.70742740770E+01  0.80917953381E+01  0.13934947784E+02  0.51100000000E-03 0.  1.
         12    1    3    3    0    0 -0.10619675278E+02  0.37429634809E+01 -0.23727124846E+02  0.26263353405E+02  0.00000000000E+00 0. -1.
</event>
<event>
 7    1  0.2976321E-013  0.7246153E+02  0.7816164E-02  0.1226708E+00
        -11   -1    0    0    0    0  0.00000000000E+00  0.00000000000E+00  0.45593999997E+02  0.45594000000E+02  0.51100000000E-03 0.  1.
         11   -1    0    0    0    0 -0.00000000000E+00 -0.00000000000E+00 -0.45593999997E+02  0.45594000000E+02  0.51100000000E-03 0. -1.
    9900012    2    1    2    0    0  0.15286015140E+02  0.63791479790E+01  0.87364039525E+01  0.72461533654E+02  0.69999952269E+02 0.  0.
         12    1    1    2    0    0 -0.15286015140E+02 -0.63791479790E+01 -0.87364039525E+01  0.18726466346E+02  0.00000000000E+00 0. -1.
         11    1    3    3    0    0 -0.20397450602E+01 -0.99162085217E+01  0.21265644683E+02  0.23552481725E+02  0.51100000000E-03 0. -1.
        -11    1    3    3    0    0 -0.75520298050E+01  0.15600876932E+02 -0.16233307323E+02  0.23747437380E+02  0.51100000000E-03 0.  1.
         12    1    3    3    0    0  0.24877790005E+02  0.69447956917E+00  0.37040665923E+01  0.25161614549E+02  0.00000000000E+00 0. -1.
</event>
<event>
 7    1  0.2976321E-013  0.7246157E+02  0.7816164E-02  0.1226708E+00
        -11   -1    0    0    0    0  0.00000000000E+00  0.00000000000E+00  0.45593999997E+02  0.45594000000E+02  0.51100000000E-03 0. -1.
         11   -1    0    0    0    0 -0.00000000000E+00 -0.00000000000E+00 -0.45593999997E+02  0.45594000000E+02  0.51100000000E-03 0.  1.
    9900012    2    1    2    0    0 -0.13084537961E+02 -0.21215246578E+01 -0.13227746344E+02  0.72461567508E+02  0.69999996370E+02 0.  0.
         12    1    1    2    0    0  0.13084537961E+02  0.21215246578E+01  0.13227746344E+02  0.18726432492E+02  0.00000000000E+00 0. -1.
         11    1    3    3    0    0 -0.29131684084E+02 -0.56293591620E+01  0.14698900373E+02  0.33111967242E+02  0.51100000000E-03 0. -1.
        -11    1    3    3    0    0  0.15854873339E+02  0.62582893631E+01 -0.73054333565E+01  0.18544879378E+02  0.51100000000E-03 0.  1.
        -12    1    3    3    0    0  0.19227278424E+00 -0.27504548589E+01 -0.20621213361E+02  0.20804720889E+02  0.00000000000E+00 0.  1.
</event>
<event>
 7    1  0.2976321E-013  0.7246154E+02  0.7816164E-02  0.1226708E+00
        -11   -1    0    0    0    0  0.00000000000E+00  0.00000000000E+00  0.45593999997E+02  0.45594000000E+02  0.51100000000E-03 0. -1.
         11   -1    0    0    0    0 -0.00000000000E+00 -0.00000000000E+00 -0.45593999997E+02  0.45594000000E+02  0.51100000000E-03 0.  1.
    9900012    2    1    2    0    0  0.16751029428E+02  0.82633473174E+01 -0.13417651990E+01  0.72461541990E+02  0.69999963128E+02 0.  0.
         12    1    1    2    0    0 -0.16751029428E+02 -0.82633473174E+01  0.13417651990E+01  0.18726458010E+02  0.00000000000E+00 0. -1.
         11    1    3    3    0    0  0.16902595149E+02  0.10828595019E+02  0.12350344093E+02  0.23568775792E+02  0.51100000000E-03 0. -1.
        -11    1    3    3    0    0  0.19786629248E+02 -0.88501394057E+01 -0.17230903228E+02  0.27690064839E+02  0.51100000000E-03 0.  1.
         12    1    3    3    0    0 -0.19938194969E+02  0.62848917039E+01  0.35387939354E+01  0.21202701358E+02  0.00000000000E+00 0. -1.
</event>
<event>
 7    1  0.2976321E-013  0.7246149E+02  0.7816164E-02  0.1226708E+00
        -11   -1    0    0    0    0  0.00000000000E+00  0.00000000000E+00  0.45593999997E+02  0.45594000000E+02  0.51100000000E-03 0. -1.
         11   -1    0    0    0    0 -0.00000000000E+00 -0.00000000000E+00 -0.45593999997E+02  0.45594000000E+02  0.51100000000E-03 0.  1.
    9900012    2    1    2    0    0 -0.10980008679E+02  0.11689070538E+02 -0.96688814253E+01  0.72461488615E+02  0.69999893598E+02 0.  0.
         12    1    1    2    0    0  0.10980008679E+02 -0.11689070538E+02  0.96688814253E+01  0.18726511385E+02  0.00000000000E+00 0. -1.
         11    1    3    3    0    0 -0.38522932078E+01 -0.65388314681E+01 -0.53359639443E+00  0.76079698541E+01  0.51100000000E-03 0. -1.
        -11    1    3    3    0    0  0.10975720505E+02 -0.43091396181E+01 -0.27968303469E+02  0.30352283671E+02  0.51100000000E-03 0.  1.
         12    1    3    3    0    0 -0.18103435976E+02  0.22537041624E+02  0.18833018438E+02  0.34501235091E+02  0.00000000000E+00 0. -1.
</event>
<event>
 7    1  0.2976321E-013  0.7246157E+02  0.7816164E-02  0.1226708E+00
        -11   -1    0    0    0    0  0.00000000000E+00  0.00000000000E+00  0.45593999997E+02  0.45594000000E+02  0.51100000000E-03 0.  1.
         11   -1    0    0    0    0 -0.00000000000E+00 -0.00000000000E+00 -0.45593999997E+02  0.45594000000E+02  0.51100000000E-03 0. -1.
    9900012    2    1    2    0    0 -0.34503338421E+01 -0.32102889111E+01  0.18123702742E+02  0.72461565219E+02  0.69999993388E+02 0.  0.
         12    1    1    2    0    0  0.34503338421E+01  0.32102889111E+01 -0.18123702742E+02  0.18726434781E+02  0.00000000000E+00 0. -1.
         11    1    3    3    0    0 -0.73425953901E+01 -0.20986213569E+02 -0.13158672731E+02  0.25835741432E+02  0.51100000000E-03 0. -1.
        -11    1    3    3    0    0  0.21179642125E+01 -0.48636106480E+01  0.21067700866E+02  0.21725296338E+02  0.51100000000E-03 0.  1.
        -12    1    3    3    0    0  0.17742973355E+01  0.22639535306E+02  0.10214674608E+02  0.24900527449E+02  0.00000000000E+00 0.  1.
</event>
<event>
 7    1  0.2976321E-013  0.7246155E+02  0.7816164E-02  0.1226708E+00
        -11   -1    0    0    0    0  0.00000000000E+00  0.00000000000E+00  0.45593999997E+02  0.45594000000E+02  0.51100000000E-03 0. -1.
         11   -1    0    0    0    0 -0.00000000000E+00 -0.00000000000E+00 -0.45593999997E+02  0.45594000000E+02  0.51100000000E-03 0.  1.
    9900012    2    1    2    0    0  0.73700671005E+01 -0.17138669867E+02  0.16211169761E+01  0.72461550413E+02  0.69999974101E+02 0.  0.
         12    1    1    2    0    0 -0.73700671005E+01  0.17138669867E+02 -0.16211169761E+01  0.18726449587E+02  0.00000000000E+00 0. -1.
         11    1    3    3    0    0 -0.14497073840E+02 -0.15624925507E+02  0.38949567947E+00  0.21317953799E+02  0.51100000000E-03 0. -1.
        -11    1    3    3    0    0  0.81785525478E+01 -0.23559064362E+02 -0.18759284305E+01  0.25008745333E+02  0.51100000000E-03 0.  1.
         12    1    3    3    0    0  0.13688588393E+02  0.22045320002E+02  0.31075497272E+01  0.26134851281E+02  0.00000000000E+00 0. -1.
</event>
<event>
 7    1  0.2976321E-013  0.7246087E+02  0.7816164E-02  0.1226710E+00
        -11   -1    0    0    0    0  0.00000000000E+00  0.00000000000E+00  0.45593999997E+02  0.45594000000E+02  0.51100000000E-03 0. -1.
         11   -1    0    0    0    0 -0.00000000000E+00 -0.00000000000E+00 -0.45593999997E+02  0.45594000000E+02  0.51100000000E-03 0.  1.
    9900012    2    1    2    0    0  0.76477665160E+01 -0.17084089293E+02 -0.59247275275E+00  0.72460868249E+02  0.69999085450E+02 0.  0.
         12    1    1    2    0    0 -0.76477665160E+01  0.17084089293E+02  0.59247275275E+00  0.18727131751E+02  0.00000000000E+00 0. -1.
         11    1    3    3    0    0 -0.33695322659E+01  0.89135896692E+01  0.45366322520E-01  0.95293172287E+01  0.51100000000E-03 0. -1.
        -11    1    3    3    0    0 -0.16201171218E+01 -0.24559936018E+00 -0.25147579730E+02  0.25200910004E+02  0.51100000000E-03 0.  1.
         12    1    3    3    0    0  0.12637415904E+02 -0.25752079602E+02  0.24509740654E+02  0.37730641016E+02  0.00000000000E+00 0. -1.
</event>
<event>
 7    1  0.2976321E-013  0.7246183E+02  0.7816164E-02  0.1226707E+00
        -11   -1    0    0    0    0  0.00000000000E+00  0.00000000000E+00  0.45593999997E+02  0.45594000000E+02  0.51100000000E-03 0. -1.
         11   -1    0    0    0    0 -0.00000000000E+00 -0.00000000000E+00 -0.45593999997E+02  0.45594000000E+02  0.51100000000E-03 0.  1.
    9900012    2    1    2    0    0 -0.87339289174E+01  0.91721364822E+01 -0.13793471688E+02  0.72461829457E+02  0.70000337607E+02 0.  0.
         12    1    1    2    0    0  0.87339289174E+01 -0.91721364822E+01  0.13793471688E+02  0.18726170543E+02  0.00000000000E+00 0. -1.
         11    1    3    3    0    0  0.47247976945E+01 -0.27274860184E+01 -0.13022635745E+02  0.14119204483E+02  0.51100000000E-03 0. -1.
        -11    1    3    3    0    0 -0.10104172410E+02  0.29418747652E+02 -0.15917657437E+02  0.34941792055E+02  0.51100000000E-03 0.  1.
         12    1    3    3    0    0 -0.33545542018E+01 -0.17519125151E+02  0.15146821494E+02  0.23400832919E+02  0.00000000000E+00 0. -1.
</event>
<event>
 7    1  0.2976321E-013  0.7246158E+02  0.7816164E-02  0.1226708E+00
        -11   -1    0    0    0    0  0.00000000000E+00  0.00000000000E+00  0.45593999997E+02  0.45594000000E+02  0.51100000000E-03 0. -1.
         11   -1    0    0    0    0 -0.00000000000E+00 -0.00000000000E+00 -0.45593999997E+02  0.45594000000E+02  0.51100000000E-03 0.  1.
    9900012    2    1    2    0    0  0.17051163915E+02 -0.77176790835E+01 -0.61165266105E+00  0.72461578018E+02  0.70000010061E+02 0.  0.
         12    1    1    2    0    0 -0.17051163915E+02  0.77176790835E+01  0.61165266105E+00  0.18726421982E+02  0.00000000000E+00 0. -1.
         11    1    3    3    0    0  0.21689287393E+02  0.89585692100E+01 -0.16498754323E+02  0.28686060106E+02  0.51100000000E-03 0. -1.
        -11    1    3    3    0    0  0.84544494357E+01  0.87584085843E+01  0.52106934381E+01  0.13241554386E+02  0.51100000000E-03 0.  1.
        -12    1    3    3    0    0 -0.13092572914E+02 -0.25434656878E+02  0.10676408224E+02  0.30533963526E+02  0.00000000000E+00 0.  1.
</event>
<event>
 7    1  0.2997813E-013  0.7246153E+02  0.7816164E-02  0.1226708E+00
        -11   -1    0    0    0    0  0.00000000000E+00  0.00000000000E+00  0.45593999997E+02  0.45594000000E+02  0.51100000000E-03 0. -1.
         11   -1    0    0    0    0 -0.00000000000E+00 -0.00000000000E+00 -0.45593999997E+02  0.45594000000E+02  0.51100000000E-03 0.  1.
    9900012    2    1    2    0    0 -0.13031689824E+02  0.65681464814E+01 -0.11735204458E+02  0.72461534463E+02  0.69999953323E+02 0.  0.
         12    1    1    2    0    0  0.13031689824E+02 -0.65681464814E+01  0.11735204458E+02  0.18726465537E+02  0.00000000000E+00 0. -1.
         11    1    3    3    0    0  0.16750837067E+02 -0.16035415616E+01  0.15279267968E+02  0.22729230473E+02  0.51100000000E-03 0. -1.
        -11    1    3    3    0    0 -0.12916587455E+02  0.54118848937E+01  0.37867295800E+01  0.14507448113E+02  0.51100000000E-03 0.  1.
        -12    1    3    3    0    0 -0.16865939436E+02  0.27598031493E+01 -0.30801202006E+02  0.35224855876E+02  0.00000000000E+00 0.  1.
</event>
<event>
 7    1  0.3521723E-013  0.7246159E+02  0.7816164E-02  0.1226708E+00
        -11   -1    0    0    0    0  0.00000000000E+00  0.00000000000E+00  0.45593999997E+02  0.45594000000E+02  0.51100000000E-03 0. -1.
         11   -1    0    0    0    0 -0.00000000000E+00 -0.00000000000E+00 -0.45593999997E+02  0.45594000000E+02  0.51100000000E-03 0.  1.
    9900012    2    1    2    0    0  0.60200590870E+00  0.92187795415E+01 -0.16288958461E+02  0.72461588836E+02  0.70000024154E+02 0.  0.
         12    1    1    2    0    0 -0.60200590870E+00 -0.92187795415E+01  0.16288958461E+02  0.18726411164E+02  0.00000000000E+00 0. -1.
         11    1    3    3    0    0  0.16420646830E+02 -0.19245782740E+02 -0.13858558398E+02  0.28846099160E+02  0.51100000000E-03 0.  1.
        -11    1    3    3    0    0 -0.12178493306E+02  0.53761295891E+01 -0.12410861530E+02  0.18200218481E+02  0.51100000000E-03 0. -1.
        -12    1    3    3    0    0 -0.36401476146E+01  0.23088432692E+02  0.99804614676E+01  0.25415271196E+02  0.00000000000E+00 0.  1.
</event>
<event>
 7    1  0.2976321E-013  0.7246153E+02  0.7816164E-02  0.1226708E+00
        -11   -1    0    0    0    0  0.00000000000E+00  0.00000000000E+00  0.45593999997E+02  0.45594000000E+02  0.51100000000E-03 0. -1.
         11   -1    0    0    0    0 -0.00000000000E+00 -0.00000000000E+00 -0.45593999997E+02  0.45594000000E+02  0.51100000000E-03 0.  1.
    9900012    2    1    2    0    0  0.38419105790E+00  0.11671578225E+02 -0.14639236457E+02  0.72461532499E+02  0.69999950764E+02 0.  0.
         12    1    1    2    0    0 -0.38419105790E+00 -0.11671578225E+02  0.14639236457E+02  0.18726467501E+02  0.00000000000E+00 0. -1.
         11    1    3    3    0    0  0.13505382089E+02  0.19405607274E+02 -0.21951607184E+01  0.23744297629E+02  0.51100000000E-03 0. -1.
        -11    1    3    3    0    0 -0.27440526617E+01  0.13919675737E+02  0.87676655365E+01  0.16678104114E+02  0.51100000000E-03 0.  1.
        -12    1    3    3    0    0 -0.10377138369E+02 -0.21653704785E+02 -0.21211741275E+02  0.32039130756E+02  0.00000000000E+00 0.  1.
</event>
<event>
 7    1  0.2976321E-013  0.7246154E+02  0.7816164E-02  0.1226708E+00
        -11   -1    0    0    0    0  0.00000000000E+00  0.00000000000E+00  0.45593999997E+02  0.45594000000E+02  0.51100000000E-03 0.  1.
         11   -1    0    0    0    0 -0.00000000000E+00 -0.00000000000E+00 -0.45593999997E+02  0.45594000000E+02  0.51100000000E-03 0. -1.
    9900012    2    1    2    0    0  0.78079673734E+01  0.79297970568E+01  0.15061023517E+02  0.72461535698E+02  0.69999954932E+02 0.  0.
         12    1    1    2    0    0 -0.78079673734E+01 -0.79297970568E+01 -0.15061023517E+02  0.18726464302E+02  0.00000000000E+00 0. -1.
         11    1    3    3    0    0  0.10843609910E+02 -0.12560512693E+02 -0.18320505475E+02  0.24718237723E+02  0.51100000000E-03 0. -1.
        -11    1    3    3    0    0  0.20953170944E+01 -0.39107681242E+00 -0.40492094697E+01  0.45759580844E+01  0.51100000000E-03 0.  1.
        -12    1    3    3    0    0 -0.51309596312E+01  0.20881386562E+02  0.37430738462E+02  0.43167339891E+02  0.00000000000E+00 0.  1.
</event>
<event>
 7    1  0.2976321E-013  0.7246156E+02  0.7816164E-02  0.1226708E+00
        -11   -1    0    0    0    0  0.00000000000E+00  0.00000000000E+00  0.45593999997E+02  0.45594000000E+02  0.51100000000E-03 0.  1.
         11   -1    0    0    0    0 -0.00000000000E+00 -0.00000000000E+00 -0.45593999997E+02  0.45594000000E+02  0.51100000000E-03 0. -1.
    9900012    2    1    2    0    0  0.13145160223E+02 -0.96155361036E+01 -0.92425973424E+01  0.72461564742E+02  0.69999992767E+02 0.  0.
         12    1    1    2    0    0 -0.13145160223E+02  0.96155361036E+01  0.92425973424E+01  0.18726435258E+02  0.00000000000E+00 0. -1.
         11    1    3    3    0    0 -0.14026476498E+02  0.79505894483E+01 -0.14456163839E+02  0.21654897569E+02  0.51100000000E-03 0. -1.
        -11    1    3    3    0    0  0.33611264372E+01 -0.47023655838E+01  0.19405527837E+02  0.20248059757E+02  0.51100000000E-03 0.  1.
        -12    1    3    3    0    0  0.23810510284E+02 -0.12863759968E+02 -0.14191961340E+02  0.30558607416E+02  0.00000000000E+00 0.  1.
</event>
<event>
 7    1  0.2976321E-013  0.7246156E+02  0.7816164E-02  0.1226708E+00
        -11   -1    0    0    0    0  0.00000000000E+00  0.00000000000E+00  0.45593999997E+02  0.45594000000E+02  0.51100000000E-03 0. -1.
         11   -1    0    0    0    0 -0.00000000000E+00 -0.00000000000E+00 -0.45593999997E+02  0.45594000000E+02  0.51100000000E-03 0.  1.
    9900012    2    1    2    0    0  0.68075325277E+01  0.16757811932E+02 -0.48489801568E+01  0.72461564983E+02  0.69999993081E+02 0.  0.
         12    1    1    2    0    0 -0.68075325277E+01 -0.16757811932E+02  0.48489801568E+01  0.18726435017E+02  0.00000000000E+00 0. -1.
         11    1    3    3    0    0  0.15333090848E+02  0.58712559675E+01  0.23408476920E+02  0.28592518489E+02  0.51100000000E-03 0. -1.
        -11    1    3    3    0    0  0.39964578358E+01 -0.73051508744E+01 -0.42325940694E+00  0.83376287588E+01  0.51100000000E-03 0.  1.
        -12    1    3    3    0    0 -0.12522016156E+02  0.18191706839E+02 -0.27834197670E+02  0.35531417735E+02  0.00000000000E+00 0.  1.
</event>
<event>
 7    1  0.2976321E-013  0.7246151E+02  0.7816164E-02  0.1226708E+00
        -11   -1    0    0    0    0  0.00000000000E+00  0.00000000000E+00  0.45593999997E+02  0.45594000000E+02  0.51100000000E-03 0.  1.
         11   -1    0    0    0    0 -0.00000000000E+00 -0.00000000000E+00 -0.45593999997E+02  0.45594000000E+02  0.51100000000E-03 0. -1.
    9900012    2    1    2    0    0 -0.46122316867E+01 -0.46848932261E+01  0.17534548241E+02  0.72461513739E+02  0.69999926326E+02 0.  0.
         12    1    1    2    0    0  0.46122316867E+01  0.46848932261E+01 -0.17534548241E+02  0.18726486261E+02  0.00000000000E+00 0. -1.
         11    1    3    3    0    0  0.10332109865E+02  0.95874044414E+01 -0.32307288548E+01  0.14460581848E+02  0.51100000000E-03 0. -1.
        -11    1    3    3    0    0  0.48706025917E+00  0.14093917255E+02 -0.66958938270E+01  0.15611237161E+02  0.51100000000E-03 0.  1.
         12    1    3    3    0    0 -0.15431401811E+02 -0.28366214922E+02  0.27461170923E+02  0.42389694730E+02  0.00000000000E+00 0. -1.
</event>
<event>
 7    1  0.2976321E-013  0.7246185E+02  0.7816164E-02  0.1226707E+00
        -11   -1    0    0    0    0  0.00000000000E+00  0.00000000000E+00  0.45593999997E+02  0.45594000000E+02  0.51100000000E-03 0.  1.
         11   -1    0    0    0    0 -0.00000000000E+00 -0.00000000000E+00 -0.45593999997E+02  0.45594000000E+02  0.51100000000E-03 0. -1.
    9900012    2    1    2    0    0 -0.65635401294E+01 -0.30452255741E+01  0.17271806617E+02  0.72461848190E+02  0.70000362009E+02 0.  0.
         12    1    1    2    0    0  0.65635401294E+01  0.30452255741E+01 -0.17271806617E+02  0.18726151810E+02  0.00000000000E+00 0. -1.
         11    1    3    3    0    0 -0.78989772920E+01  0.22711931214E+02  0.91386430458E+01  0.25724316487E+02  0.51100000000E-03 0. -1.
        -11    1    3    3    0    0 -0.13904799800E+02 -0.17410133707E+02 -0.73515639520E+01  0.23462772768E+02  0.51100000000E-03 0.  1.
         12    1    3    3    0    0  0.15240236963E+02 -0.83470230817E+01  0.15484727523E+02  0.23274758934E+02  0.00000000000E+00 0. -1.
</event>
<event>
 7    1  0.2976321E-013  0.7246134E+02  0.7816164E-02  0.1226709E+00
        -11   -1    0    0    0    0  0.00000000000E+00  0.00000000000E+00  0.45593999997E+02  0.45594000000E+02  0.51100000000E-03 0.  1.
         11   -1    0    0    0    0 -0.00000000000E+00 -0.00000000000E+00 -0.45593999997E+02  0.45594000000E+02  0.51100000000E-03 0. -1.
    9900012    2    1    2    0    0  0.23056111124E+01  0.18426188689E+02  0.24181622861E+01  0.72461340366E+02  0.69999700476E+02 0.  0.
         12    1    1    2    0    0 -0.23056111124E+01 -0.18426188689E+02 -0.24181622861E+01  0.18726659634E+02  0.00000000000E+00 0. -1.
         11    1    3    3    0    0 -0.64345525836E+01 -0.84508901359E-01  0.10473997984E+02  0.12292893994E+02  0.51100000000E-03 0.  1.
        -11    1    3    3    0    0  0.32286513829E+02  0.14120006087E+02 -0.83481958974E+01  0.36214443556E+02  0.51100000000E-03 0. -1.
         12    1    3    3    0    0 -0.23546350133E+02  0.43906915034E+01  0.29236019946E+00  0.23954002817E+02  0.00000000000E+00 0. -1.
</event>
<event>
 7    1  0.2976321E-013  0.7246162E+02  0.7816164E-02  0.1226708E+00
        -11   -1    0    0    0    0  0.00000000000E+00  0.00000000000E+00  0.45593999997E+02  0.45594000000E+02  0.51100000000E-03 0. -1.
         11   -1    0    0    0    0 -0.00000000000E+00 -0.00000000000E+00 -0.45593999997E+02  0.45594000000E+02  0.51100000000E-03 0.  1.
    9900012    2    1    2    0    0  0.18718912497E+02  0.12156502808E+00 -0.51480554490E+00  0.72461615195E+02  0.70000058491E+02 0.  0.
         12    1    1    2    0    0 -0.18718912497E+02 -0.12156502808E+00  0.51480554490E+00  0.18726384805E+02  0.00000000000E+00 0. -1.
         11    1    3    3    0    0  0.39762789708E+02 -0.97513882760E+01 -0.80603324450E+01  0.41726945468E+02  0.51100000000E-03 0. -1.
        -11    1    3    3    0    0  0.26063617946E+01 -0.18281759456E+01  0.20362445385E+01  0.37791058697E+01  0.51100000000E-03 0.  1.
        -12    1    3    3    0    0 -0.23650239006E+02  0.11701129250E+02  0.55092823616E+01  0.26955563858E+02  0.00000000000E+00 0.  1.
</event>
<event>
 7    1  0.2976321E-013  0.7246157E+02  0.7816164E-02  0.1226708E+00
        -11   -1    0    0    0    0  0.00000000000E+00  0.00000000000E+00  0.45593999997E+02  0.45594000000E+02  0.51100000000E-03 0.  1.
         11   -1    0    0    0    0 -0.00000000000E+00 -0.00000000000E+00 -0.45593999997E+02  0.45594000000E+02  0.51100000000E-03 0. -1.
    9900012    2    1    2    0    0 -0.96611560635E+01  0.12467511073E+02 -0.10094673516E+02  0.72461569421E+02  0.69999998862E+02 0.  0.
         12    1    1    2    0    0  0.96611560635E+01 -0.12467511073E+02  0.10094673516E+02  0.18726430579E+02  0.00000000000E+00 0. -1.
         11    1    3    3    0    0 -0.25175373178E+02 -0.87177406033E+01 -0.19369966069E+02  0.32939247133E+02  0.51100000000E-03 0. -1.
        -11    1    3    3    0    0 -0.35357424943E+01 -0.47283484308E+01  0.34453479645E+01  0.68358742474E+01  0.51100000000E-03 0.  1.
        -12    1    3    3    0    0  0.19049959609E+02  0.25913600107E+02  0.58299445883E+01  0.32686448041E+02  0.00000000000E+00 0.  1.
</event>
<event>
 7    1  0.2976321E-013  0.7246154E+02  0.7816164E-02  0.1226708E+00
        -11   -1    0    0    0    0  0.00000000000E+00  0.00000000000E+00  0.45593999997E+02  0.45594000000E+02  0.51100000000E-03 0. -1.
         11   -1    0    0    0    0 -0.00000000000E+00 -0.00000000000E+00 -0.45593999997E+02  0.45594000000E+02  0.51100000000E-03 0.  1.
    9900012    2    1    2    0    0  0.14205233180E+01 -0.14896590387E+02  0.11258510971E+02  0.72461538483E+02  0.69999958560E+02 0.  0.
         12    1    1    2    0    0 -0.14205233180E+01  0.14896590387E+02 -0.11258510971E+02  0.18726461517E+02  0.00000000000E+00 0. -1.
         11    1    3    3    0    0  0.25756638046E+01 -0.32857117232E+01  0.21633190480E+01  0.47021160265E+01  0.51100000000E-03 0. -1.
        -11    1    3    3    0    0  0.14164794382E+02 -0.35248691364E+02  0.10936161255E+02  0.39531142989E+02  0.51100000000E-03 0.  1.
         12    1    3    3    0    0 -0.15319934868E+02  0.23637812700E+02 -0.18409693312E+01  0.28228279468E+02  0.00000000000E+00 0. -1.
</event>
<event>
 7    1  0.2976321E-013  0.7246158E+02  0.7816164E-02  0.1226708E+00
        -11   -1    0    0    0    0  0.00000000000E+00  0.00000000000E+00  0.45593999997E+02  0.45594000000E+02  0.51100000000E-03 0.  1.
         11   -1    0    0    0    0 -0.00000000000E+00 -0.00000000000E+00 -0.45593999997E+02  0.45594000000E+02  0.51100000000E-03 0. -1.
    9900012    2    1    2    0    0  0.12048617451E+02  0.13587718867E+02  0.45698327665E+01  0.72461583952E+02  0.70000017791E+02 0.  0.
         12    1    1    2    0    0 -0.12048617451E+02 -0.13587718867E+02 -0.45698327665E+01  0.18726416048E+02  0.00000000000E+00 0. -1.
         11    1    3    3    0    0 -0.16337641143E+02  0.11679679286E+02  0.24196375977E+02  0.31445159198E+02  0.51100000000E-03 0. -1.
        -11    1    3    3    0    0 -0.33035617011E+01  0.27390329953E+01 -0.18660768688E+01  0.46795368150E+01  0.51100000000E-03 0.  1.
        -12    1    3    3    0    0  0.31689820295E+02 -0.83099341378E+00 -0.17760466341E+02  0.36336887939E+02  0.00000000000E+00 0.  1.
</event>
<event>
 7    1  0.2976321E-013  0.7246157E+02  0.7816164E-02  0.1226708E+00
        -11   -1    0    0    0    0  0.00000000000E+00  0.00000000000E+00  0.45593999997E+02  0.45594000000E+02  0.51100000000E-03 0. -1.
         11   -1    0    0    0    0 -0.00000000000E+00 -0.00000000000E+00 -0.45593999997E+02  0.45594000000E+02  0.51100000000E-03 0.  1.
    9900012    2    1    2    0    0 -0.16626088998E+02 -0.85882472769E+01 -0.70302573328E+00  0.72461572902E+02  0.70000003397E+02 0.  0.
         12    1    1    2    0    0  0.16626088998E+02  0.85882472769E+01  0.70302573328E+00  0.18726427098E+02  0.00000000000E+00 0. -1.
         11    1    3    3    0    0  0.85542879789E+01  0.13372705197E+02 -0.14760031853E+01  0.15943138737E+02  0.51100000000E-03 0. -1.
        -11    1    3    3    0    0 -0.13311396486E+02  0.13476160431E+02 -0.19800667884E+01  0.19045231453E+02  0.51100000000E-03 0.  1.
        -12    1    3    3    0    0 -0.11868980491E+02 -0.35437112905E+02  0.27530442404E+01  0.37473202712E+02  0.00000000000E+00 0.  1.
</event>
<event>
 7    1  0.2976321E-013  0.7246158E+02  0.7816164E-02  0.1226708E+00
        -11   -1    0    0    0    0  0.00000000000E+00  0.00000000000E+00  0.45593999997E+02  0.45594000000E+02  0.51100000000E-03 0.  1.
         11   -1    0    0    0    0 -0.00000000000E+00 -0.00000000000E+00 -0.45593999997E+02  0.45594000000E+02  0.51100000000E-03 0. -1.
    9900012    2    1    2    0    0 -0.35942641861E+01  0.14731556054E+02  0.10988241418E+02  0.72461576736E+02  0.70000008391E+02 0.  0.
         12    1    1    2    0    0  0.35942641861E+01 -0.14731556054E+02 -0.10988241418E+02  0.18726423264E+02  0.00000000000E+00 0. -1.
         11    1    3    3    0    0 -0.26703021303E+02  0.34423816409E+01  0.20915365038E+02  0.34093310678E+02  0.51100000000E-03 0. -1.
        -11    1    3    3    0    0 -0.13849265449E+01  0.12364437705E+02 -0.47004710575E+01  0.13300066531E+02  0.51100000000E-03 0.  1.
         12    1    3    3    0    0  0.24493683662E+02 -0.10752632918E+01 -0.52266525623E+01  0.25068199526E+02  0.00000000000E+00 0. -1.
</event>
<event>
 7    1  0.2976321E-013  0.7246157E+02  0.7816164E-02  0.1226708E+00
        -11   -1    0    0    0    0  0.00000000000E+00  0.00000000000E+00  0.45593999997E+02  0.45594000000E+02  0.51100000000E-03 0. -1.
         11   -1    0    0    0    0 -0.00000000000E+00 -0.00000000000E+00 -0.45593999997E+02  0.45594000000E+02  0.51100000000E-03 0.  1.
    9900012    2    1    2    0    0  0.11178299516E+02 -0.13350527196E+02  0.68911738634E+01  0.72461568581E+02  0.69999997768E+02 0.  0.
         12    1    1    2    0    0 -0.11178299516E+02  0.13350527196E+02 -0.68911738634E+01  0.18726431419E+02  0.00000000000E+00 0. -1.
         11    1    3    3    0    0  0.13981724973E+02 -0.31379689112E+02  0.17631866063E+02  0.38614197171E+02  0.51100000000E-03 0.  1.
        -11    1    3    3    0    0 -0.76704391530E+01 -0.40219909706E+01  0.39327453890E+00  0.86698738913E+01  0.51100000000E-03 0. -1.
        -12    1    3    3    0    0  0.48670136962E+01  0.22051152888E+02 -0.11133966738E+02  0.25177497519E+02  0.00000000000E+00 0.  1.
</event>
<event>
 7    1  0.2976321E-013  0.7246151E+02  0.7816164E-02  0.1226708E+00
        -11   -1    0    0    0    0  0.00000000000E+00  0.00000000000E+00  0.45593999997E+02  0.45594000000E+02  0.51100000000E-03 0.  1.
         11   -1    0    0    0    0 -0.00000000000E+00 -0.00000000000E+00 -0.45593999997E+02  0.45594000000E+02  0.51100000000E-03 0. -1.
    9900012    2    1    2    0    0  0.29418145169E+01 -0.18204306361E+02  0.32604208719E+01  0.72461511087E+02  0.69999922871E+02 0.  0.
         12    1    1    2    0    0 -0.29418145169E+01  0.18204306361E+02 -0.32604208719E+01  0.18726488913E+02  0.00000000000E+00 0. -1.
         11    1    3    3    0    0  0.12915352269E+02  0.91013007565E+01  0.11188386698E+02  0.19360268512E+02  0.51100000000E-03 0. -1.
        -11    1    3    3    0    0  0.15970415508E+01 -0.22087571029E+02  0.15102431064E+02  0.26804752563E+02  0.51100000000E-03 0.  1.
         12    1    3    3    0    0 -0.11570579303E+02 -0.52180360887E+01 -0.23030396889E+02  0.26296490011E+02  0.00000000000E+00 0. -1.
</event>
<event>
 7    1  0.2976321E-013  0.7246155E+02  0.7816164E-02  0.1226708E+00
        -11   -1    0    0    0    0  0.00000000000E+00  0.00000000000E+00  0.45593999997E+02  0.45594000000E+02  0.51100000000E-03 0.  1.
         11   -1    0    0    0    0 -0.00000000000E+00 -0.00000000000E+00 -0.45593999997E+02  0.45594000000E+02  0.51100000000E-03 0. -1.
    9900012    2    1    2    0    0  0.11224797543E+02  0.14470171775E+02  0.39112552058E+01  0.72461551635E+02  0.69999975693E+02 0.  0.
         12    1    1    2    0    0 -0.11224797543E+02 -0.14470171775E+02 -0.39112552058E+01  0.18726448365E+02  0.00000000000E+00 0. -1.
         11    1    3    3    0    0 -0.53988858370E+01  0.38310636255E+01  0.36384151446E+01  0.75540109749E+01  0.51100000000E-03 0. -1.
        -11    1    3    3    0    0 -0.23542506994E+00  0.35046587979E+02  0.26563952871E+01  0.35147904491E+02  0.51100000000E-03 0.  1.
         12    1    3    3    0    0  0.16859108450E+02 -0.24407479830E+02 -0.23835552258E+01  0.29759636169E+02  0.00000000000E+00 0. -1.
</event>
<event>
 7    1  0.2976321E-013  0.7246158E+02  0.7816164E-02  0.1226708E+00
        -11   -1    0    0    0    0  0.00000000000E+00  0.00000000000E+00  0.45593999997E+02  0.45594000000E+02  0.51100000000E-03 0.  1.
         11   -1    0    0    0    0 -0.00000000000E+00 -0.00000000000E+00 -0.45593999997E+02  0.45594000000E+02  0.51100000000E-03 0. -1.
    9900012    2    1    2    0    0 -0.18289985344E+02  0.13487319853E+01 -0.37863144229E+01  0.72461579659E+02  0.70000012200E+02 0.  0.
         12    1    1    2    0    0  0.18289985344E+02 -0.13487319853E+01  0.37863144229E+01  0.18726420341E+02  0.00000000000E+00 0. -1.
         11    1    3    3    0    0  0.11068803378E+01 -0.27967737996E+01  0.11486609909E+02  0.11873893010E+02  0.51100000000E-03 0. -1.
        -11    1    3    3    0    0  0.47569875925E+01  0.86995256730E+01  0.17204851655E+02  0.19857431823E+02  0.51100000000E-03 0.  1.
         12    1    3    3    0    0 -0.24153853275E+02 -0.45540198881E+01 -0.32477775986E+02  0.40730254826E+02  0.00000000000E+00 0. -1.
</event>
<event>
 7    1  0.2976321E-013  0.7246171E+02  0.7816164E-02  0.1226708E+00
        -11   -1    0    0    0    0  0.00000000000E+00  0.00000000000E+00  0.45593999997E+02  0.45594000000E+02  0.51100000000E-03 0. -1.
         11   -1    0    0    0    0 -0.00000000000E+00 -0.00000000000E+00 -0.45593999997E+02  0.45594000000E+02  0.51100000000E-03 0.  1.
    9900012    2    1    2    0    0  0.18363027545E+02  0.10433489415E+01 -0.35191786092E+01  0.72461708971E+02  0.70000180651E+02 0.  0.
         12    1    1    2    0    0 -0.18363027545E+02 -0.10433489415E+01  0.35191786092E+01  0.18726291029E+02  0.00000000000E+00 0. -1.
         11    1    3    3    0    0 -0.50017317722E+01  0.48611511650E+01 -0.50499516285E+01  0.86110465729E+01  0.51100000000E-03 0. -1.
        -11    1    3    3    0    0  0.17586823412E+02  0.23920822073E+02 -0.12522599424E+02  0.32222935666E+02  0.51100000000E-03 0.  1.
         12    1    3    3    0    0  0.57779359057E+01 -0.27738624296E+02  0.14053372443E+02  0.31627726732E+02  0.00000000000E+00 0. -1.
</event>
<event>
 7    1  0.2976321E-013  0.7246180E+02  0.7816164E-02  0.1226707E+00
        -11   -1    0    0    0    0  0.00000000000E+00  0.00000000000E+00  0.45593999997E+02  0.45594000000E+02  0.51100000000E-03 0.  1.
         11   -1    0    0    0    0 -0.00000000000E+00 -0.00000000000E+00 -0.45593999997E+02  0.45594000000E+02  0.51100000000E-03 0. -1.
    9900012    2    1    2    0    0  0.47988099568E+01 -0.15812534319E+02  0.88094070674E+01  0.72461802536E+02  0.70000302537E+02 0.  0.
         12    1    1    2    0    0 -0.47988099568E+01  0.15812534319E+02 -0.88094070674E+01  0.18726197464E+02  0.00000000000E+00 0. -1.
         11    1    3    3    0    0 -0.51983470041E+01  0.13271687340E+02 -0.17098846863E+01  0.14355633122E+02  0.51100000000E-03 0. -1.
        -11    1    3    3    0    0 -0.90415132459E+00  0.10683952992E+02  0.12933873732E+02  0.16800280687E+02  0.51100000000E-03 0.  1.
         12    1    3    3    0    0  0.10901308286E+02 -0.39768174651E+02 -0.24145819787E+01  0.41305888727E+02  0.00000000000E+00 0. -1.
</event>
<event>
 7    1  0.2976321E-013  0.7246156E+02  0.7816164E-02  0.1226708E+00
        -11   -1    0    0    0    0  0.00000000000E+00  0.00000000000E+00  0.45593999997E+02  0.45594000000E+02  0.51100000000E-03 0.  1.
         11   -1    0    0    0    0 -0.00000000000E+00 -0.00000000000E+00 -0.45593999997E+02  0.45594000000E+02  0.51100000000E-03 0. -1.
    9900012    2    1    2    0    0 -0.36811730126E+01  0.18360011869E+02 -0.19626541255E+00  0.72461559049E+02  0.69999985351E+02 0.  0.
         12    1    1    2    0    0  0.36811730126E+01 -0.18360011869E+02  0.19626541255E+00  0.18726440951E+02  0.00000000000E+00 0. -1.
         11    1    3    3    0    0  0.71974182256E+01  0.20834906690E+02 -0.24292163701E-01  0.22043065945E+02  0.51100000000E-03 0. -1.
        -11    1    3    3    0    0  0.86983961835E+01 -0.10639903432E+02  0.17889679991E+02  0.22559040132E+02  0.51100000000E-03 0.  1.
         12    1    3    3    0    0 -0.19576987422E+02  0.81650086109E+01 -0.18061653240E+02  0.27859452972E+02  0.00000000000E+00 0. -1.
</event>
<event>
 7    1  0.2976321E-013  0.7246151E+02  0.7816164E-02  0.1226708E+00
        -11   -1    0    0    0    0  0.00000000000E+00  0.00000000000E+00  0.45593999997E+02  0.45594000000E+02  0.51100000000E-03 0.  1.
         11   -1    0    0    0    0 -0.00000000000E+00 -0.00000000000E+00 -0.45593999997E+02  0.45594000000E+02  0.51100000000E-03 0. -1.
    9900012    2    1    2    0    0  0.53967827706E+01 -0.17052604553E+02 -0.55465909588E+01  0.72461514543E+02  0.69999927374E+02 0.  0.
         12    1    1    2    0    0 -0.53967827706E+01  0.17052604553E+02  0.55465909588E+01  0.18726485457E+02  0.00000000000E+00 0. -1.
         11    1    3    3    0    0  0.13137518693E+02 -0.96277822431E+01  0.57346011041E+01  0.17267722444E+02  0.51100000000E-03 0. -1.
        -11    1    3    3    0    0  0.85001208820E+01  0.53948778052E+01  0.17236154326E+02  0.19961006432E+02  0.51100000000E-03 0.  1.
         12    1    3    3    0    0 -0.16240856804E+02 -0.12819700115E+02 -0.28517346389E+02  0.35232785667E+02  0.00000000000E+00 0. -1.
</event>
<event>
 7    1  0.2976321E-013  0.7246161E+02  0.7816164E-02  0.1226708E+00
        -11   -1    0    0    0    0  0.00000000000E+00  0.00000000000E+00  0.45593999997E+02  0.45594000000E+02  0.51100000000E-03 0. -1.
         11   -1    0    0    0    0 -0.00000000000E+00 -0.00000000000E+00 -0.45593999997E+02  0.45594000000E+02  0.51100000000E-03 0.  1.
    9900012    2    1    2    0    0  0.54306456283E+01  0.16147232603E+02  0.77751199960E+01  0.72461614240E+02  0.70000057248E+02 0.  0.
         12    1    1    2    0    0 -0.54306456283E+01 -0.16147232603E+02 -0.77751199960E+01  0.18726385760E+02  0.00000000000E+00 0. -1.
         11    1    3    3    0    0 -0.52204191581E+01  0.27584093431E+02  0.27747379842E+02  0.39472168359E+02  0.51100000000E-03 0. -1.
        -11    1    3    3    0    0  0.32696133617E+01  0.62593054180E+01 -0.47993948382E+01  0.85383527056E+01  0.51100000000E-03 0.  1.
        -12    1    3    3    0    0  0.73814514247E+01 -0.17696166246E+02 -0.15172865008E+02  0.24451093176E+02  0.00000000000E+00 0.  1.
</event>
<event>
 7    1  0.2976321E-013  0.7246159E+02  0.7816164E-02  0.1226708E+00
        -11   -1    0    0    0    0  0.00000000000E+00  0.00000000000E+00  0.45593999997E+02  0.45594000000E+02  0.51100000000E-03 0.  1.
         11   -1    0    0    0    0 -0.00000000000E+00 -0.00000000000E+00 -0.45593999997E+02  0.45594000000E+02  0.51100000000E-03 0. -1.
    9900012    2    1    2    0    0 -0.13761916439E+02  0.12683994078E+02 -0.63603152123E+00  0.72461585876E+02  0.70000020298E+02 0.  0.
         12    1    1    2    0    0  0.13761916439E+02 -0.12683994078E+02  0.63603152123E+00  0.18726414124E+02  0.00000000000E+00 0. -1.
         11    1    3    3    0    0 -0.77370859757E+01  0.63531557681E+01 -0.34991994858E+01  0.10605163125E+02  0.51100000000E-03 0. -1.
        -11    1    3    3    0    0  0.68100181392E+01  0.29982661506E+02 -0.95865290703E+01  0.32206177636E+02  0.51100000000E-03 0.  1.
         12    1    3    3    0    0 -0.12834848603E+02 -0.23651823196E+02  0.12449697035E+02  0.29650245115E+02  0.00000000000E+00 0. -1.
</event>
<event>
 7    1  0.4826679E-013  0.7246154E+02  0.7816164E-02  0.1226708E+00
        -11   -1    0    0    0    0  0.00000000000E+00  0.00000000000E+00  0.45593999997E+02  0.45594000000E+02  0.51100000000E-03 0.  1.
         11   -1    0    0    0    0 -0.00000000000E+00 -0.00000000000E+00 -0.45593999997E+02  0.45594000000E+02  0.51100000000E-03 0. -1.
    9900012    2    1    2    0    0  0.11764895992E+02  0.13040960664E+02  0.64962087979E+01  0.72461543809E+02  0.69999965497E+02 0.  0.
         12    1    1    2    0    0 -0.11764895992E+02 -0.13040960664E+02 -0.64962087979E+01  0.18726456191E+02  0.00000000000E+00 0. -1.
         11    1    3    3    0    0 -0.72902404338E+01  0.16518676830E+02 -0.21270442878E+02  0.27900645697E+02  0.51100000000E-03 0. -1.
        -11    1    3    3    0    0 -0.62404763642E+01  0.50478537009E+01  0.48383925974E+01  0.93720016766E+01  0.51100000000E-03 0.  1.
        -12    1    3    3    0    0  0.25295612790E+02 -0.85255698667E+01  0.22928259079E+02  0.35188896435E+02  0.00000000000E+00 0.  1.
</event>
<event>
 7    1  0.2976321E-013  0.7246164E+02  0.7816164E-02  0.1226708E+00
        -11   -1    0    0    0    0  0.00000000000E+00  0.00000000000E+00  0.45593999997E+02  0.45594000000E+02  0.51100000000E-03 0. -1.
         11   -1    0    0    0    0 -0.00000000000E+00 -0.00000000000E+00 -0.45593999997E+02  0.45594000000E+02  0.51100000000E-03 0.  1.
    9900012    2    1    2    0    0 -0.65815870199E+01 -0.80819249784E+00 -0.17513027009E+02  0.72461639493E+02  0.70000090144E+02 0.  0.
         12    1    1    2    0    0  0.65815870199E+01  0.80819249784E+00  0.17513027009E+02  0.18726360507E+02  0.00000000000E+00 0. -1.
         11    1    3    3    0    0 -0.23533460681E+02 -0.68013922376E+01 -0.23975698543E+01  0.24613635438E+02  0.51100000000E-03 0. -1.
        -11    1    3    3    0    0 -0.88560301688E+01  0.15269669790E+02 -0.87170662099E+01  0.19687034551E+02  0.51100000000E-03 0.  1.
         12    1    3    3    0    0  0.25807903830E+02 -0.92764700502E+01 -0.63983909453E+01  0.28160969504E+02  0.00000000000E+00 0. -1.
</event>
<event>
 7    1  0.2976321E-013  0.7246158E+02  0.7816164E-02  0.1226708E+00
        -11   -1    0    0    0    0  0.00000000000E+00  0.00000000000E+00  0.45593999997E+02  0.45594000000E+02  0.51100000000E-03 0. -1.
         11   -1    0    0    0    0 -0.00000000000E+00 -0.00000000000E+00 -0.45593999997E+02  0.45594000000E+02  0.51100000000E-03 0.  1.
    9900012    2    1    2    0    0 -0.12503127282E+02 -0.80518650918E+01  0.11380596109E+02  0.72461583069E+02  0.70000016641E+02 0.  0.
         12    1    1    2    0    0  0.12503127282E+02  0.80518650918E+01 -0.11380596109E+02  0.18726416931E+02  0.00000000000E+00 0. -1.
         11    1    3    3    0    0 -0.18332581725E+02 -0.21906946375E+02 -0.50937769119E+01  0.29016278460E+02  0.51100000000E-03 0. -1.
        -11    1    3    3    0    0 -0.12378211108E+02  0.31055188768E+01 -0.46255723519E+01  0.13574250535E+02  0.51100000000E-03 0.  1.
        -12    1    3    3    0    0  0.18207665551E+02  0.10749562406E+02  0.21099945372E+02  0.29871054074E+02  0.00000000000E+00 0.  1.
</event>
<event>
 7    1  0.2976321E-013  0.7246157E+02  0.7816164E-02  0.1226708E+00
        -11   -1    0    0    0    0  0.00000000000E+00  0.00000000000E+00  0.45593999997E+02  0.45594000000E+02  0.51100000000E-03 0.  1.
         11   -1    0    0    0    0 -0.00000000000E+00 -0.00000000000E+00 -0.45593999997E+02  0.45594000000E+02  0.51100000000E-03 0. -1.
    9900012    2    1    2    0    0 -0.11878687258E+02  0.14260586125E+02  0.24922885669E+01  0.72461574022E+02  0.70000004857E+02 0.  0.
         12    1    1    2    0    0  0.11878687258E+02 -0.14260586125E+02 -0.24922885669E+01  0.18726425978E+02  0.00000000000E+00 0. -1.
         11    1    3    3    0    0 -0.72852985452E+01  0.14068236998E+02  0.16512137022E+01  0.15928508219E+02  0.51100000000E-03 0. -1.
        -11    1    3    3    0    0 -0.17257259247E+02  0.18794052055E+02  0.15332276326E+02  0.29767567704E+02  0.51100000000E-03 0.  1.
         12    1    3    3    0    0  0.12663870535E+02 -0.18601702928E+02 -0.14491201462E+02  0.26765498100E+02  0.00000000000E+00 0. -1.
</event>
<event>
 7    1  0.2976321E-013  0.7246156E+02  0.7816164E-02  0.1226708E+00
        -11   -1    0    0    0    0  0.00000000000E+00  0.00000000000E+00  0.45593999997E+02  0.45594000000E+02  0.51100000000E-03 0.  1.
         11   -1    0    0    0    0 -0.00000000000E+00 -0.00000000000E+00 -0.45593999997E+02  0.45594000000E+02  0.51100000000E-03 0. -1.
    9900012    2    1    2    0    0 -0.39247639680E+00 -0.18718801418E+02 -0.36321370987E+00  0.72461561779E+02  0.69999988907E+02 0.  0.
         12    1    1    2    0    0  0.39247639680E+00  0.18718801418E+02  0.36321370987E+00  0.18726438221E+02  0.00000000000E+00 0. -1.
         11    1    3    3    0    0  0.12078813856E+02  0.20039225435E+02 -0.52726864775E+01  0.23984776904E+02  0.51100000000E-03 0. -1.
        -11    1    3    3    0    0  0.68018799817E+01 -0.56245641733E+01  0.50029134628E+01  0.10145463853E+02  0.51100000000E-03 0.  1.
         12    1    3    3    0    0 -0.19273170235E+02 -0.33133462680E+02 -0.93440695180E-01  0.38331321021E+02  0.00000000000E+00 0. -1.
</event>
<event>
 7    1  0.2976321E-013  0.7246155E+02  0.7816164E-02  0.1226708E+00
        -11   -1    0    0    0    0  0.00000000000E+00  0.00000000000E+00  0.45593999997E+02  0.45594000000E+02  0.51100000000E-03 0. -1.
         11   -1    0    0    0    0 -0.00000000000E+00 -0.00000000000E+00 -0.45593999997E+02  0.45594000000E+02  0.51100000000E-03 0.  1.
    9900012    2    1    2    0    0 -0.16349428980E+02  0.89188300524E+01  0.19572006777E+01  0.72461548335E+02  0.69999971394E+02 0.  0.
         12    1    1    2    0    0  0.16349428980E+02 -0.89188300524E+01 -0.19572006777E+01  0.18726451665E+02  0.00000000000E+00 0. -1.
         11    1    3    3    0    0 -0.19869988459E+02  0.11590733945E+02 -0.11013740274E+02  0.25504196318E+02  0.51100000000E-03 0. -1.
        -11    1    3    3    0    0  0.55317024115E+01  0.19678322984E+02 -0.10993048032E+01  0.20470578848E+02  0.51100000000E-03 0.  1.
         12    1    3    3    0    0 -0.20111429329E+01 -0.22350226877E+02  0.14070245755E+02  0.26486773169E+02  0.00000000000E+00 0. -1.
</event>
<event>
 7    1  0.2976321E-013  0.7246152E+02  0.7816164E-02  0.1226708E+00
        -11   -1    0    0    0    0  0.00000000000E+00  0.00000000000E+00  0.45593999997E+02  0.45594000000E+02  0.51100000000E-03 0.  1.
         11   -1    0    0    0    0 -0.00000000000E+00 -0.00000000000E+00 -0.45593999997E+02  0.45594000000E+02  0.51100000000E-03 0. -1.
    9900012    2    1    2    0    0  0.18071631620E+02  0.47027001266E+01  0.14077643250E+01  0.72461519864E+02  0.69999934305E+02 0.  0.
         12    1    1    2    0    0 -0.18071631620E+02 -0.47027001266E+01 -0.14077643250E+01  0.18726480136E+02  0.00000000000E+00 0. -1.
         11    1    3    3    0    0  0.10036987567E+02 -0.16884562749E+01  0.24358644312E+02  0.26399537060E+02  0.51100000000E-03 0. -1.
        -11    1    3    3    0    0  0.17659483468E+02 -0.92786647919E+01 -0.54595182546E+01  0.20682294759E+02  0.51100000000E-03 0.  1.
         12    1    3    3    0    0 -0.96248394146E+01  0.15669821193E+02 -0.17491361732E+02  0.25379688044E+02  0.00000000000E+00 0. -1.
</event>
<event>
 7    1  0.2976321E-013  0.7246159E+02  0.7816164E-02  0.1226708E+00
        -11   -1    0    0    0    0  0.00000000000E+00  0.00000000000E+00  0.45593999997E+02  0.45594000000E+02  0.51100000000E-03 0.  1.
         11   -1    0    0    0    0 -0.00000000000E+00 -0.00000000000E+00 -0.45593999997E+02  0.45594000000E+02  0.51100000000E-03 0. -1.
    9900012    2    1    2    0    0  0.54956184808E+00  0.12271466348E+02  0.14134628104E+02  0.72461585068E+02  0.70000019245E+02 0.  0.
         12    1    1    2    0    0 -0.54956184808E+00 -0.12271466348E+02 -0.14134628104E+02  0.18726414932E+02  0.00000000000E+00 0. -1.
         11    1    3    3    0    0 -0.64252023778E+01 -0.23498711890E+01 -0.11977966492E+02  0.13794085752E+02  0.51100000000E-03 0. -1.
        -11    1    3    3    0    0 -0.14536018701E+02 -0.11382995395E+02  0.12397772173E+02  0.22239001303E+02  0.51100000000E-03 0.  1.
         12    1    3    3    0    0  0.21510782927E+02  0.26004332932E+02  0.13714822423E+02  0.36428498013E+02  0.00000000000E+00 0. -1.
</event>
<event>
 7    1  0.2976321E-013  0.7246154E+02  0.7816164E-02  0.1226708E+00
        -11   -1    0    0    0    0  0.00000000000E+00  0.00000000000E+00  0.45593999997E+02  0.45594000000E+02  0.51100000000E-03 0. -1.
         11   -1    0    0    0    0 -0.00000000000E+00 -0.00000000000E+00 -0.45593999997E+02  0.45594000000E+02  0.51100000000E-03 0.  1.
    9900012    2    1    2    0    0 -0.45909391526E+01 -0.18132968830E+02  0.89393031991E+00  0.72461537646E+02  0.69999957469E+02 0.  0.
         12    1    1    2    0    0  0.45909391526E+01  0.18132968830E+02 -0.89393031991E+00  0.18726462354E+02  0.00000000000E+00 0. -1.
         11    1    3    3    0    0  0.10263100225E+01 -0.32684981395E+02  0.34041928218E+01  0.32877801783E+02  0.51100000000E-03 0. -1.
        -11    1    3    3    0    0  0.99070540271E+01 -0.72304064960E+01 -0.36939910417E+01  0.12809140005E+02  0.51100000000E-03 0.  1.
         12    1    3    3    0    0 -0.15524303202E+02  0.21782419061E+02  0.11837285397E+01  0.26774595857E+02  0.00000000000E+00 0. -1.
</event>
<event>
 7    1  0.2976321E-013  0.7246155E+02  0.7816164E-02  0.1226708E+00
        -11   -1    0    0    0    0  0.00000000000E+00  0.00000000000E+00  0.45593999997E+02  0.45594000000E+02  0.51100000000E-03 0. -1.
         11   -1    0    0    0    0 -0.00000000000E+00 -0.00000000000E+00 -0.45593999997E+02  0.45594000000E+02  0.51100000000E-03 0.  1.
    9900012    2    1    2    0    0 -0.11794907400E+02 -0.13146827252E+02  0.62226164175E+01  0.72461551793E+02  0.69999975899E+02 0.  0.
         12    1    1    2    0    0  0.11794907400E+02  0.13146827252E+02 -0.62226164175E+01  0.18726448207E+02  0.00000000000E+00 0. -1.
         11    1    3    3    0    0 -0.19074837443E+02  0.38304679020E+01 -0.11220218994E+02  0.22459190154E+02  0.51100000000E-03 0. -1.
        -11    1    3    3    0    0  0.21091426999E+01 -0.35837214485E+00 -0.13947037370E+02  0.14110165314E+02  0.51100000000E-03 0.  1.
         12    1    3    3    0    0  0.51707873433E+01 -0.16618923009E+02  0.31389872782E+02  0.35892196325E+02  0.00000000000E+00 0. -1.
</event>
<event>
 7    1  0.2976321E-013  0.7246161E+02  0.7816164E-02  0.1226708E+00
        -11   -1    0    0    0    0  0.00000000000E+00  0.00000000000E+00  0.45593999997E+02  0.45594000000E+02  0.51100000000E-03 0.  1.
         11   -1    0    0    0    0 -0.00000000000E+00 -0.00000000000E+00 -0.45593999997E+02  0.45594000000E+02  0.51100000000E-03 0. -1.
    9900012    2    1    2    0    0 -0.55065009334E+01 -0.61586157958E+01 -0.16805577688E+02  0.72461613737E+02  0.70000056592E+02 0.  0.
         12    1    1    2    0    0  0.55065009334E+01  0.61586157958E+01  0.16805577688E+02  0.18726386263E+02  0.00000000000E+00 0. -1.
         11    1    3    3    0    0 -0.77612910341E+00 -0.23165236504E+02 -0.18308737050E+00  0.23178957697E+02  0.51100000000E-03 0. -1.
        -11    1    3    3    0    0  0.72203287578E+01 -0.10185470619E+02  0.40146991469E+01  0.13114677602E+02  0.51100000000E-03 0.  1.
         12    1    3    3    0    0 -0.11950700588E+02  0.27192091327E+02 -0.20637189465E+02  0.36167978438E+02  0.00000000000E+00 0. -1.
</event>
<event>
 7    1  0.2976321E-013  0.7246156E+02  0.7816164E-02  0.1226708E+00
        -11   -1    0    0    0    0  0.00000000000E+00  0.00000000000E+00  0.45593999997E+02  0.45594000000E+02  0.51100000000E-03 0.  1.
         11   -1    0    0    0    0 -0.00000000000E+00 -0.00000000000E+00 -0.45593999997E+02  0.45594000000E+02  0.51100000000E-03 0. -1.
    9900012    2    1    2    0    0  0.44514043127E+01  0.15151220716E+02  0.10065050886E+02  0.72461555092E+02  0.69999980196E+02 0.  0.
         12    1    1    2    0    0 -0.44514043127E+01 -0.15151220716E+02 -0.10065050886E+02  0.18726444908E+02  0.00000000000E+00 0. -1.
         11    1    3    3    0    0  0.38184210415E+01  0.27699195512E+01  0.52399091408E+01  0.70504922973E+01  0.51100000000E-03 0. -1.
        -11    1    3    3    0    0 -0.38756254388E+01  0.85721523039E+01  0.34189095097E+02  0.35459786963E+02  0.51100000000E-03 0.  1.
         12    1    3    3    0    0  0.45086087100E+01  0.38091488610E+01 -0.29363953351E+02  0.29951275832E+02  0.00000000000E+00 0. -1.
</event>
<event>
 7    1  0.2976321E-013  0.7246135E+02  0.7816164E-02  0.1226709E+00
        -11   -1    0    0    0    0  0.00000000000E+00  0.00000000000E+00  0.45593999997E+02  0.45594000000E+02  0.51100000000E-03 0. -1.
         11   -1    0    0    0    0 -0.00000000000E+00 -0.00000000000E+00 -0.45593999997E+02  0.45594000000E+02  0.51100000000E-03 0.  1.
    9900012    2    1    2    0    0  0.12012406455E+02 -0.14184388752E+02  0.22787339161E+01  0.72461349969E+02  0.69999712985E+02 0.  0.
         12    1    1    2    0    0 -0.12012406455E+02  0.14184388752E+02 -0.22787339161E+01  0.18726650031E+02  0.00000000000E+00 0. -1.
         11    1    3    3    0    0 -0.15900534687E+01  0.47310657861E+00 -0.76063003501E+00  0.18250090902E+01  0.51100000000E-03 0. -1.
        -11    1    3    3    0    0 -0.95370586189E+01 -0.36551936438E+02  0.73683617284E+01  0.38487560319E+02  0.51100000000E-03 0.  1.
         12    1    3    3    0    0  0.23139518542E+02  0.21894441107E+02 -0.43289977774E+01  0.32148780560E+02  0.00000000000E+00 0. -1.
</event>
<event>
 7    1  0.2976321E-013  0.7246094E+02  0.7816164E-02  0.1226710E+00
        -11   -1    0    0    0    0  0.00000000000E+00  0.00000000000E+00  0.45593999997E+02  0.45594000000E+02  0.51100000000E-03 0.  1.
         11   -1    0    0    0    0 -0.00000000000E+00 -0.00000000000E+00 -0.45593999997E+02  0.45594000000E+02  0.51100000000E-03 0. -1.
    9900012    2    1    2    0    0 -0.13836561055E+02  0.11969421974E+02  0.39981584163E+01  0.72460940569E+02  0.69999179661E+02 0.  0.
         12    1    1    2    0    0  0.13836561055E+02 -0.11969421974E+02 -0.39981584163E+01  0.18727059431E+02  0.00000000000E+00 0. -1.
         11    1    3    3    0    0 -0.80434362228E+01  0.11055350688E+02 -0.14793029431E+02  0.20143270964E+02  0.51100000000E-03 0. -1.
        -11    1    3    3    0    0 -0.21218817827E+02  0.35558541661E+01 -0.65882062536E+01  0.22500817557E+02  0.51100000000E-03 0.  1.
        -12    1    3    3    0    0  0.15425692994E+02 -0.26417828804E+01  0.25379394101E+02  0.29816852048E+02  0.00000000000E+00 0.  1.
</event>
<event>
 7    1  0.2976321E-013  0.7246164E+02  0.7816164E-02  0.1226708E+00
        -11   -1    0    0    0    0  0.00000000000E+00  0.00000000000E+00  0.45593999997E+02  0.45594000000E+02  0.51100000000E-03 0.  1.
         11   -1    0    0    0    0 -0.00000000000E+00 -0.00000000000E+00 -0.45593999997E+02  0.45594000000E+02  0.51100000000E-03 0. -1.
    9900012    2    1    2    0    0  0.13683232944E+02 -0.98445671076E+01  0.81566044811E+01  0.72461639916E+02  0.70000090696E+02 0.  0.
         12    1    1    2    0    0 -0.13683232944E+02  0.98445671076E+01 -0.81566044811E+01  0.18726360084E+02  0.00000000000E+00 0. -1.
         11    1    3    3    0    0  0.22930152620E+02 -0.15066201164E+02  0.11543414411E+02  0.29766301974E+02  0.51100000000E-03 0. -1.
        -11    1    3    3    0    0 -0.42122101941E+01 -0.15151379690E+00  0.18826943705E+02  0.19292990454E+02  0.51100000000E-03 0.  1.
         12    1    3    3    0    0 -0.50347094819E+01  0.53731478533E+01 -0.22213753635E+02  0.23402347488E+02  0.00000000000E+00 0. -1.
</event>
<event>
 7    1  0.2976321E-013  0.7246150E+02  0.7816164E-02  0.1226708E+00
        -11   -1    0    0    0    0  0.00000000000E+00  0.00000000000E+00  0.45593999997E+02  0.45594000000E+02  0.51100000000E-03 0. -1.
         11   -1    0    0    0    0 -0.00000000000E+00 -0.00000000000E+00 -0.45593999997E+02  0.45594000000E+02  0.51100000000E-03 0.  1.
    9900012    2    1    2    0    0  0.91213436314E+01  0.54447563996E+01 -0.15421978972E+02  0.72461502268E+02  0.69999911383E+02 0.  0.
         12    1    1    2    0    0 -0.91213436314E+01 -0.54447563996E+01  0.15421978972E+02  0.18726497732E+02  0.00000000000E+00 0. -1.
         11    1    3    3    0    0 -0.38058053632E+01  0.63705894571E+01  0.52577133891E+01  0.90946201040E+01  0.51100000000E-03 0. -1.
        -11    1    3    3    0    0  0.20610276036E+02 -0.38666301993E+01  0.15619125708E+02  0.26147493102E+02  0.51100000000E-03 0.  1.
        -12    1    3    3    0    0 -0.76831270417E+01  0.29407971418E+01 -0.36298818069E+02  0.37219389062E+02  0.00000000000E+00 0.  1.
</event>
<event>
 7    1  0.2976321E-013  0.7246165E+02  0.7816164E-02  0.1226708E+00
        -11   -1    0    0    0    0  0.00000000000E+00  0.00000000000E+00  0.45593999997E+02  0.45594000000E+02  0.51100000000E-03 0.  1.
         11   -1    0    0    0    0 -0.00000000000E+00 -0.00000000000E+00 -0.45593999997E+02  0.45594000000E+02  0.51100000000E-03 0. -1.
    9900012    2    1    2    0    0 -0.53960125057E+01  0.19122420146E+01  0.17829819435E+02  0.72461652744E+02  0.70000107405E+02 0.  0.
         12    1    1    2    0    0  0.53960125057E+01 -0.19122420146E+01 -0.17829819435E+02  0.18726347256E+02  0.00000000000E+00 0. -1.
         11    1    3    3    0    0  0.13042899288E+02  0.17370429251E+01 -0.39835397774E+01  0.13747840899E+02  0.51100000000E-03 0. -1.
        -11    1    3    3    0    0 -0.24968121773E+02  0.19682472384E+02  0.21047150121E+02  0.38128589700E+02  0.51100000000E-03 0.  1.
         12    1    3    3    0    0  0.65292099792E+01 -0.19507273295E+02  0.76620909131E+00  0.20585222144E+02  0.00000000000E+00 0. -1.
</event>
<event>
 7    1  0.2976321E-013  0.7246158E+02  0.7816164E-02  0.1226708E+00
        -11   -1    0    0    0    0  0.00000000000E+00  0.00000000000E+00  0.45593999997E+02  0.45594000000E+02  0.51100000000E-03 0.  1.
         11   -1    0    0    0    0 -0.00000000000E+00 -0.00000000000E+00 -0.45593999997E+02  0.45594000000E+02  0.51100000000E-03 0. -1.
    9900012    2    1    2    0    0 -0.12043485002E+02 -0.36605136837E+00  0.14335248490E+02  0.72461578188E+02  0.70000010283E+02 0.  0.
         12    1    1    2    0    0  0.12043485002E+02  0.36605136837E+00 -0.14335248490E+02  0.18726421812E+02  0.00000000000E+00 0. -1.
         11    1    3    3    0    0  0.16829459004E+02 -0.17049042981E+02 -0.16998801758E+01  0.24016455813E+02  0.51100000000E-03 0. -1.
        -11    1    3    3    0    0 -0.14796535784E+02 -0.23131460044E+01 -0.59926407612E+01  0.16130711677E+02  0.51100000000E-03 0.  1.
        -12    1    3    3    0    0 -0.14076408222E+02  0.18996137617E+02  0.22027769427E+02  0.32314410698E+02  0.00000000000E+00 0.  1.
</event>
<event>
 7    1  0.2976321E-013  0.7246159E+02  0.7816164E-02  0.1226708E+00
        -11   -1    0    0    0    0  0.00000000000E+00  0.00000000000E+00  0.45593999997E+02  0.45594000000E+02  0.51100000000E-03 0.  1.
         11   -1    0    0    0    0 -0.00000000000E+00 -0.00000000000E+00 -0.45593999997E+02  0.45594000000E+02  0.51100000000E-03 0. -1.
    9900012    2    1    2    0    0 -0.88987011499E+01  0.53249399991E+01  0.15592840851E+02  0.72461586730E+02  0.70000021411E+02 0.  0.
         12    1    1    2    0    0  0.88987011499E+01 -0.53249399991E+01 -0.15592840851E+02  0.18726413270E+02  0.00000000000E+00 0. -1.
         11    1    3    3    0    0 -0.43838744417E+01  0.12453556808E+02 -0.40349765429E+00  0.13208794150E+02  0.51100000000E-03 0. -1.
        -11    1    3    3    0    0  0.90319412606E+01  0.22552447917E+02  0.88292064696E+01  0.25848476882E+02  0.51100000000E-03 0.  1.
        -12    1    3    3    0    0 -0.13546767969E+02 -0.29681064725E+02  0.71671320358E+01  0.33404315698E+02  0.00000000000E+00 0.  1.
</event>
<event>
 7    1  0.2976321E-013  0.7246160E+02  0.7816164E-02  0.1226708E+00
        -11   -1    0    0    0    0  0.00000000000E+00  0.00000000000E+00  0.45593999997E+02  0.45594000000E+02  0.51100000000E-03 0.  1.
         11   -1    0    0    0    0 -0.00000000000E+00 -0.00000000000E+00 -0.45593999997E+02  0.45594000000E+02  0.51100000000E-03 0. -1.
    9900012    2    1    2    0    0 -0.14646098873E+02  0.60260784773E+01 -0.99928106954E+01  0.72461598861E+02  0.70000037214E+02 0.  0.
         12    1    1    2    0    0  0.14646098873E+02 -0.60260784773E+01  0.99928106954E+01  0.18726401139E+02  0.00000000000E+00 0. -1.
         11    1    3    3    0    0 -0.10228055536E+02  0.23935112262E+02 -0.26051471492E+02  0.36826374872E+02  0.51100000000E-03 0. -1.
        -11    1    3    3    0    0 -0.15016936785E+02 -0.12892687207E+02  0.77104037045E+01  0.21241000432E+02  0.51100000000E-03 0.  1.
         12    1    3    3    0    0  0.10598893448E+02 -0.50163465777E+01  0.83482570926E+01  0.14394223556E+02  0.00000000000E+00 0. -1.
</event>
<event>
 7    1  0.2976321E-013  0.7246177E+02  0.7816164E-02  0.1226707E+00
        -11   -1    0    0    0    0  0.00000000000E+00  0.00000000000E+00  0.45593999997E+02  0.45594000000E+02  0.51100000000E-03 0. -1.
         11   -1    0    0    0    0 -0.00000000000E+00 -0.00000000000E+00 -0.45593999997E+02  0.45594000000E+02  0.51100000000E-03 0.  1.
    9900012    2    1    2    0    0 -0.16820151521E+02  0.59845284968E+01 -0.56515050455E+01  0.72461772729E+02  0.70000263709E+02 0.  0.
         12    1    1    2    0    0  0.16820151521E+02 -0.59845284968E+01  0.56515050455E+01  0.18726227271E+02  0.00000000000E+00 0. -1.
         11    1    3    3    0    0 -0.21485315630E+02  0.22813667215E+02 -0.47970506077E+01  0.31703215835E+02  0.51100000000E-03 0. -1.
        -11    1    3    3    0    0  0.15283294915E-01  0.11393503019E+02 -0.37848375219E+01  0.12005712805E+02  0.51100000000E-03 0.  1.
        -12    1    3    3    0    0  0.46498808142E+01 -0.28222641737E+02  0.29303830841E+01  0.28752844089E+02  0.00000000000E+00 0.  1.
</event>
<event>
 7    1  0.2976321E-013  0.7246157E+02  0.7816164E-02  0.1226708E+00
        -11   -1    0    0    0    0  0.00000000000E+00  0.00000000000E+00  0.45593999997E+02  0.45594000000E+02  0.51100000000E-03 0.  1.
         11   -1    0    0    0    0 -0.00000000000E+00 -0.00000000000E+00 -0.45593999997E+02  0.45594000000E+02  0.51100000000E-03 0. -1.
    9900012    2    1    2    0    0  0.11975860017E+02  0.64047817029E+01  0.12893287296E+02  0.72461566568E+02  0.69999995145E+02 0.  0.
         12    1    1    2    0    0 -0.11975860017E+02 -0.64047817029E+01 -0.12893287296E+02  0.18726433432E+02  0.00000000000E+00 0. -1.
         11    1    3    3    0    0  0.12753657728E+02 -0.10772422680E+02 -0.13192219312E+02  0.21277582722E+02  0.51100000000E-03 0. -1.
        -11    1    3    3    0    0  0.36075847392E+01 -0.10754673489E+02  0.18848051448E+02  0.21998334327E+02  0.51100000000E-03 0.  1.
         12    1    3    3    0    0 -0.43853824503E+01  0.27931877872E+02  0.72374551604E+01  0.29185649519E+02  0.00000000000E+00 0. -1.
</event>
<event>
 7    1  0.2976321E-013  0.7246157E+02  0.7816164E-02  0.1226708E+00
        -11   -1    0    0    0    0  0.00000000000E+00  0.00000000000E+00  0.45593999997E+02  0.45594000000E+02  0.51100000000E-03 0. -1.
         11   -1    0    0    0    0 -0.00000000000E+00 -0.00000000000E+00 -0.45593999997E+02  0.45594000000E+02  0.51100000000E-03 0.  1.
    9900012    2    1    2    0    0 -0.59664857216E+01 -0.12456487053E+02  0.12645790883E+02  0.72461573522E+02  0.70000004205E+02 0.  0.
         12    1    1    2    0    0  0.59664857216E+01  0.12456487053E+02 -0.12645790883E+02  0.18726426478E+02  0.00000000000E+00 0. -1.
         11    1    3    3    0    0  0.15002919738E+01 -0.15869220779E+02 -0.81330911688E+01  0.17894977406E+02  0.51100000000E-03 0. -1.
        -11    1    3    3    0    0 -0.91855967854E+01 -0.11629951091E+02 -0.11601775090E+02  0.18821055660E+02  0.51100000000E-03 0.  1.
         12    1    3    3    0    0  0.17188190901E+01  0.15042684817E+02  0.32380657142E+02  0.35745540456E+02  0.00000000000E+00 0. -1.
</event>
<event>
 7    1  0.2976321E-013  0.7246159E+02  0.7816164E-02  0.1226708E+00
        -11   -1    0    0    0    0  0.00000000000E+00  0.00000000000E+00  0.45593999997E+02  0.45594000000E+02  0.51100000000E-03 0.  1.
         11   -1    0    0    0    0 -0.00000000000E+00 -0.00000000000E+00 -0.45593999997E+02  0.45594000000E+02  0.51100000000E-03 0. -1.
    9900012    2    1    2    0    0  0.17842671315E+02 -0.41582685365E+01  0.38763966923E+01  0.72461586350E+02  0.70000020916E+02 0.  0.
         12    1    1    2    0    0 -0.17842671315E+02  0.41582685365E+01 -0.38763966923E+01  0.18726413650E+02  0.00000000000E+00 0. -1.
         11    1    3    3    0    0  0.25824420564E+02  0.17701086251E+02  0.17938738825E+02  0.36083618206E+02  0.51100000000E-03 0. -1.
        -11    1    3    3    0    0 -0.69454788280E+01  0.35561700845E+01 -0.12695443501E+01  0.79055527914E+01  0.51100000000E-03 0.  1.
        -12    1    3    3    0    0 -0.10362704216E+01 -0.25415524872E+02 -0.12792797782E+02  0.28472415353E+02  0.00000000000E+00 0.  1.
</event>
<event>
 7    1  0.2976321E-013  0.7246160E+02  0.7816164E-02  0.1226708E+00
        -11   -1    0    0    0    0  0.00000000000E+00  0.00000000000E+00  0.45593999997E+02  0.45594000000E+02  0.51100000000E-03 0.  1.
         11   -1    0    0    0    0 -0.00000000000E+00 -0.00000000000E+00 -0.45593999997E+02  0.45594000000E+02  0.51100000000E-03 0. -1.
    9900012    2    1    2    0    0  0.70224927231E+01 -0.17042486303E+01  0.17275940881E+02  0.72461601500E+02  0.70000040652E+02 0.  0.
         12    1    1    2    0    0 -0.70224927231E+01  0.17042486303E+01 -0.17275940881E+02  0.18726398500E+02  0.00000000000E+00 0. -1.
         11    1    3    3    0    0  0.21578832693E+02  0.53423627266E+01 -0.13108942912E+01  0.22268931362E+02  0.51100000000E-03 0. -1.
        -11    1    3    3    0    0  0.81509761142E+01  0.92323465478E+01  0.18534237802E+02  0.22252923528E+02  0.51100000000E-03 0.  1.
         12    1    3    3    0    0 -0.22707316084E+02 -0.16278957905E+02  0.52597370662E-01  0.27939746611E+02  0.00000000000E+00 0. -1.
</event>
<event>
 7    1  0.2976321E-013  0.7246155E+02  0.7816164E-02  0.1226708E+00
        -11   -1    0    0    0    0  0.00000000000E+00  0.00000000000E+00  0.45593999997E+02  0.45594000000E+02  0.51100000000E-03 0.  1.
         11   -1    0    0    0    0 -0.00000000000E+00 -0.00000000000E+00 -0.45593999997E+02  0.45594000000E+02  0.51100000000E-03 0. -1.
    9900012    2    1    2    0    0  0.41173268299E+01 -0.10706253008E+02  0.14802151000E+02  0.72461550579E+02  0.69999974317E+02 0.  0.
         12    1    1    2    0    0 -0.41173268299E+01  0.10706253008E+02 -0.14802151000E+02  0.18726449421E+02  0.00000000000E+00 0. -1.
         11    1    3    3    0    0  0.30025429496E+01  0.12837190871E+02 -0.19619143359E+02  0.23637248571E+02  0.51100000000E-03 0. -1.
        -11    1    3    3    0    0 -0.80367661439E+01 -0.74297397138E+01  0.15018815112E+01  0.11047456296E+02  0.51100000000E-03 0.  1.
        -12    1    3    3    0    0  0.91515500242E+01 -0.16113704165E+02  0.32919412847E+02  0.37776845712E+02  0.00000000000E+00 0.  1.
</event>
<event>
 7    1  0.2976321E-013  0.7246154E+02  0.7816164E-02  0.1226708E+00
        -11   -1    0    0    0    0  0.00000000000E+00  0.00000000000E+00  0.45593999997E+02  0.45594000000E+02  0.51100000000E-03 0. -1.
         11   -1    0    0    0    0 -0.00000000000E+00 -0.00000000000E+00 -0.45593999997E+02  0.45594000000E+02  0.51100000000E-03 0.  1.
    9900012    2    1    2    0    0 -0.68649254536E+01 -0.21076545543E+01 -0.17294827101E+02  0.72461536008E+02  0.69999955336E+02 0.  0.
         12    1    1    2    0    0  0.68649254536E+01  0.21076545543E+01  0.17294827101E+02  0.18726463992E+02  0.00000000000E+00 0. -1.
         11    1    3    3    0    0 -0.28388752551E+00 -0.62771873829E+01 -0.72209133447E+00  0.63249576855E+01  0.51100000000E-03 0. -1.
        -11    1    3    3    0    0 -0.30933785475E+02  0.92686869979E+01 -0.23927767365E+02  0.40191363423E+02  0.51100000000E-03 0.  1.
         12    1    3    3    0    0  0.24352747547E+02 -0.50991541693E+01  0.73550315984E+01  0.25945214899E+02  0.00000000000E+00 0. -1.
</event>
<event>
 7    1  0.2976321E-013  0.7246156E+02  0.7816164E-02  0.1226708E+00
        -11   -1    0    0    0    0  0.00000000000E+00  0.00000000000E+00  0.45593999997E+02  0.45594000000E+02  0.51100000000E-03 0.  1.
         11   -1    0    0    0    0 -0.00000000000E+00 -0.00000000000E+00 -0.45593999997E+02  0.45594000000E+02  0.51100000000E-03 0. -1.
    9900012    2    1    2    0    0 -0.25568691738E+01 -0.15543537921E+02  0.10126215328E+02  0.72461564462E+02  0.69999992402E+02 0.  0.
         12    1    1    2    0    0  0.25568691738E+01  0.15543537921E+02 -0.10126215328E+02  0.18726435538E+02  0.00000000000E+00 0. -1.
         11    1    3    3    0    0 -0.21298415140E+01  0.77904528399E+01  0.68500234877E+01  0.10590099262E+02  0.51100000000E-03 0. -1.
        -11    1    3    3    0    0  0.46298231159E+01  0.36262523439E+01  0.25748273605E+02  0.26411333970E+02  0.51100000000E-03 0.  1.
         12    1    3    3    0    0 -0.50568507757E+01 -0.26960243105E+02 -0.22472081765E+02  0.35460131231E+02  0.00000000000E+00 0. -1.
</event>
<event>
 7    1  0.3115032E-013  0.7246140E+02  0.7816164E-02  0.1226708E+00
        -11   -1    0    0    0    0  0.00000000000E+00  0.00000000000E+00  0.45593999997E+02  0.45594000000E+02  0.51100000000E-03 0.  1.
         11   -1    0    0    0    0 -0.00000000000E+00 -0.00000000000E+00 -0.45593999997E+02  0.45594000000E+02  0.51100000000E-03 0. -1.
    9900012    2    1    2    0    0  0.17057518861E+02  0.76626891477E+01  0.10047963623E+01  0.72461404731E+02  0.69999784322E+02 0.  0.
         12    1    1    2    0    0 -0.17057518861E+02 -0.76626891477E+01 -0.10047963623E+01  0.18726595269E+02  0.00000000000E+00 0. -1.
         11    1    3    3    0    0  0.77924632873E+01  0.18653327850E+02 -0.22630654596E+02  0.30344944416E+02  0.51100000000E-03 0. -1.
        -11    1    3    3    0    0  0.38786587481E+01  0.11267128241E+02  0.90894035690E+01  0.14986975345E+02  0.51100000000E-03 0.  1.
        -12    1    3    3    0    0  0.53863968252E+01 -0.22257766943E+02  0.14546047389E+02  0.27129484969E+02  0.00000000000E+00 0.  1.
</event>
<event>
 7    1  0.2976321E-013  0.7246157E+02  0.7816164E-02  0.1226708E+00
        -11   -1    0    0    0    0  0.00000000000E+00  0.00000000000E+00  0.45593999997E+02  0.45594000000E+02  0.51100000000E-03 0.  1.
         11   -1    0    0    0    0 -0.00000000000E+00 -0.00000000000E+00 -0.45593999997E+02  0.45594000000E+02  0.51100000000E-03 0. -1.
    9900012    2    1    2    0    0 -0.10074252683E+02  0.15785482477E+02  0.84588000625E-01  0.72461570034E+02  0.69999999661E+02 0.  0.
         12    1    1    2    0    0  0.10074252683E+02 -0.15785482477E+02 -0.84588000625E-01  0.18726429966E+02  0.00000000000E+00 0. -1.
         11    1    3    3    0    0 -0.10652437597E+02 -0.11051988117E+02  0.97092236342E+00  0.15380622829E+02  0.51100000000E-03 0. -1.
        -11    1    3    3    0    0  0.29386113880E+01 -0.11601253490E+02  0.11529498194E+02  0.16617877370E+02  0.51100000000E-03 0.  1.
        -12    1    3    3    0    0 -0.23604264733E+01  0.38438724084E+02 -0.12415832557E+02  0.40463069835E+02  0.00000000000E+00 0.  1.
</event>
<event>
 7    1  0.2976321E-013  0.7246149E+02  0.7816164E-02  0.1226708E+00
        -11   -1    0    0    0    0  0.00000000000E+00  0.00000000000E+00  0.45593999997E+02  0.45594000000E+02  0.51100000000E-03 0.  1.
         11   -1    0    0    0    0 -0.00000000000E+00 -0.00000000000E+00 -0.45593999997E+02  0.45594000000E+02  0.51100000000E-03 0. -1.
    9900012    2    1    2    0    0 -0.17830236762E+02  0.19526863929E+01 -0.53806906308E+01  0.72461490480E+02  0.69999896027E+02 0.  0.
         12    1    1    2    0    0  0.17830236762E+02 -0.19526863929E+01  0.53806906308E+01  0.18726509520E+02  0.00000000000E+00 0. -1.
         11    1    3    3    0    0  0.16004063878E+01 -0.91651215300E+01 -0.20150860899E+02  0.22194998276E+02  0.51100000000E-03 0. -1.
        -11    1    3    3    0    0  0.12050932969E+02  0.99129731243E+00  0.12072259057E+02  0.17086459398E+02  0.51100000000E-03 0.  1.
        -12    1    3    3    0    0 -0.31481576119E+02  0.10126510610E+02  0.26979112111E+01  0.33180032805E+02  0.00000000000E+00 0.  1.
</event>
<event>
 7    1  0.2976321E-013  0.7246149E+02  0.7816164E-02  0.1226708E+00
        -11   -1    0    0    0    0  0.00000000000E+00  0.00000000000E+00  0.45593999997E+02  0.45594000000E+02  0.51100000000E-03 0. -1.
         11   -1    0    0    0    0 -0.00000000000E+00 -0.00000000000E+00 -0.45593999997E+02  0.45594000000E+02  0.51100000000E-03 0.  1.
    9900012    2    1    2    0    0  0.67642595173E+01 -0.25801812478E+01 -0.17270481235E+02  0.72461493006E+02  0.69999899318E+02 0.  0.
         12    1    1    2    0    0 -0.67642595173E+01  0.25801812478E+01  0.17270481235E+02  0.18726506994E+02  0.00000000000E+00 0. -1.
         11    1    3    3    0    0  0.12749521189E+01  0.15881887471E+02 -0.29846214478E+01  0.16210114682E+02  0.51100000000E-03 0. -1.
        -11    1    3    3    0    0 -0.20633680525E+01  0.14070511661E+02  0.77920513215E+01  0.16215820984E+02  0.51100000000E-03 0.  1.
        -12    1    3    3    0    0  0.75526754508E+01 -0.32532580380E+02 -0.22077911109E+02  0.40035557341E+02  0.00000000000E+00 0.  1.
</event>
<event>
 7    1  0.2976321E-013  0.7246154E+02  0.7816164E-02  0.1226708E+00
        -11   -1    0    0    0    0  0.00000000000E+00  0.00000000000E+00  0.45593999997E+02  0.45594000000E+02  0.51100000000E-03 0.  1.
         11   -1    0    0    0    0 -0.00000000000E+00 -0.00000000000E+00 -0.45593999997E+02  0.45594000000E+02  0.51100000000E-03 0. -1.
    9900012    2    1    2    0    0  0.57226866833E+01  0.15153515802E+02  0.93969122516E+01  0.72461544278E+02  0.69999966109E+02 0.  0.
         12    1    1    2    0    0 -0.57226866833E+01 -0.15153515802E+02 -0.93969122516E+01  0.18726455722E+02  0.00000000000E+00 0. -1.
         11    1    3    3    0    0  0.80462500123E+01  0.90698446623E+00 -0.15784078443E+01  0.82496140314E+01  0.51100000000E-03 0. -1.
        -11    1    3    3    0    0 -0.12478730131E+02  0.13178255119E+02  0.34269109659E+02  0.38778305671E+02  0.51100000000E-03 0.  1.
         12    1    3    3    0    0  0.10155166802E+02  0.10682762164E+01 -0.23293789563E+02  0.25433624576E+02  0.00000000000E+00 0. -1.
</event>
<event>
 7    1  0.2976321E-013  0.7246158E+02  0.7816164E-02  0.1226708E+00
        -11   -1    0    0    0    0  0.00000000000E+00  0.00000000000E+00  0.45593999997E+02  0.45594000000E+02  0.51100000000E-03 0. -1.
         11   -1    0    0    0    0 -0.00000000000E+00 -0.00000000000E+00 -0.45593999997E+02  0.45594000000E+02  0.51100000000E-03 0.  1.
    9900012    2    1    2    0    0 -0.85840832490E+00  0.56683269663E+01 -0.17827282329E+02  0.72461580409E+02  0.70000013176E+02 0.  0.
         12    1    1    2    0    0  0.85840832490E+00 -0.56683269663E+01  0.17827282329E+02  0.18726419591E+02  0.00000000000E+00 0. -1.
         11    1    3    3    0    0 -0.44512850296E+01 -0.26664102544E+02 -0.16877460730E+02  0.31869059977E+02  0.51100000000E-03 0.  1.
        -11    1    3    3    0    0  0.50069493834E+01 -0.24586093724E+01  0.12029934906E+01  0.57062681127E+01  0.51100000000E-03 0. -1.
        -12    1    3    3    0    0 -0.14140726787E+01  0.34791038882E+02 -0.21528150895E+01  0.34886252319E+02  0.00000000000E+00 0.  1.
</event>
<event>
 7    1  0.2976321E-013  0.7246158E+02  0.7816164E-02  0.1226708E+00
        -11   -1    0    0    0    0  0.00000000000E+00  0.00000000000E+00  0.45593999997E+02  0.45594000000E+02  0.51100000000E-03 0. -1.
         11   -1    0    0    0    0 -0.00000000000E+00 -0.00000000000E+00 -0.45593999997E+02  0.45594000000E+02  0.51100000000E-03 0.  1.
    9900012    2    1    2    0    0 -0.14364151574E+02 -0.61356738749E+01 -0.10329732737E+02  0.72461582223E+02  0.70000015539E+02 0.  0.
         12    1    1    2    0    0  0.14364151574E+02  0.61356738749E+01  0.10329732737E+02  0.18726417777E+02  0.00000000000E+00 0. -1.
         11    1    3    3    0    0 -0.18785244163E+02 -0.18355736819E+01  0.26063674235E+02  0.32180271035E+02  0.51100000000E-03 0. -1.
        -11    1    3    3    0    0 -0.58033540834E+01  0.73075392055E+00 -0.13307942232E+02  0.14536651837E+02  0.51100000000E-03 0.  1.
        -12    1    3    3    0    0  0.10224446672E+02 -0.50308541136E+01 -0.23085464740E+02  0.25744659351E+02  0.00000000000E+00 0.  1.
</event>
<event>
 7    1  0.2976321E-013  0.7246162E+02  0.7816164E-02  0.1226708E+00
        -11   -1    0    0    0    0  0.00000000000E+00  0.00000000000E+00  0.45593999997E+02  0.45594000000E+02  0.51100000000E-03 0. -1.
         11   -1    0    0    0    0 -0.00000000000E+00 -0.00000000000E+00 -0.45593999997E+02  0.45594000000E+02  0.51100000000E-03 0.  1.
    9900012    2    1    2    0    0 -0.18620132501E+02 -0.14387819816E+01 -0.13776770926E+01  0.72461616951E+02  0.70000060779E+02 0.  0.
         12    1    1    2    0    0  0.18620132501E+02  0.14387819816E+01  0.13776770926E+01  0.18726383049E+02  0.00000000000E+00 0. -1.
         11    1    3    3    0    0 -0.46347043458E+01  0.13422483962E+02 -0.18910277650E+02  0.23648301443E+02  0.51100000000E-03 0. -1.
        -11    1    3    3    0    0 -0.22170105777E+02  0.61391050885E+01  0.94305522390E+01  0.24862371513E+02  0.51100000000E-03 0.  1.
         12    1    3    3    0    0  0.81846776225E+01 -0.21000371032E+02  0.81020483180E+01  0.23950943995E+02  0.00000000000E+00 0. -1.
</event>
<event>
 7    1  0.2976321E-013  0.7246160E+02  0.7816164E-02  0.1226708E+00
        -11   -1    0    0    0    0  0.00000000000E+00  0.00000000000E+00  0.45593999997E+02  0.45594000000E+02  0.51100000000E-03 0.  1.
         11   -1    0    0    0    0 -0.00000000000E+00 -0.00000000000E+00 -0.45593999997E+02  0.45594000000E+02  0.51100000000E-03 0. -1.
    9900012    2    1    2    0    0  0.75170232062E+01  0.67030716078E+01  0.15787375849E+02  0.72461600371E+02  0.70000039181E+02 0.  0.
         12    1    1    2    0    0 -0.75170232062E+01 -0.67030716078E+01 -0.15787375849E+02  0.18726399629E+02  0.00000000000E+00 0. -1.
         11    1    3    3    0    0  0.25531318249E+02  0.19933852789E+02  0.36493076526E+01  0.32596382393E+02  0.51100000000E-03 0.  1.
        -11    1    3    3    0    0 -0.70757161051E+01  0.44526597139E+01 -0.75243838164E+01  0.11247590364E+02  0.51100000000E-03 0. -1.
         12    1    3    3    0    0 -0.10938578937E+02 -0.17683440895E+02  0.19662452013E+02  0.28617627613E+02  0.00000000000E+00 0. -1.
</event>
<event>
 7    1  0.2976321E-013  0.7246159E+02  0.7816164E-02  0.1226708E+00
        -11   -1    0    0    0    0  0.00000000000E+00  0.00000000000E+00  0.45593999997E+02  0.45594000000E+02  0.51100000000E-03 0. -1.
         11   -1    0    0    0    0 -0.00000000000E+00 -0.00000000000E+00 -0.45593999997E+02  0.45594000000E+02  0.51100000000E-03 0.  1.
    9900012    2    1    2    0    0  0.73880982101E+00 -0.18376909248E+02 -0.35244487482E+01  0.72461591577E+02  0.70000027724E+02 0.  0.
         12    1    1    2    0    0 -0.73880982101E+00  0.18376909248E+02  0.35244487482E+01  0.18726408423E+02  0.00000000000E+00 0. -1.
         11    1    3    3    0    0 -0.22675577516E+02 -0.94558137700E+00 -0.12654995206E+02  0.25985088874E+02  0.51100000000E-03 0. -1.
        -11    1    3    3    0    0 -0.79478412682E+01 -0.10296019114E+02 -0.12579999775E+00  0.13007383147E+02  0.51100000000E-03 0.  1.
        -12    1    3    3    0    0  0.31362228606E+02 -0.71353087565E+01  0.92563464558E+01  0.33469119556E+02  0.00000000000E+00 0.  1.
</event>
<event>
 7    1  0.2976321E-013  0.7246160E+02  0.7816164E-02  0.1226708E+00
        -11   -1    0    0    0    0  0.00000000000E+00  0.00000000000E+00  0.45593999997E+02  0.45594000000E+02  0.51100000000E-03 0. -1.
         11   -1    0    0    0    0 -0.00000000000E+00 -0.00000000000E+00 -0.45593999997E+02  0.45594000000E+02  0.51100000000E-03 0.  1.
    9900012    2    1    2    0    0 -0.10146856736E+01 -0.43194955442E+01 -0.18193145146E+02  0.72461597274E+02  0.70000035146E+02 0.  0.
         12    1    1    2    0    0  0.10146856736E+01  0.43194955442E+01  0.18193145146E+02  0.18726402726E+02  0.00000000000E+00 0. -1.
         11    1    3    3    0    0  0.17277915078E+00  0.11307243471E+02  0.16998517932E+02  0.20416493815E+02  0.51100000000E-03 0. -1.
        -11    1    3    3    0    0  0.12237931574E+02  0.41893304895E+01 -0.58987356736E+01  0.14216629065E+02  0.51100000000E-03 0.  1.
         12    1    3    3    0    0 -0.13425396399E+02 -0.19816069505E+02 -0.29292927404E+02  0.37828474394E+02  0.00000000000E+00 0. -1.
</event>
<event>
 7    1  0.3514678E-013  0.7246157E+02  0.7816164E-02  0.1226708E+00
        -11   -1    0    0    0    0  0.00000000000E+00  0.00000000000E+00  0.45593999997E+02  0.45594000000E+02  0.51100000000E-03 0.  1.
         11   -1    0    0    0    0 -0.00000000000E+00 -0.00000000000E+00 -0.45593999997E+02  0.45594000000E+02  0.51100000000E-03 0. -1.
    9900012    2    1    2    0    0  0.18562414819E+02 -0.24480990551E+01 -0.35032789073E+00  0.72461570481E+02  0.70000000244E+02 0.  0.
         12    1    1    2    0    0 -0.18562414819E+02  0.24480990551E+01  0.35032789073E+00  0.18726429519E+02  0.00000000000E+00 0. -1.
         11    1    3    3    0    0 -0.45937643313E+01  0.73174619232E+01 -0.28199734862E+02  0.29493608906E+02  0.51100000000E-03 0. -1.
        -11    1    3    3    0    0  0.70652678599E+01  0.60649991956E+01  0.12839061250E+02  0.15860129861E+02  0.51100000000E-03 0.  1.
        -12    1    3    3    0    0  0.16090911290E+02 -0.15830560174E+02  0.15010345722E+02  0.27107831714E+02  0.00000000000E+00 0.  1.
</event>
<event>
 7    1  0.2976321E-013  0.7246142E+02  0.7816164E-02  0.1226708E+00
        -11   -1    0    0    0    0  0.00000000000E+00  0.00000000000E+00  0.45593999997E+02  0.45594000000E+02  0.51100000000E-03 0.  1.
         11   -1    0    0    0    0 -0.00000000000E+00 -0.00000000000E+00 -0.45593999997E+02  0.45594000000E+02  0.51100000000E-03 0. -1.
    9900012    2    1    2    0    0  0.18720760621E+02 -0.12480271934E+00 -0.44983097577E+00  0.72461419910E+02  0.69999804097E+02 0.  0.
         12    1    1    2    0    0 -0.18720760621E+02  0.12480271934E+00  0.44983097577E+00  0.18726580090E+02  0.00000000000E+00 0. -1.
         11    1    3    3    0    0  0.23014580848E+02  0.97327604707E+01 -0.27629862846E+02  0.37253280112E+02  0.51100000000E-03 0. -1.
        -11    1    3    3    0    0  0.10828962795E+01  0.51589836634E+01  0.12353878511E+02  0.13431533468E+02  0.51100000000E-03 0.  1.
        -12    1    3    3    0    0 -0.53767165065E+01 -0.15016546853E+02  0.14826153359E+02  0.21776606329E+02  0.00000000000E+00 0.  1.
</event>
<event>
 7    1  0.2976321E-013  0.7246156E+02  0.7816164E-02  0.1226708E+00
        -11   -1    0    0    0    0  0.00000000000E+00  0.00000000000E+00  0.45593999997E+02  0.45594000000E+02  0.51100000000E-03 0.  1.
         11   -1    0    0    0    0 -0.00000000000E+00 -0.00000000000E+00 -0.45593999997E+02  0.45594000000E+02  0.51100000000E-03 0. -1.
    9900012    2    1    2    0    0 -0.43595899845E+01  0.86787393757E+01  0.16011022302E+02  0.72461564751E+02  0.69999992778E+02 0.  0.
         12    1    1    2    0    0  0.43595899845E+01 -0.86787393757E+01 -0.16011022302E+02  0.18726435249E+02  0.00000000000E+00 0. -1.
         11    1    3    3    0    0  0.14442904948E+02  0.11058501850E+02 -0.63755010477E+01  0.19275242680E+02  0.51100000000E-03 0. -1.
        -11    1    3    3    0    0 -0.90722785612E+01  0.85828398056E+01  0.32871748811E+02  0.35164232504E+02  0.51100000000E-03 0.  1.
         12    1    3    3    0    0 -0.97302163712E+01 -0.10962602280E+02 -0.10485225461E+02  0.18022089567E+02  0.00000000000E+00 0. -1.
</event>
<event>
 7    1  0.2976321E-013  0.7246162E+02  0.7816164E-02  0.1226708E+00
        -11   -1    0    0    0    0  0.00000000000E+00  0.00000000000E+00  0.45593999997E+02  0.45594000000E+02  0.51100000000E-03 0. -1.
         11   -1    0    0    0    0 -0.00000000000E+00 -0.00000000000E+00 -0.45593999997E+02  0.45594000000E+02  0.51100000000E-03 0.  1.
    9900012    2    1    2    0    0 -0.17615824264E+02  0.60179624938E+01 -0.20357473863E+01  0.72461617421E+02  0.70000061391E+02 0.  0.
         12    1    1    2    0    0  0.17615824264E+02 -0.60179624938E+01  0.20357473863E+01  0.18726382579E+02  0.00000000000E+00 0. -1.
         11    1    3    3    0    0 -0.64618042342E+01 -0.22207838697E+02  0.56330424646E+01  0.23804919265E+02  0.51100000000E-03 0. -1.
        -11    1    3    3    0    0  0.74529550657E+01 -0.46101188586E+01 -0.64754519833E+01  0.10896385353E+02  0.51100000000E-03 0.  1.
         12    1    3    3    0    0 -0.18606975096E+02  0.32835920049E+02 -0.11933378677E+01  0.37760312803E+02  0.00000000000E+00 0. -1.
</event>
<event>
 7    1  0.2976321E-013  0.7246145E+02  0.7816164E-02  0.1226708E+00
        -11   -1    0    0    0    0  0.00000000000E+00  0.00000000000E+00  0.45593999997E+02  0.45594000000E+02  0.51100000000E-03 0.  1.
         11   -1    0    0    0    0 -0.00000000000E+00 -0.00000000000E+00 -0.45593999997E+02  0.45594000000E+02  0.51100000000E-03 0. -1.
    9900012    2    1    2    0    0  0.75641067977E+01  0.13470725024E+02 -0.10583352831E+02  0.72461454631E+02  0.69999849327E+02 0.  0.
         12    1    1    2    0    0 -0.75641067977E+01 -0.13470725024E+02  0.10583352831E+02  0.18726545369E+02  0.00000000000E+00 0. -1.
         11    1    3    3    0    0 -0.13228419348E+02 -0.15383007539E+02  0.75428943671E+01  0.21645398012E+02  0.51100000000E-03 0. -1.
        -11    1    3    3    0    0 -0.56198927328E+01  0.99909938171E+00  0.35604329144E+01  0.67274123333E+01  0.51100000000E-03 0.  1.
         12    1    3    3    0    0  0.26412418879E+02  0.27854633181E+02 -0.21686680112E+02  0.44088644286E+02  0.00000000000E+00 0. -1.
</event>
<event>
 7    1  0.2976321E-013  0.7246157E+02  0.7816164E-02  0.1226708E+00
        -11   -1    0    0    0    0  0.00000000000E+00  0.00000000000E+00  0.45593999997E+02  0.45594000000E+02  0.51100000000E-03 0.  1.
         11   -1    0    0    0    0 -0.00000000000E+00 -0.00000000000E+00 -0.45593999997E+02  0.45594000000E+02  0.51100000000E-03 0. -1.
    9900012    2    1    2    0    0  0.91689387890E+00  0.16104269252E+02  0.95126731595E+01  0.72461571265E+02  0.70000001264E+02 0.  0.
         12    1    1    2    0    0 -0.91689387890E+00 -0.16104269252E+02 -0.95126731595E+01  0.18726428735E+02  0.00000000000E+00 0. -1.
         11    1    3    3    0    0 -0.25869559798E+02  0.55917348261E+01 -0.60165386694E+01  0.27142224676E+02  0.51100000000E-03 0. -1.
        -11    1    3    3    0    0  0.11042197260E+02 -0.94991056122E+01  0.13359173406E+02  0.19764378111E+02  0.51100000000E-03 0.  1.
        -12    1    3    3    0    0  0.15744256417E+02  0.20011640038E+02  0.21700384226E+01  0.25554968478E+02  0.00000000000E+00 0.  1.
</event>
<event>
 7    1  0.2976321E-013  0.7246164E+02  0.7816164E-02  0.1226708E+00
        -11   -1    0    0    0    0  0.00000000000E+00  0.00000000000E+00  0.45593999997E+02  0.45594000000E+02  0.51100000000E-03 0. -1.
         11   -1    0    0    0    0 -0.00000000000E+00 -0.00000000000E+00 -0.45593999997E+02  0.45594000000E+02  0.51100000000E-03 0.  1.
    9900012    2    1    2    0    0 -0.90940365300E+01 -0.13540530942E+02 -0.91994049578E+01  0.72461640766E+02  0.70000091802E+02 0.  0.
         12    1    1    2    0    0  0.90940365300E+01  0.13540530942E+02  0.91994049578E+01  0.18726359234E+02  0.00000000000E+00 0. -1.
         11    1    3    3    0    0 -0.38658766835E+01  0.12489740839E+02  0.11807592312E+02  0.17616976620E+02  0.51100000000E-03 0. -1.
        -11    1    3    3    0    0  0.13942636881E+02 -0.14457251442E+01 -0.18991001954E+02  0.23603927636E+02  0.51100000000E-03 0.  1.
         12    1    3    3    0    0 -0.19170796728E+02 -0.24584546637E+02 -0.20159953162E+01  0.31240736509E+02  0.00000000000E+00 0. -1.
</event>
<event>
 7    1  0.2976321E-013  0.7246158E+02  0.7816164E-02  0.1226708E+00
        -11   -1    0    0    0    0  0.00000000000E+00  0.00000000000E+00  0.45593999997E+02  0.45594000000E+02  0.51100000000E-03 0. -1.
         11   -1    0    0    0    0 -0.00000000000E+00 -0.00000000000E+00 -0.45593999997E+02  0.45594000000E+02  0.51100000000E-03 0.  1.
    9900012    2    1    2    0    0  0.25850821776E+01  0.17305945887E+02  0.66708579632E+01  0.72461581259E+02  0.70000014283E+02 0.  0.
         12    1    1    2    0    0 -0.25850821776E+01 -0.17305945887E+02 -0.66708579632E+01  0.18726418741E+02  0.00000000000E+00 0. -1.
         11    1    3    3    0    0 -0.35519558370E+01 -0.75225863218E+01 -0.61853361890E+01  0.10366488280E+02  0.51100000000E-03 0. -1.
        -11    1    3    3    0    0 -0.19341964999E+02  0.15558656141E+02 -0.98739286800E+01  0.26714749836E+02  0.51100000000E-03 0.  1.
         12    1    3    3    0    0  0.25479003014E+02  0.92698760676E+01  0.22730122832E+02  0.35380343142E+02  0.00000000000E+00 0. -1.
</event>
<event>
 7    1  0.2976321E-013  0.7246163E+02  0.7816164E-02  0.1226708E+00
        -11   -1    0    0    0    0  0.00000000000E+00  0.00000000000E+00  0.45593999997E+02  0.45594000000E+02  0.51100000000E-03 0. -1.
         11   -1    0    0    0    0 -0.00000000000E+00 -0.00000000000E+00 -0.45593999997E+02  0.45594000000E+02  0.51100000000E-03 0.  1.
    9900012    2    1    2    0    0  0.14561458098E+02 -0.34453378822E+01 -0.11259237128E+02  0.72461632606E+02  0.70000081173E+02 0.  0.
         12    1    1    2    0    0 -0.14561458098E+02  0.34453378822E+01  0.11259237128E+02  0.18726367394E+02  0.00000000000E+00 0. -1.
         11    1    3    3    0    0 -0.20990450990E+02  0.44984183504E+01  0.13973247694E+02  0.25614184582E+02  0.51100000000E-03 0. -1.
        -11    1    3    3    0    0  0.16370816624E+01  0.24372732454E+01 -0.55634935458E+01  0.62906913720E+01  0.51100000000E-03 0.  1.
        -12    1    3    3    0    0  0.33914827426E+02 -0.10381029478E+02 -0.19668991276E+02  0.40556756652E+02  0.00000000000E+00 0.  1.
</event>
<event>
 7    1  0.2976321E-013  0.7246160E+02  0.7816164E-02  0.1226708E+00
        -11   -1    0    0    0    0  0.00000000000E+00  0.00000000000E+00  0.45593999997E+02  0.45594000000E+02  0.51100000000E-03 0.  1.
         11   -1    0    0    0    0 -0.00000000000E+00 -0.00000000000E+00 -0.45593999997E+02  0.45594000000E+02  0.51100000000E-03 0. -1.
    9900012    2    1    2    0    0  0.10151977048E+02 -0.29152361684E+00  0.15733101614E+02  0.72461598573E+02  0.70000036839E+02 0.  0.
         12    1    1    2    0    0 -0.10151977048E+02  0.29152361684E+00 -0.15733101614E+02  0.18726401427E+02  0.00000000000E+00 0. -1.
         11    1    3    3    0    0  0.21335372307E+01  0.55888987013E+01  0.13129366067E+02  0.14428029089E+02  0.51100000000E-03 0. -1.
        -11    1    3    3    0    0  0.29585636547E+02 -0.97154059896E+01  0.13051032370E+02  0.33764307332E+02  0.51100000000E-03 0.  1.
         12    1    3    3    0    0 -0.21567196729E+02  0.38349836715E+01 -0.10447296824E+02  0.24269262153E+02  0.00000000000E+00 0. -1.
</event>
<event>
 7    1  0.2976321E-013  0.7246155E+02  0.7816164E-02  0.1226708E+00
        -11   -1    0    0    0    0  0.00000000000E+00  0.00000000000E+00  0.45593999997E+02  0.45594000000E+02  0.51100000000E-03 0. -1.
         11   -1    0    0    0    0 -0.00000000000E+00 -0.00000000000E+00 -0.45593999997E+02  0.45594000000E+02  0.51100000000E-03 0.  1.
    9900012    2    1    2    0    0  0.87896031203E+01 -0.16524190298E+02 -0.61158763506E+00  0.72461547387E+02  0.69999970159E+02 0.  0.
         12    1    1    2    0    0 -0.87896031203E+01  0.16524190298E+02  0.61158763506E+00  0.18726452613E+02  0.00000000000E+00 0. -1.
         11    1    3    3    0    0  0.32022727184E+02 -0.18297398822E+02  0.14937882337E+02  0.39791835707E+02  0.51100000000E-03 0. -1.
        -11    1    3    3    0    0  0.13875393976E+01 -0.32005488651E+01 -0.29514046957E+01  0.45694166539E+01  0.51100000000E-03 0.  1.
        -12    1    3    3    0    0 -0.24620663462E+02  0.49737573891E+01 -0.12598065276E+02  0.28100295026E+02  0.00000000000E+00 0.  1.
</event>
<event>
 7    1  0.2976321E-013  0.7246184E+02  0.7816164E-02  0.1226707E+00
        -11   -1    0    0    0    0  0.00000000000E+00  0.00000000000E+00  0.45593999997E+02  0.45594000000E+02  0.51100000000E-03 0. -1.
         11   -1    0    0    0    0 -0.00000000000E+00 -0.00000000000E+00 -0.45593999997E+02  0.45594000000E+02  0.51100000000E-03 0.  1.
    9900012    2    1    2    0    0  0.15747005614E+02 -0.60449787225E+01 -0.81338286200E+01  0.72461838578E+02  0.70000349489E+02 0.  0.
         12    1    1    2    0    0 -0.15747005614E+02  0.60449787225E+01  0.81338286200E+01  0.18726161422E+02  0.00000000000E+00 0. -1.
         11    1    3    3    0    0 -0.12285294847E+02 -0.39339218950E+01 -0.19426669591E+01  0.13045235380E+02  0.51100000000E-03 0. -1.
        -11    1    3    3    0    0  0.13902889232E+02 -0.12396667021E+02 -0.26646790508E+02  0.32511830568E+02  0.51100000000E-03 0.  1.
         12    1    3    3    0    0  0.14129411229E+02  0.10285610193E+02  0.20455628847E+02  0.26904772630E+02  0.00000000000E+00 0. -1.
</event>
<event>
 7    1  0.2976321E-013  0.7246159E+02  0.7816164E-02  0.1226708E+00
        -11   -1    0    0    0    0  0.00000000000E+00  0.00000000000E+00  0.45593999997E+02  0.45594000000E+02  0.51100000000E-03 0.  1.
         11   -1    0    0    0    0 -0.00000000000E+00 -0.00000000000E+00 -0.45593999997E+02  0.45594000000E+02  0.51100000000E-03 0. -1.
    9900012    2    1    2    0    0  0.16389464179E+02  0.59285961649E+01  0.68495120026E+01  0.72461585415E+02  0.70000019697E+02 0.  0.
         12    1    1    2    0    0 -0.16389464179E+02 -0.59285961649E+01 -0.68495120026E+01  0.18726414585E+02  0.00000000000E+00 0. -1.
         11    1    3    3    0    0 -0.40948262731E+01  0.14429007973E+02  0.53763443832E+01  0.15933265593E+02  0.51100000000E-03 0. -1.
        -11    1    3    3    0    0 -0.13529510395E+02  0.60849039575E+01 -0.98719934351E+01  0.17819370425E+02  0.51100000000E-03 0.  1.
        -12    1    3    3    0    0  0.34013800847E+02 -0.14585315765E+02  0.11345161055E+02  0.38708949396E+02  0.00000000000E+00 0.  1.
</event>
<event>
 7    1  0.2976321E-013  0.7246160E+02  0.7816164E-02  0.1226708E+00
        -11   -1    0    0    0    0  0.00000000000E+00  0.00000000000E+00  0.45593999997E+02  0.45594000000E+02  0.51100000000E-03 0.  1.
         11   -1    0    0    0    0 -0.00000000000E+00 -0.00000000000E+00 -0.45593999997E+02  0.45594000000E+02  0.51100000000E-03 0. -1.
    9900012    2    1    2    0    0  0.11798908147E+02  0.68384770695E+01 -0.12833516019E+02  0.72461597903E+02  0.70000035965E+02 0.  0.
         12    1    1    2    0    0 -0.11798908147E+02 -0.68384770695E+01  0.12833516019E+02  0.18726402097E+02  0.00000000000E+00 0. -1.
         11    1    3    3    0    0  0.11695536691E+02  0.92479555604E+01  0.10622874970E+02  0.18307259036E+02  0.51100000000E-03 0. -1.
        -11    1    3    3    0    0 -0.18323556799E+02 -0.15107179347E+02 -0.31870822798E+01  0.23961158055E+02  0.51100000000E-03 0.  1.
         12    1    3    3    0    0  0.18426928255E+02  0.12697700856E+02 -0.20269308710E+02  0.30193180812E+02  0.00000000000E+00 0. -1.
</event>
<event>
 7    1  0.2976321E-013  0.7246157E+02  0.7816164E-02  0.1226708E+00
        -11   -1    0    0    0    0  0.00000000000E+00  0.00000000000E+00  0.45593999997E+02  0.45594000000E+02  0.51100000000E-03 0.  1.
         11   -1    0    0    0    0 -0.00000000000E+00 -0.00000000000E+00 -0.45593999997E+02  0.45594000000E+02  0.51100000000E-03 0. -1.
    9900012    2    1    2    0    0 -0.48467074245E+01 -0.16117641054E+02  0.82103715658E+01  0.72461571423E+02  0.70000001470E+02 0.  0.
         12    1    1    2    0    0  0.48467074245E+01  0.16117641054E+02 -0.82103715658E+01  0.18726428577E+02  0.00000000000E+00 0. -1.
         11    1    3    3    0    0  0.17768156528E+01  0.14551913727E+02 -0.99644092433E+01  0.17725820681E+02  0.51100000000E-03 0. -1.
        -11    1    3    3    0    0 -0.11005998767E+02 -0.28466695036E+02 -0.51055381417E+01  0.30944325087E+02  0.51100000000E-03 0.  1.
        -12    1    3    3    0    0  0.43824756899E+01 -0.22028597453E+01  0.23280318951E+02  0.23791425655E+02  0.00000000000E+00 0.  1.
</event>
<event>
 7    1  0.2976321E-013  0.7246160E+02  0.7816164E-02  0.1226708E+00
        -11   -1    0    0    0    0  0.00000000000E+00  0.00000000000E+00  0.45593999997E+02  0.45594000000E+02  0.51100000000E-03 0.  1.
         11   -1    0    0    0    0 -0.00000000000E+00 -0.00000000000E+00 -0.45593999997E+02  0.45594000000E+02  0.51100000000E-03 0. -1.
    9900012    2    1    2    0    0 -0.70163259299E+01 -0.11672197446E+02  0.12853367287E+02  0.72461599561E+02  0.70000038126E+02 0.  0.
         12    1    1    2    0    0  0.70163259299E+01  0.11672197446E+02 -0.12853367287E+02  0.18726400439E+02  0.00000000000E+00 0. -1.
         11    1    3    3    0    0  0.10264976109E+01  0.42436272587E+01  0.89742400773E+01  0.99799326091E+01  0.51100000000E-03 0. -1.
        -11    1    3    3    0    0 -0.42972388322E+01 -0.26642172704E+02  0.26088405514E+02  0.37535004069E+02  0.51100000000E-03 0.  1.
         12    1    3    3    0    0 -0.37455847086E+01  0.10726348000E+02 -0.22209278304E+02  0.24946662883E+02  0.00000000000E+00 0. -1.
</event>
<event>
 7    1  0.2976321E-013  0.7246155E+02  0.7816164E-02  0.1226708E+00
        -11   -1    0    0    0    0  0.00000000000E+00  0.00000000000E+00  0.45593999997E+02  0.45594000000E+02  0.51100000000E-03 0. -1.
         11   -1    0    0    0    0 -0.00000000000E+00 -0.00000000000E+00 -0.45593999997E+02  0.45594000000E+02  0.51100000000E-03 0.  1.
    9900012    2    1    2    0    0  0.47410860250E+01  0.80557082390E+01  0.16226750137E+02  0.72461554743E+02  0.69999979742E+02 0.  0.
         12    1    1    2    0    0 -0.47410860250E+01 -0.80557082390E+01 -0.16226750137E+02  0.18726445257E+02  0.00000000000E+00 0. -1.
         11    1    3    3    0    0 -0.13260259067E+02 -0.22957782455E+02  0.12439581635E+02  0.29285447534E+02  0.51100000000E-03 0. -1.
        -11    1    3    3    0    0  0.23278153868E+01 -0.27744642940E+01 -0.37079630191E+01  0.51831811280E+01  0.51100000000E-03 0.  1.
        -12    1    3    3    0    0  0.15673529705E+02  0.33787954988E+02  0.74951315216E+01  0.37992926081E+02  0.00000000000E+00 0.  1.
</event>
<event>
 7    1  0.2976321E-013  0.7246162E+02  0.7816164E-02  0.1226708E+00
        -11   -1    0    0    0    0  0.00000000000E+00  0.00000000000E+00  0.45593999997E+02  0.45594000000E+02  0.51100000000E-03 0. -1.
         11   -1    0    0    0    0 -0.00000000000E+00 -0.00000000000E+00 -0.45593999997E+02  0.45594000000E+02  0.51100000000E-03 0.  1.
    9900012    2    1    2    0    0  0.17282046723E+02 -0.71945525179E+01 -0.49640769486E+00  0.72461624337E+02  0.70000070401E+02 0.  0.
         12    1    1    2    0    0 -0.17282046723E+02  0.71945525179E+01  0.49640769486E+00  0.18726375663E+02  0.00000000000E+00 0. -1.
         11    1    3    3    0    0 -0.74851599774E+01 -0.94057985579E+01  0.79130125430E+01  0.14391401397E+02  0.51100000000E-03 0. -1.
        -11    1    3    3    0    0  0.35766085716E+02 -0.64399527223E+01  0.72627434759E+01  0.37059861327E+02  0.51100000000E-03 0.  1.
         12    1    3    3    0    0 -0.10998879016E+02  0.86511987622E+01 -0.15672163714E+02  0.21010361613E+02  0.00000000000E+00 0. -1.
</event>
<event>
 7    1  0.2976321E-013  0.7246159E+02  0.7816164E-02  0.1226708E+00
        -11   -1    0    0    0    0  0.00000000000E+00  0.00000000000E+00  0.45593999997E+02  0.45594000000E+02  0.51100000000E-03 0.  1.
         11   -1    0    0    0    0 -0.00000000000E+00 -0.00000000000E+00 -0.45593999997E+02  0.45594000000E+02  0.51100000000E-03 0. -1.
    9900012    2    1    2    0    0  0.16640172477E+02 -0.83730366109E+01 -0.19170716182E+01  0.72461594960E+02  0.70000032131E+02 0.  0.
         12    1    1    2    0    0 -0.16640172477E+02  0.83730366109E+01  0.19170716182E+01  0.18726405040E+02  0.00000000000E+00 0. -1.
         11    1    3    3    0    0 -0.55485882103E+01  0.15662269638E+02  0.48107811328E+01  0.17298472092E+02  0.51100000000E-03 0. -1.
        -11    1    3    3    0    0  0.98487627468E+01  0.11096822323E+02  0.57197780190E+01  0.15901366425E+02  0.51100000000E-03 0.  1.
        -12    1    3    3    0    0  0.12339997940E+02 -0.35132128573E+02 -0.12447630770E+02  0.39261756443E+02  0.00000000000E+00 0.  1.
</event>
<event>
 7    1  0.2976321E-013  0.7246162E+02  0.7816164E-02  0.1226708E+00
        -11   -1    0    0    0    0  0.00000000000E+00  0.00000000000E+00  0.45593999997E+02  0.45594000000E+02  0.51100000000E-03 0. -1.
         11   -1    0    0    0    0 -0.00000000000E+00 -0.00000000000E+00 -0.45593999997E+02  0.45594000000E+02  0.51100000000E-03 0.  1.
    9900012    2    1    2    0    0 -0.26164636709E+01 -0.65164294958E+00 -0.18531233179E+02  0.72461624916E+02  0.70000071154E+02 0.  0.
         12    1    1    2    0    0  0.26164636709E+01  0.65164294958E+00  0.18531233179E+02  0.18726375084E+02  0.00000000000E+00 0. -1.
         11    1    3    3    0    0 -0.11144800316E+02  0.32400984844E+01  0.72515526940E+01  0.13685387427E+02  0.51100000000E-03 0. -1.
        -11    1    3    3    0    0  0.49198946774E+01 -0.21004058548E+02  0.60943276568E+01  0.22416883570E+02  0.51100000000E-03 0.  1.
        -12    1    3    3    0    0  0.36084419681E+01  0.17112317114E+02 -0.31877113530E+02  0.36359353919E+02  0.00000000000E+00 0.  1.
</event>
<event>
 7    1  0.2976321E-013  0.7246155E+02  0.7816164E-02  0.1226708E+00
        -11   -1    0    0    0    0  0.00000000000E+00  0.00000000000E+00  0.45593999997E+02  0.45594000000E+02  0.51100000000E-03 0.  1.
         11   -1    0    0    0    0 -0.00000000000E+00 -0.00000000000E+00 -0.45593999997E+02  0.45594000000E+02  0.51100000000E-03 0. -1.
    9900012    2    1    2    0    0 -0.15887282499E+02  0.57276174197E+00  0.98967725751E+01  0.72461550560E+02  0.69999974292E+02 0.  0.
         12    1    1    2    0    0  0.15887282499E+02 -0.57276174197E+00 -0.98967725751E+01  0.18726449440E+02  0.00000000000E+00 0. -1.
         11    1    3    3    0    0  0.19519599088E+01  0.19410956677E+02  0.11820766242E+02  0.22810653244E+02  0.51100000000E-03 0. -1.
        -11    1    3    3    0    0 -0.18427956895E+02  0.12558722229E+01  0.14667192186E+02  0.23585871560E+02  0.51100000000E-03 0.  1.
        -12    1    3    3    0    0  0.58871448654E+00 -0.20094067158E+02 -0.16591185853E+02  0.26065025757E+02  0.00000000000E+00 0.  1.
</event>
<event>
 7    1  0.2976321E-013  0.7246159E+02  0.7816164E-02  0.1226708E+00
        -11   -1    0    0    0    0  0.00000000000E+00  0.00000000000E+00  0.45593999997E+02  0.45594000000E+02  0.51100000000E-03 0.  1.
         11   -1    0    0    0    0 -0.00000000000E+00 -0.00000000000E+00 -0.45593999997E+02  0.45594000000E+02  0.51100000000E-03 0. -1.
    9900012    2    1    2    0    0  0.17569210679E+01 -0.93227143450E+01  0.16145542818E+02  0.72461592782E+02  0.70000029295E+02 0.  0.
         12    1    1    2    0    0 -0.17569210679E+01  0.93227143450E+01 -0.16145542818E+02  0.18726407218E+02  0.00000000000E+00 0. -1.
         11    1    3    3    0    0 -0.12547975196E+02  0.27703448231E+00  0.20723190262E+01  0.12720964430E+02  0.51100000000E-03 0. -1.
        -11    1    3    3    0    0  0.81121224278E+01 -0.12998836990E+02 -0.19857795287E+02  0.25082031961E+02  0.51100000000E-03 0.  1.
         12    1    3    3    0    0  0.61927738364E+01  0.33990881627E+01  0.33931019078E+02  0.34658596391E+02  0.00000000000E+00 0. -1.
</event>
<event>
 7    1  0.2976321E-013  0.7246165E+02  0.7816164E-02  0.1226708E+00
        -11   -1    0    0    0    0  0.00000000000E+00  0.00000000000E+00  0.45593999997E+02  0.45594000000E+02  0.51100000000E-03 0. -1.
         11   -1    0    0    0    0 -0.00000000000E+00 -0.00000000000E+00 -0.45593999997E+02  0.45594000000E+02  0.51100000000E-03 0.  1.
    9900012    2    1    2    0    0 -0.52829723083E+00 -0.73076107020E+01 -0.17233570621E+02  0.72461648821E+02  0.70000102295E+02 0.  0.
         12    1    1    2    0    0  0.52829723083E+00  0.73076107020E+01  0.17233570621E+02  0.18726351179E+02  0.00000000000E+00 0. -1.
         11    1    3    3    0    0  0.16815509428E+02  0.85650727064E+00 -0.17212282056E+02  0.24078156405E+02  0.51100000000E-03 0. -1.
        -11    1    3    3    0    0 -0.70677230692E+01 -0.68495608873E+01 -0.21991376247E+02  0.24093356413E+02  0.51100000000E-03 0.  1.
        -12    1    3    3    0    0 -0.10276083589E+02 -0.13145570853E+01  0.21970087683E+02  0.24290136003E+02  0.00000000000E+00 0.  1.
</event>
<event>
 7    1  0.2976321E-013  0.7246155E+02  0.7816164E-02  0.1226708E+00
        -11   -1    0    0    0    0  0.00000000000E+00  0.00000000000E+00  0.45593999997E+02  0.45594000000E+02  0.51100000000E-03 0.  1.
         11   -1    0    0    0    0 -0.00000000000E+00 -0.00000000000E+00 -0.45593999997E+02  0.45594000000E+02  0.51100000000E-03 0. -1.
    9900012    2    1    2    0    0  0.13967659120E+02 -0.12228512168E+02  0.24592597555E+01  0.72461548930E+02  0.69999972169E+02 0.  0.
         12    1    1    2    0    0 -0.13967659120E+02  0.12228512168E+02 -0.24592597555E+01  0.18726451070E+02  0.00000000000E+00 0. -1.
         11    1    3    3    0    0  0.57709872066E+00 -0.29815359450E+01  0.20394078323E+02  0.20618948335E+02  0.51100000000E-03 0. -1.
        -11    1    3    3    0    0 -0.14584767316E+02  0.41220877994E+01  0.15305200786E+01  0.15233172271E+02  0.51100000000E-03 0.  1.
         12    1    3    3    0    0  0.27975327715E+02 -0.13369064022E+02 -0.19465338646E+02  0.36609428324E+02  0.00000000000E+00 0. -1.
</event>
<event>
 7    1  0.2976321E-013  0.7246160E+02  0.7816164E-02  0.1226708E+00
        -11   -1    0    0    0    0  0.00000000000E+00  0.00000000000E+00  0.45593999997E+02  0.45594000000E+02  0.51100000000E-03 0. -1.
         11   -1    0    0    0    0 -0.00000000000E+00 -0.00000000000E+00 -0.45593999997E+02  0.45594000000E+02  0.51100000000E-03 0.  1.
    9900012    2    1    2    0    0 -0.42089138448E+01  0.48869792119E+00 -0.18240726765E+02  0.72461604343E+02  0.70000044354E+02 0.  0.
         12    1    1    2    0    0  0.42089138448E+01 -0.48869792119E+00  0.18240726765E+02  0.18726395657E+02  0.00000000000E+00 0. -1.
         11    1    3    3    0    0  0.10475778525E+02  0.90545851221E+01 -0.59451243226E+01  0.15068906759E+02  0.51100000000E-03 0. -1.
        -11    1    3    3    0    0  0.93772482472E+01  0.17749611946E+02 -0.74258659423E+01  0.21403854657E+02  0.51100000000E-03 0.  1.
        -12    1    3    3    0    0 -0.24061940617E+02 -0.26315499147E+02 -0.48697364998E+01  0.35988842927E+02  0.00000000000E+00 0.  1.
</event>
<event>
 7    1  0.2976321E-013  0.7246146E+02  0.7816164E-02  0.1226708E+00
        -11   -1    0    0    0    0  0.00000000000E+00  0.00000000000E+00  0.45593999997E+02  0.45594000000E+02  0.51100000000E-03 0.  1.
         11   -1    0    0    0    0 -0.00000000000E+00 -0.00000000000E+00 -0.45593999997E+02  0.45594000000E+02  0.51100000000E-03 0. -1.
    9900012    2    1    2    0    0  0.31494916235E+01  0.17970387475E+02 -0.42224717765E+01  0.72461457570E+02  0.69999853156E+02 0.  0.
         12    1    1    2    0    0 -0.31494916235E+01 -0.17970387475E+02  0.42224717765E+01  0.18726542430E+02  0.00000000000E+00 0. -1.
         11    1    3    3    0    0 -0.11808075787E+02  0.10949996173E+02 -0.29640457708E+01  0.16374328614E+02  0.51100000000E-03 0. -1.
        -11    1    3    3    0    0 -0.26906466944E+01 -0.15029439273E+02  0.16692644783E+02  0.22622290216E+02  0.51100000000E-03 0.  1.
         12    1    3    3    0    0  0.17648214105E+02  0.22049830574E+02 -0.17951070788E+02  0.33464838740E+02  0.00000000000E+00 0. -1.
</event>
<event>
 7    1  0.2976321E-013  0.7246157E+02  0.7816164E-02  0.1226708E+00
        -11   -1    0    0    0    0  0.00000000000E+00  0.00000000000E+00  0.45593999997E+02  0.45594000000E+02  0.51100000000E-03 0. -1.
         11   -1    0    0    0    0 -0.00000000000E+00 -0.00000000000E+00 -0.45593999997E+02  0.45594000000E+02  0.51100000000E-03 0.  1.
    9900012    2    1    2    0    0  0.16154633521E+02  0.51805579131E+01  0.79289955240E+01  0.72461565889E+02  0.69999994261E+02 0.  0.
         12    1    1    2    0    0 -0.16154633521E+02 -0.51805579131E+01 -0.79289955240E+01  0.18726434111E+02  0.00000000000E+00 0. -1.
         11    1    3    3    0    0  0.61892696013E+01  0.85290435865E+01  0.88676655962E+01  0.13772695309E+02  0.51100000000E-03 0. -1.
        -11    1    3    3    0    0 -0.13428900360E+02  0.17455517703E+02 -0.12490799958E+02  0.25318976026E+02  0.51100000000E-03 0.  1.
        -12    1    3    3    0    0  0.23394264279E+02 -0.20804003376E+02  0.11552129886E+02  0.33369894554E+02  0.00000000000E+00 0.  1.
</event>
<event>
 7    1  0.2976321E-013  0.7246156E+02  0.7816164E-02  0.1226708E+00
        -11   -1    0    0    0    0  0.00000000000E+00  0.00000000000E+00  0.45593999997E+02  0.45594000000E+02  0.51100000000E-03 0.  1.
         11   -1    0    0    0    0 -0.00000000000E+00 -0.00000000000E+00 -0.45593999997E+02  0.45594000000E+02  0.51100000000E-03 0. -1.
    9900012    2    1    2    0    0 -0.95236989815E+01  0.66094186200E+01  0.14706941200E+02  0.72461564774E+02  0.69999992809E+02 0.  0.
         12    1    1    2    0    0  0.95236989815E+01 -0.66094186200E+01 -0.14706941200E+02  0.18726435226E+02  0.00000000000E+00 0. -1.
         11    1    3    3    0    0  0.23007962661E+02  0.11017300591E+01  0.10129311314E+02  0.25163129831E+02  0.51100000000E-03 0. -1.
        -11    1    3    3    0    0 -0.34458316693E+01  0.13363512416E+01  0.15512190189E+02  0.15946398818E+02  0.51100000000E-03 0.  1.
         12    1    3    3    0    0 -0.29085829973E+02  0.41713373193E+01 -0.10934560302E+02  0.31352036126E+02  0.00000000000E+00 0. -1.
</event>
<event>
 7    1  0.2976321E-013  0.7246158E+02  0.7816164E-02  0.1226708E+00
        -11   -1    0    0    0    0  0.00000000000E+00  0.00000000000E+00  0.45593999997E+02  0.45594000000E+02  0.51100000000E-03 0.  1.
         11   -1    0    0    0    0 -0.00000000000E+00 -0.00000000000E+00 -0.45593999997E+02  0.45594000000E+02  0.51100000000E-03 0. -1.
    9900012    2    1    2    0    0  0.16166031701E+02  0.94024427805E+01 -0.96562840695E+00  0.72461576171E+02  0.70000007656E+02 0.  0.
         12    1    1    2    0    0 -0.16166031701E+02 -0.94024427805E+01  0.96562840695E+00  0.18726423829E+02  0.00000000000E+00 0. -1.
         11    1    3    3    0    0 -0.13048940394E+02  0.82160821453E+01 -0.35658860147E+01  0.15827014707E+02  0.51100000000E-03 0. -1.
        -11    1    3    3    0    0 -0.12756619017E+02 -0.43024493562E+01  0.46843574919E+01  0.14254318804E+02  0.51100000000E-03 0.  1.
        -12    1    3    3    0    0  0.41971591111E+02  0.54888099914E+01 -0.20840998842E+01  0.42380242659E+02  0.00000000000E+00 0.  1.
</event>
<event>
 7    1  0.2976321E-013  0.7246161E+02  0.7816164E-02  0.1226708E+00
        -11   -1    0    0    0    0  0.00000000000E+00  0.00000000000E+00  0.45593999997E+02  0.45594000000E+02  0.51100000000E-03 0. -1.
         11   -1    0    0    0    0 -0.00000000000E+00 -0.00000000000E+00 -0.45593999997E+02  0.45594000000E+02  0.51100000000E-03 0.  1.
    9900012    2    1    2    0    0  0.13420788532E+02 -0.79321669807E+01  0.10375013822E+02  0.72461608206E+02  0.70000049387E+02 0.  0.
         12    1    1    2    0    0 -0.13420788532E+02  0.79321669807E+01 -0.10375013822E+02  0.18726391794E+02  0.00000000000E+00 0. -1.
         11    1    3    3    0    0  0.21367545009E+02 -0.14314713829E+02  0.16719585734E+01  0.25773600010E+02  0.51100000000E-03 0. -1.
        -11    1    3    3    0    0 -0.17776336325E+02 -0.74163578165E+01 -0.97909074999E+01  0.21606998087E+02  0.51100000000E-03 0.  1.
         12    1    3    3    0    0  0.98295798479E+01  0.13798904665E+02  0.18493962748E+02  0.25081010109E+02  0.00000000000E+00 0. -1.
</event>
<event>
 7    1  0.2976321E-013  0.7246158E+02  0.7816164E-02  0.1226708E+00
        -11   -1    0    0    0    0  0.00000000000E+00  0.00000000000E+00  0.45593999997E+02  0.45594000000E+02  0.51100000000E-03 0. -1.
         11   -1    0    0    0    0 -0.00000000000E+00 -0.00000000000E+00 -0.45593999997E+02  0.45594000000E+02  0.51100000000E-03 0.  1.
    9900012    2    1    2    0    0 -0.87330744632E+01 -0.34932584117E+00 -0.16561712481E+02  0.72461576465E+02  0.70000008038E+02 0.  0.
         12    1    1    2    0    0  0.87330744632E+01  0.34932584117E+00  0.16561712481E+02  0.18726423535E+02  0.00000000000E+00 0. -1.
         11    1    3    3    0    0  0.19693239203E+02 -0.18814813475E+02 -0.78219479781E+01  0.28337320742E+02  0.51100000000E-03 0. -1.
        -11    1    3    3    0    0 -0.12064667432E+01 -0.28585083971E+01 -0.90267968032E+01  0.95451397604E+01  0.51100000000E-03 0.  1.
        -12    1    3    3    0    0 -0.27219846923E+02  0.21323996031E+02  0.28703230051E+00  0.34579115963E+02  0.00000000000E+00 0.  1.
</event>
<event>
 7    1  0.2976321E-013  0.7246091E+02  0.7816164E-02  0.1226710E+00
        -11   -1    0    0    0    0  0.00000000000E+00  0.00000000000E+00  0.45593999997E+02  0.45594000000E+02  0.51100000000E-03 0.  1.
         11   -1    0    0    0    0 -0.00000000000E+00 -0.00000000000E+00 -0.45593999997E+02  0.45594000000E+02  0.51100000000E-03 0. -1.
    9900012    2    1    2    0    0  0.85830552416E+01 -0.15379310036E+02  0.63649054499E+01  0.72460906370E+02  0.69999135109E+02 0.  0.
         12    1    1    2    0    0 -0.85830552416E+01  0.15379310036E+02 -0.63649054499E+01  0.18727093630E+02  0.00000000000E+00 0. -1.
         11    1    3    3    0    0  0.22650037180E+02 -0.17995240649E+00 -0.34036016063E+01  0.22905044668E+02  0.51100000000E-03 0. -1.
        -11    1    3    3    0    0  0.14882038660E+02 -0.12093506171E+02  0.65468903955E+01  0.20263014097E+02  0.51100000000E-03 0.  1.
        -12    1    3    3    0    0 -0.28949020598E+02 -0.31058514583E+01  0.32216166608E+01  0.29292847604E+02  0.00000000000E+00 0.  1.
</event>
<event>
 7    1  0.2976321E-013  0.7246161E+02  0.7816164E-02  0.1226708E+00
        -11   -1    0    0    0    0  0.00000000000E+00  0.00000000000E+00  0.45593999997E+02  0.45594000000E+02  0.51100000000E-03 0.  1.
         11   -1    0    0    0    0 -0.00000000000E+00 -0.00000000000E+00 -0.45593999997E+02  0.45594000000E+02  0.51100000000E-03 0. -1.
    9900012    2    1    2    0    0 -0.26760260564E+01 -0.17915199320E+02  0.47499699708E+01  0.72461609615E+02  0.70000051223E+02 0.  0.
         12    1    1    2    0    0  0.26760260564E+01  0.17915199320E+02 -0.47499699708E+01  0.18726390385E+02  0.00000000000E+00 0. -1.
         11    1    3    3    0    0  0.51415391289E+01 -0.14281524193E+02 -0.20841929783E+02  0.25783393788E+02  0.51100000000E-03 0. -1.
        -11    1    3    3    0    0 -0.18302408857E+02 -0.13831435988E+02  0.92196742642E+01  0.24724263088E+02  0.51100000000E-03 0.  1.
        -12    1    3    3    0    0  0.10484843672E+02  0.10197760862E+02  0.16372225489E+02  0.21953952739E+02  0.00000000000E+00 0.  1.
</event>
<event>
 7    1  0.2976321E-013  0.7246158E+02  0.7816164E-02  0.1226708E+00
        -11   -1    0    0    0    0  0.00000000000E+00  0.00000000000E+00  0.45593999997E+02  0.45594000000E+02  0.51100000000E-03 0. -1.
         11   -1    0    0    0    0 -0.00000000000E+00 -0.00000000000E+00 -0.45593999997E+02  0.45594000000E+02  0.51100000000E-03 0.  1.
    9900012    2    1    2    0    0  0.10850155576E+02 -0.12918019494E+02 -0.81288147423E+01  0.72461581956E+02  0.70000015191E+02 0.  0.
         12    1    1    2    0    0 -0.10850155576E+02  0.12918019494E+02  0.81288147423E+01  0.18726418044E+02  0.00000000000E+00 0. -1.
         11    1    3    3    0    0 -0.56793271186E+00  0.10021838925E+02 -0.13353261140E+02  0.16705369985E+02  0.51100000000E-03 0. -1.
        -11    1    3    3    0    0 -0.19338564832E+02 -0.12511949374E+02  0.23589682942E+01  0.23153697298E+02  0.51100000000E-03 0.  1.
        -12    1    3    3    0    0  0.30756653120E+02 -0.10427909044E+02  0.28654781039E+01  0.32602514672E+02  0.00000000000E+00 0.  1.
</event>
<event>
 7    1  0.2976321E-013  0.7246170E+02  0.7816164E-02  0.1226708E+00
        -11   -1    0    0    0    0  0.00000000000E+00  0.00000000000E+00  0.45593999997E+02  0.45594000000E+02  0.51100000000E-03 0.  1.
         11   -1    0    0    0    0 -0.00000000000E+00 -0.00000000000E+00 -0.45593999997E+02  0.45594000000E+02  0.51100000000E-03 0. -1.
    9900012    2    1    2    0    0 -0.16527173367E+02 -0.13268598078E+01  0.87043874665E+01  0.72461698240E+02  0.70000166673E+02 0.  0.
         12    1    1    2    0    0  0.16527173367E+02  0.13268598078E+01 -0.87043874665E+01  0.18726301760E+02  0.00000000000E+00 0. -1.
         11    1    3    3    0    0  0.16167205867E+02 -0.15018687274E+02  0.52174288313E+01  0.22675120217E+02  0.51100000000E-03 0. -1.
        -11    1    3    3    0    0 -0.19200298361E+02 -0.57435774469E+01  0.13426668753E+02  0.24122926296E+02  0.51100000000E-03 0.  1.
         12    1    3    3    0    0 -0.13494080872E+02  0.19435404913E+02 -0.99397101175E+01  0.25663651727E+02  0.00000000000E+00 0. -1.
</event>
<event>
 7    1  0.2976321E-013  0.7246158E+02  0.7816164E-02  0.1226708E+00
        -11   -1    0    0    0    0  0.00000000000E+00  0.00000000000E+00  0.45593999997E+02  0.45594000000E+02  0.51100000000E-03 0.  1.
         11   -1    0    0    0    0 -0.00000000000E+00 -0.00000000000E+00 -0.45593999997E+02  0.45594000000E+02  0.51100000000E-03 0. -1.
    9900012    2    1    2    0    0  0.63759665009E+01 -0.87910392132E+01  0.15255935844E+02  0.72461577551E+02  0.70000009453E+02 0.  0.
         12    1    1    2    0    0 -0.63759665009E+01  0.87910392132E+01 -0.15255935844E+02  0.18726422449E+02  0.00000000000E+00 0. -1.
         11    1    3    3    0    0  0.95133167374E+01 -0.37607489921E+01  0.65672901136E+01  0.12156304045E+02  0.51100000000E-03 0. -1.
        -11    1    3    3    0    0 -0.68543283919E+01 -0.12395272933E+02  0.32313443337E+02  0.35281485645E+02  0.51100000000E-03 0.  1.
        -12    1    3    3    0    0  0.37169781553E+01  0.73649827114E+01 -0.23624797607E+02  0.25023787861E+02  0.00000000000E+00 0.  1.
</event>
<event>
 7    1  0.2976321E-013  0.7246157E+02  0.7816164E-02  0.1226708E+00
        -11   -1    0    0    0    0  0.00000000000E+00  0.00000000000E+00  0.45593999997E+02  0.45594000000E+02  0.51100000000E-03 0.  1.
         11   -1    0    0    0    0 -0.00000000000E+00 -0.00000000000E+00 -0.45593999997E+02  0.45594000000E+02  0.51100000000E-03 0. -1.
    9900012    2    1    2    0    0 -0.18516895706E+02 -0.89488603416E+00  0.26462949023E+01  0.72461571502E+02  0.70000001573E+02 0.  0.
         12    1    1    2    0    0  0.18516895706E+02  0.89488603416E+00 -0.26462949023E+01  0.18726428498E+02  0.00000000000E+00 0. -1.
         11    1    3    3    0    0 -0.13343639223E+01 -0.24331634861E+02  0.15680443240E+02  0.28977323592E+02  0.51100000000E-03 0. -1.
        -11    1    3    3    0    0 -0.18647445011E+01 -0.10359214601E+01  0.76671346218E+01  0.79583515187E+01  0.51100000000E-03 0.  1.
        -12    1    3    3    0    0 -0.15317787283E+02  0.24472670287E+02 -0.20701282959E+02  0.35525896391E+02  0.00000000000E+00 0.  1.
</event>
<event>
 7    1  0.2976321E-013  0.7246159E+02  0.7816164E-02  0.1226708E+00
        -11   -1    0    0    0    0  0.00000000000E+00  0.00000000000E+00  0.45593999997E+02  0.45594000000E+02  0.51100000000E-03 0. -1.
         11   -1    0    0    0    0 -0.00000000000E+00 -0.00000000000E+00 -0.45593999997E+02  0.45594000000E+02  0.51100000000E-03 0.  1.
    9900012    2    1    2    0    0 -0.50487626338E+01 -0.11207952281E+02 -0.14126929842E+02  0.72461592303E+02  0.70000028671E+02 0.  0.
         12    1    1    2    0    0  0.50487626338E+01  0.11207952281E+02  0.14126929842E+02  0.18726407697E+02  0.00000000000E+00 0. -1.
         11    1    3    3    0    0  0.31597671380E-01 -0.17513722873E+02 -0.11174975967E+01  0.17549367180E+02  0.51100000000E-03 0. -1.
        -11    1    3    3    0    0 -0.41882262054E+01 -0.19703042857E+02 -0.19558801062E+02  0.28076642175E+02  0.51100000000E-03 0.  1.
         12    1    3    3    0    0 -0.89213409976E+00  0.26008813449E+02  0.65493688170E+01  0.26835582948E+02  0.00000000000E+00 0. -1.
</event>
<event>
 7    1  0.2976321E-013  0.7246157E+02  0.7816164E-02  0.1226708E+00
        -11   -1    0    0    0    0  0.00000000000E+00  0.00000000000E+00  0.45593999997E+02  0.45594000000E+02  0.51100000000E-03 0.  1.
         11   -1    0    0    0    0 -0.00000000000E+00 -0.00000000000E+00 -0.45593999997E+02  0.45594000000E+02  0.51100000000E-03 0. -1.
    9900012    2    1    2    0    0 -0.11057407539E+00  0.18648455753E+02  0.17035828409E+01  0.72461566194E+02  0.69999994659E+02 0.  0.
         12    1    1    2    0    0  0.11057407539E+00 -0.18648455753E+02 -0.17035828409E+01  0.18726433806E+02  0.00000000000E+00 0. -1.
         11    1    3    3    0    0  0.13717499663E+02 -0.98458330824E+01 -0.55815171789E+01  0.17783800504E+02  0.51100000000E-03 0. -1.
        -11    1    3    3    0    0 -0.93165646225E+01 -0.10881646327E+02  0.41813398923E+01  0.14922875283E+02  0.51100000000E-03 0.  1.
         12    1    3    3    0    0 -0.45115091158E+01  0.39375935162E+02  0.31037601276E+01  0.39754890407E+02  0.00000000000E+00 0. -1.
</event>
<event>
 7    1  0.4374915E-013  0.7246160E+02  0.7816164E-02  0.1226708E+00
        -11   -1    0    0    0    0  0.00000000000E+00  0.00000000000E+00  0.45593999997E+02  0.45594000000E+02  0.51100000000E-03 0.  1.
         11   -1    0    0    0    0 -0.00000000000E+00 -0.00000000000E+00 -0.45593999997E+02  0.45594000000E+02  0.51100000000E-03 0. -1.
    9900012    2    1    2    0    0 -0.31116973837E+01 -0.17262500148E+02  0.65575595267E+01  0.72461597278E+02  0.70000035151E+02 0.  0.
         12    1    1    2    0    0  0.31116973837E+01  0.17262500148E+02 -0.65575595267E+01  0.18726402722E+02  0.00000000000E+00 0. -1.
         11    1    3    3    0    0  0.12530763068E+02  0.17152027676E+02 -0.73678935212E+01  0.22483281159E+02  0.51100000000E-03 0. -1.
        -11    1    3    3    0    0  0.38605618621E+01 -0.39303428628E+00 -0.50863470522E+01  0.63976042733E+01  0.51100000000E-03 0.  1.
        -12    1    3    3    0    0 -0.19503022314E+02 -0.34021493538E+02  0.19011800100E+02  0.43580711846E+02  0.00000000000E+00 0.  1.
</event>
<event>
 7    1  0.2976321E-013  0.7246160E+02  0.7816164E-02  0.1226708E+00
        -11   -1    0    0    0    0  0.00000000000E+00  0.00000000000E+00  0.45593999997E+02  0.45594000000E+02  0.51100000000E-03 0. -1.
         11   -1    0    0    0    0 -0.00000000000E+00 -0.00000000000E+00 -0.45593999997E+02  0.45594000000E+02  0.51100000000E-03 0.  1.
    9900012    2    1    2    0    0  0.50655066477E+01  0.10524545554E+02  0.14637367287E+02  0.72461603181E+02  0.70000042841E+02 0.  0.
         12    1    1    2    0    0 -0.50655066477E+01 -0.10524545554E+02 -0.14637367287E+02  0.18726396819E+02  0.00000000000E+00 0. -1.
         11    1    3    3    0    0 -0.66797070588E+01  0.13437348025E+02 -0.94475280998E+01  0.17732360130E+02  0.51100000000E-03 0. -1.
        -11    1    3    3    0    0 -0.11692601700E+02  0.15051340030E+02  0.13512522763E+02  0.23363391083E+02  0.51100000000E-03 0.  1.
        -12    1    3    3    0    0  0.23437815407E+02 -0.17964142500E+02  0.10572372624E+02  0.31365851969E+02  0.00000000000E+00 0.  1.
</event>
<event>
 7    1  0.2976321E-013  0.7246160E+02  0.7816164E-02  0.1226708E+00
        -11   -1    0    0    0    0  0.00000000000E+00  0.00000000000E+00  0.45593999997E+02  0.45594000000E+02  0.51100000000E-03 0.  1.
         11   -1    0    0    0    0 -0.00000000000E+00 -0.00000000000E+00 -0.45593999997E+02  0.45594000000E+02  0.51100000000E-03 0. -1.
    9900012    2    1    2    0    0 -0.12917007759E+02 -0.93813553436E+01  0.97887245283E+01  0.72461600308E+02  0.70000039098E+02 0.  0.
         12    1    1    2    0    0  0.12917007759E+02  0.93813553436E+01 -0.97887245283E+01  0.18726399692E+02  0.00000000000E+00 0. -1.
         11    1    3    3    0    0  0.74561845552E-01  0.11618230002E+02 -0.12635795159E+01  0.11686978279E+02  0.51100000000E-03 0. -1.
        -11    1    3    3    0    0  0.21346811784E+02 -0.61061243486E+01  0.21906457888E+01  0.22310761017E+02  0.51100000000E-03 0.  1.
        -12    1    3    3    0    0 -0.34338381389E+02 -0.14893460997E+02  0.88616582554E+01  0.38463861012E+02  0.00000000000E+00 0.  1.
</event>
<event>
 7    1  0.2976321E-013  0.7246142E+02  0.7816164E-02  0.1226708E+00
        -11   -1    0    0    0    0  0.00000000000E+00  0.00000000000E+00  0.45593999997E+02  0.45594000000E+02  0.51100000000E-03 0.  1.
         11   -1    0    0    0    0 -0.00000000000E+00 -0.00000000000E+00 -0.45593999997E+02  0.45594000000E+02  0.51100000000E-03 0. -1.
    9900012    2    1    2    0    0 -0.18457869743E+01 -0.17676079640E+02 -0.59020349495E+01  0.72461421627E+02  0.69999806333E+02 0.  0.
         12    1    1    2    0    0  0.18457869743E+01  0.17676079640E+02  0.59020349495E+01  0.18726578373E+02  0.00000000000E+00 0. -1.
         11    1    3    3    0    0 -0.25334403042E+02 -0.12777247352E+02 -0.64594996382E+01  0.29100088716E+02  0.51100000000E-03 0. -1.
        -11    1    3    3    0    0  0.35226278252E+01  0.14779675029E+02 -0.14087088388E+01  0.15258838803E+02  0.51100000000E-03 0.  1.
        -12    1    3    3    0    0  0.19965988243E+02 -0.19678507318E+02  0.19661735275E+01  0.28102494108E+02  0.00000000000E+00 0.  1.
</event>
<event>
 7    1  0.2976321E-013  0.7246153E+02  0.7816164E-02  0.1226708E+00
        -11   -1    0    0    0    0  0.00000000000E+00  0.00000000000E+00  0.45593999997E+02  0.45594000000E+02  0.51100000000E-03 0.  1.
         11   -1    0    0    0    0 -0.00000000000E+00 -0.00000000000E+00 -0.45593999997E+02  0.45594000000E+02  0.51100000000E-03 0. -1.
    9900012    2    1    2    0    0 -0.92453443258E+01  0.16127278776E+02  0.22616817634E+01  0.72461528981E+02  0.69999946182E+02 0.  0.
         12    1    1    2    0    0  0.92453443258E+01 -0.16127278776E+02 -0.22616817634E+01  0.18726471019E+02  0.00000000000E+00 0. -1.
         11    1    3    3    0    0  0.11825273192E+02  0.86703657447E+01 -0.36660293150E+01  0.15114631964E+02  0.51100000000E-03 0. -1.
        -11    1    3    3    0    0 -0.96543100683E+00 -0.13241870015E+02 -0.16227426384E+02  0.20966843964E+02  0.51100000000E-03 0.  1.
         12    1    3    3    0    0 -0.20105186511E+02  0.20698783046E+02  0.22155137462E+02  0.36380053053E+02  0.00000000000E+00 0. -1.
</event>
<event>
 7    1  0.2976321E-013  0.7246105E+02  0.7816164E-02  0.1226709E+00
        -11   -1    0    0    0    0  0.00000000000E+00  0.00000000000E+00  0.45593999997E+02  0.45594000000E+02  0.51100000000E-03 0.  1.
         11   -1    0    0    0    0 -0.00000000000E+00 -0.00000000000E+00 -0.45593999997E+02  0.45594000000E+02  0.51100000000E-03 0. -1.
    9900012    2    1    2    0    0 -0.61012904071E+01  0.11608595566E+01  0.17667073680E+02  0.72461045310E+02  0.69999316107E+02 0.  0.
         12    1    1    2    0    0  0.61012904071E+01 -0.11608595566E+01 -0.17667073680E+02  0.18726954690E+02  0.00000000000E+00 0. -1.
         11    1    3    3    0    0  0.10133676082E+01  0.13777548389E+02  0.11087667906E+00  0.13815210727E+02  0.51100000000E-03 0. -1.
        -11    1    3    3    0    0  0.17415049970E+02 -0.18629751946E+02  0.21155517344E+02  0.33134687827E+02  0.51100000000E-03 0.  1.
         12    1    3    3    0    0 -0.24529707986E+02  0.60130631130E+01 -0.35993203431E+01  0.25511146756E+02  0.00000000000E+00 0. -1.
</event>
<event>
 7    1  0.2976321E-013  0.7246161E+02  0.7816164E-02  0.1226708E+00
        -11   -1    0    0    0    0  0.00000000000E+00  0.00000000000E+00  0.45593999997E+02  0.45594000000E+02  0.51100000000E-03 0. -1.
         11   -1    0    0    0    0 -0.00000000000E+00 -0.00000000000E+00 -0.45593999997E+02  0.45594000000E+02  0.51100000000E-03 0.  1.
    9900012    2    1    2    0    0 -0.10519331537E+02  0.42151960163E+01 -0.14908167963E+02  0.72461609919E+02  0.70000051619E+02 0.  0.
         12    1    1    2    0    0  0.10519331537E+02 -0.42151960163E+01  0.14908167963E+02  0.18726390081E+02  0.00000000000E+00 0. -1.
         11    1    3    3    0    0 -0.60901554774E+01 -0.88139924638E+01  0.31275454902E+01  0.11160555450E+02  0.51100000000E-03 0. -1.
        -11    1    3    3    0    0  0.15346974161E+02 -0.79200906983E+01  0.10937744342E+02  0.20442399667E+02  0.51100000000E-03 0.  1.
         12    1    3    3    0    0 -0.19776150221E+02  0.20949279178E+02 -0.28973457795E+02  0.40858654803E+02  0.00000000000E+00 0. -1.
</event>
<event>
 7    1  0.2976321E-013  0.7246156E+02  0.7816164E-02  0.1226708E+00
        -11   -1    0    0    0    0  0.00000000000E+00  0.00000000000E+00  0.45593999997E+02  0.45594000000E+02  0.51100000000E-03 0. -1.
         11   -1    0    0    0    0 -0.00000000000E+00 -0.00000000000E+00 -0.45593999997E+02  0.45594000000E+02  0.51100000000E-03 0.  1.
    9900012    2    1    2    0    0 -0.23692016982E+01  0.73268777695E+01 -0.17069953411E+02  0.72461559762E+02  0.69999986280E+02 0.  0.
         12    1    1    2    0    0  0.23692016982E+01 -0.73268777695E+01  0.17069953411E+02  0.18726440238E+02  0.00000000000E+00 0. -1.
         11    1    3    3    0    0  0.64939532628E+00 -0.59496078388E+01 -0.17257554185E+02  0.18265889643E+02  0.51100000000E-03 0.  1.
        -11    1    3    3    0    0 -0.15225740144E+02 -0.16057041156E+02 -0.27017524595E+01  0.22292402298E+02  0.51100000000E-03 0. -1.
        -12    1    3    3    0    0  0.12207143119E+02  0.29333526764E+02  0.28893532340E+01  0.31903267821E+02  0.00000000000E+00 0.  1.
</event>
<event>
 7    1  0.2976321E-013  0.7246154E+02  0.7816164E-02  0.1226708E+00
        -11   -1    0    0    0    0  0.00000000000E+00  0.00000000000E+00  0.45593999997E+02  0.45594000000E+02  0.51100000000E-03 0. -1.
         11   -1    0    0    0    0 -0.00000000000E+00 -0.00000000000E+00 -0.45593999997E+02  0.45594000000E+02  0.51100000000E-03 0.  1.
    9900012    2    1    2    0    0 -0.10531240676E+01 -0.90020179026E+01 -0.16387036557E+02  0.72461538408E+02  0.69999958462E+02 0.  0.
         12    1    1    2    0    0  0.10531240676E+01  0.90020179026E+01  0.16387036557E+02  0.18726461592E+02  0.00000000000E+00 0. -1.
         11    1    3    3    0    0 -0.93371138087E+01 -0.18954141284E+02 -0.47615170368E+01  0.21659021466E+02  0.51100000000E-03 0. -1.
        -11    1    3    3    0    0  0.15518811349E+02 -0.28746271837E+01 -0.25876320363E+02  0.30309749965E+02  0.51100000000E-03 0.  1.
         12    1    3    3    0    0 -0.72348216078E+01  0.12826750565E+02  0.14250800842E+02  0.20492766978E+02  0.00000000000E+00 0. -1.
</event>
<event>
 7    1  0.2976321E-013  0.7246158E+02  0.7816164E-02  0.1226708E+00
        -11   -1    0    0    0    0  0.00000000000E+00  0.00000000000E+00  0.45593999997E+02  0.45594000000E+02  0.51100000000E-03 0.  1.
         11   -1    0    0    0    0 -0.00000000000E+00 -0.00000000000E+00 -0.45593999997E+02  0.45594000000E+02  0.51100000000E-03 0. -1.
    9900012    2    1    2    0    0 -0.83778171029E+01 -0.57312713184E+01  0.15736691256E+02  0.72461581709E+02  0.70000014869E+02 0.  0.
         12    1    1    2    0    0  0.83778171029E+01  0.57312713184E+01 -0.15736691256E+02  0.18726418291E+02  0.00000000000E+00 0. -1.
         11    1    3    3    0    0 -0.11040888569E+02  0.14552403296E+02 -0.13328089706E+02  0.22612201077E+02  0.51100000000E-03 0. -1.
        -11    1    3    3    0    0 -0.11230531925E+02 -0.10245057981E+02 -0.10077558414E+01  0.15234882095E+02  0.51100000000E-03 0.  1.
        -12    1    3    3    0    0  0.13893603391E+02 -0.10038616633E+02  0.30072536804E+02  0.34614498536E+02  0.00000000000E+00 0.  1.
</event>
<event>
 7    1  0.2976321E-013  0.7246156E+02  0.7816164E-02  0.1226708E+00
        -11   -1    0    0    0    0  0.00000000000E+00  0.00000000000E+00  0.45593999997E+02  0.45594000000E+02  0.51100000000E-03 0. -1.
         11   -1    0    0    0    0 -0.00000000000E+00 -0.00000000000E+00 -0.45593999997E+02  0.45594000000E+02  0.51100000000E-03 0.  1.
    9900012    2    1    2    0    0  0.97810584861E+01 -0.30070216607E+01 -0.15683376380E+02  0.72461559359E+02  0.69999985755E+02 0.  0.
         12    1    1    2    0    0 -0.97810584861E+01  0.30070216607E+01  0.15683376380E+02  0.18726440641E+02  0.00000000000E+00 0. -1.
         11    1    3    3    0    0  0.18891845958E+02  0.87350783808E+01 -0.16631961035E+02  0.26642551795E+02  0.51100000000E-03 0. -1.
        -11    1    3    3    0    0  0.47512690207E+00  0.15892029141E+02  0.40461952259E+01  0.16405914539E+02  0.51100000000E-03 0.  1.
        -12    1    3    3    0    0 -0.95859143738E+01 -0.27634129183E+02 -0.30976105717E+01  0.29413093026E+02  0.00000000000E+00 0.  1.
</event>
<event>
 7    1  0.2976321E-013  0.7246161E+02  0.7816164E-02  0.1226708E+00
        -11   -1    0    0    0    0  0.00000000000E+00  0.00000000000E+00  0.45593999997E+02  0.45594000000E+02  0.51100000000E-03 0. -1.
         11   -1    0    0    0    0 -0.00000000000E+00 -0.00000000000E+00 -0.45593999997E+02  0.45594000000E+02  0.51100000000E-03 0.  1.
    9900012    2    1    2    0    0  0.69799774803E+01  0.81794014496E+01 -0.15331504608E+02  0.72461608804E+02  0.70000050166E+02 0.  0.
         12    1    1    2    0    0 -0.69799774803E+01 -0.81794014496E+01  0.15331504608E+02  0.18726391196E+02  0.00000000000E+00 0. -1.
         11    1    3    3    0    0  0.28152789835E+01 -0.37600126081E+01  0.92890025215E+01  0.10409085391E+02  0.51100000000E-03 0. -1.
        -11    1    3    3    0    0  0.16695699621E+02 -0.12262575161E+02  0.54993895679E+01  0.21432695147E+02  0.51100000000E-03 0.  1.
         12    1    3    3    0    0 -0.12531001124E+02  0.24201989219E+02 -0.30119896697E+02  0.40619828266E+02  0.00000000000E+00 0. -1.
</event>
<event>
 7    1  0.2976321E-013  0.7246154E+02  0.7816164E-02  0.1226708E+00
        -11   -1    0    0    0    0  0.00000000000E+00  0.00000000000E+00  0.45593999997E+02  0.45594000000E+02  0.51100000000E-03 0.  1.
         11   -1    0    0    0    0 -0.00000000000E+00 -0.00000000000E+00 -0.45593999997E+02  0.45594000000E+02  0.51100000000E-03 0. -1.
    9900012    2    1    2    0    0  0.14937176776E+02 -0.94052715746E+01  0.62531410742E+01  0.72461543936E+02  0.69999965663E+02 0.  0.
         12    1    1    2    0    0 -0.14937176776E+02  0.94052715746E+01 -0.62531410742E+01  0.18726456064E+02  0.00000000000E+00 0. -1.
         11    1    3    3    0    0  0.22569849126E+02  0.25577429655E+02  0.10629851411E+02  0.35729493959E+02  0.51100000000E-03 0. -1.
        -11    1    3    3    0    0 -0.86541577127E+00 -0.31332170134E+01 -0.25302607333E+01  0.41192490760E+01  0.51100000000E-03 0.  1.
        -12    1    3    3    0    0 -0.67672565782E+01 -0.31849484216E+02 -0.18464496033E+01  0.32612800900E+02  0.00000000000E+00 0.  1.
</event>
<event>
 7    1  0.2976321E-013  0.7246135E+02  0.7816164E-02  0.1226709E+00
        -11   -1    0    0    0    0  0.00000000000E+00  0.00000000000E+00  0.45593999997E+02  0.45594000000E+02  0.51100000000E-03 0.  1.
         11   -1    0    0    0    0 -0.00000000000E+00 -0.00000000000E+00 -0.45593999997E+02  0.45594000000E+02  0.51100000000E-03 0. -1.
    9900012    2    1    2    0    0  0.89007914104E+01  0.12723846322E+02 -0.10467427692E+02  0.72461350661E+02  0.69999713887E+02 0.  0.
         12    1    1    2    0    0 -0.89007914104E+01 -0.12723846322E+02  0.10467427692E+02  0.18726649339E+02  0.00000000000E+00 0. -1.
         11    1    3    3    0    0  0.72806090913E+01 -0.18448116432E+02 -0.47097650532E+01  0.20384360568E+02  0.51100000000E-03 0. -1.
        -11    1    3    3    0    0  0.19004574414E+02  0.41282129052E+01 -0.41614395894E+01  0.19888025798E+02  0.51100000000E-03 0.  1.
         12    1    3    3    0    0 -0.17384392095E+02  0.27043749849E+02 -0.15962230498E+01  0.32188964295E+02  0.00000000000E+00 0. -1.
</event>
<event>
 7    1  0.2976321E-013  0.7246157E+02  0.7816164E-02  0.1226708E+00
        -11   -1    0    0    0    0  0.00000000000E+00  0.00000000000E+00  0.45593999997E+02  0.45594000000E+02  0.51100000000E-03 0.  1.
         11   -1    0    0    0    0 -0.00000000000E+00 -0.00000000000E+00 -0.45593999997E+02  0.45594000000E+02  0.51100000000E-03 0. -1.
    9900012    2    1    2    0    0 -0.46279995170E+01 -0.12162833567E+02  0.13465742733E+02  0.72461571423E+02  0.70000001470E+02 0.  0.
         12    1    1    2    0    0  0.46279995170E+01  0.12162833567E+02 -0.13465742733E+02  0.18726428577E+02  0.00000000000E+00 0. -1.
         11    1    3    3    0    0  0.30606865308E+01 -0.75253919156E+01  0.12809557754E+02  0.15168523186E+02  0.51100000000E-03 0. -1.
        -11    1    3    3    0    0  0.47527462248E+01  0.23720449207E+02  0.79756417422E+01  0.25472714200E+02  0.51100000000E-03 0.  1.
         12    1    3    3    0    0 -0.12441432273E+02 -0.28357890858E+02 -0.73194567626E+01  0.31820334037E+02  0.00000000000E+00 0. -1.
</event>
<event>
 7    1  0.2976321E-013  0.7246156E+02  0.7816164E-02  0.1226708E+00
        -11   -1    0    0    0    0  0.00000000000E+00  0.00000000000E+00  0.45593999997E+02  0.45594000000E+02  0.51100000000E-03 0. -1.
         11   -1    0    0    0    0 -0.00000000000E+00 -0.00000000000E+00 -0.45593999997E+02  0.45594000000E+02  0.51100000000E-03 0.  1.
    9900012    2    1    2    0    0 -0.43981143564E+01 -0.16818975745E+02  0.69611825253E+01  0.72461563682E+02  0.69999991387E+02 0.  0.
         12    1    1    2    0    0  0.43981143564E+01  0.16818975745E+02 -0.69611825253E+01  0.18726436318E+02  0.00000000000E+00 0. -1.
         11    1    3    3    0    0  0.44150362456E+01 -0.19099129729E+02  0.23869240589E+02  0.30887051462E+02  0.51100000000E-03 0. -1.
        -11    1    3    3    0    0  0.94932287547E+01  0.99302555184E+01  0.23350215454E+01  0.13934980902E+02  0.51100000000E-03 0.  1.
        -12    1    3    3    0    0 -0.18306379357E+02 -0.76501015345E+01 -0.19243079609E+02  0.27639531318E+02  0.00000000000E+00 0.  1.
</event>
<event>
 7    1  0.2976321E-013  0.7246157E+02  0.7816164E-02  0.1226708E+00
        -11   -1    0    0    0    0  0.00000000000E+00  0.00000000000E+00  0.45593999997E+02  0.45594000000E+02  0.51100000000E-03 0. -1.
         11   -1    0    0    0    0 -0.00000000000E+00 -0.00000000000E+00 -0.45593999997E+02  0.45594000000E+02  0.51100000000E-03 0.  1.
    9900012    2    1    2    0    0  0.64116828677E+01  0.27113916121E+00 -0.17592499246E+02  0.72461568856E+02  0.69999998127E+02 0.  0.
         12    1    1    2    0    0 -0.64116828677E+01 -0.27113916121E+00  0.17592499246E+02  0.18726431144E+02  0.00000000000E+00 0. -1.
         11    1    3    3    0    0 -0.39260475595E+01  0.15328330911E+01 -0.27039316877E+02  0.27365819632E+02  0.51100000000E-03 0.  1.
        -11    1    3    3    0    0 -0.15605186078E+01  0.16772777166E+02 -0.66940494974E+01  0.18126543276E+02  0.51100000000E-03 0. -1.
         12    1    3    3    0    0  0.11898249035E+02 -0.18034471096E+02  0.16140867128E+02  0.26969205948E+02  0.00000000000E+00 0. -1.
</event>
<event>
 7    1  0.2976321E-013  0.7246164E+02  0.7816164E-02  0.1226708E+00
        -11   -1    0    0    0    0  0.00000000000E+00  0.00000000000E+00  0.45593999997E+02  0.45594000000E+02  0.51100000000E-03 0.  1.
         11   -1    0    0    0    0 -0.00000000000E+00 -0.00000000000E+00 -0.45593999997E+02  0.45594000000E+02  0.51100000000E-03 0. -1.
    9900012    2    1    2    0    0  0.31937656175E+01 -0.47365762581E+01  0.17833709727E+02  0.72461641675E+02  0.70000092987E+02 0.  0.
         12    1    1    2    0    0 -0.31937656175E+01  0.47365762581E+01 -0.17833709727E+02  0.18726358325E+02  0.00000000000E+00 0. -1.
         11    1    3    3    0    0 -0.10293594115E+02  0.74861047669E+00  0.10757988914E+02  0.14908146202E+02  0.51100000000E-03 0. -1.
        -11    1    3    3    0    0 -0.84824850873E+01 -0.88412631998E+01  0.25755445955E+02  0.28521281262E+02  0.51100000000E-03 0.  1.
         12    1    3    3    0    0  0.21969844820E+02  0.33560764650E+01 -0.18679725141E+02  0.29032214211E+02  0.00000000000E+00 0. -1.
</event>
<event>
 7    1  0.2976321E-013  0.7246185E+02  0.7816164E-02  0.1226707E+00
        -11   -1    0    0    0    0  0.00000000000E+00  0.00000000000E+00  0.45593999997E+02  0.45594000000E+02  0.51100000000E-03 0. -1.
         11   -1    0    0    0    0 -0.00000000000E+00 -0.00000000000E+00 -0.45593999997E+02  0.45594000000E+02  0.51100000000E-03 0.  1.
    9900012    2    1    2    0    0  0.11165239613E+02 -0.35711795677E+01 -0.14603183229E+02  0.72461845575E+02  0.70000358604E+02 0.  0.
         12    1    1    2    0    0 -0.11165239613E+02  0.35711795677E+01  0.14603183229E+02  0.18726154425E+02  0.00000000000E+00 0. -1.
         11    1    3    3    0    0  0.21944765504E+02  0.28028880325E+01 -0.35536677661E+02  0.41860295911E+02  0.51100000000E-03 0.  1.
        -11    1    3    3    0    0 -0.14388038954E+02 -0.46247346725E+01  0.80807943682E+01  0.17137767463E+02  0.51100000000E-03 0. -1.
        -12    1    3    3    0    0  0.36085130642E+01 -0.17493329277E+01  0.12852700064E+02  0.13463782201E+02  0.00000000000E+00 0.  1.
</event>
<event>
 7    1  0.2976321E-013  0.7246159E+02  0.7816164E-02  0.1226708E+00
        -11   -1    0    0    0    0  0.00000000000E+00  0.00000000000E+00  0.45593999997E+02  0.45594000000E+02  0.51100000000E-03 0. -1.
         11   -1    0    0    0    0 -0.00000000000E+00 -0.00000000000E+00 -0.45593999997E+02  0.45594000000E+02  0.51100000000E-03 0.  1.
    9900012    2    1    2    0    0 -0.16949217589E+01  0.72706928212E+01 -0.17173897414E+02  0.72461588538E+02  0.70000023765E+02 0.  0.
         12    1    1    2    0    0  0.16949217589E+01 -0.72706928212E+01  0.17173897414E+02  0.18726411462E+02  0.00000000000E+00 0. -1.
         11    1    3    3    0    0  0.32240150873E+00 -0.63276021483E+00  0.61946695764E+01  0.62352433508E+01  0.51100000000E-03 0. -1.
        -11    1    3    3    0    0  0.11552244204E+01 -0.22443314941E+02  0.66367539825E+01  0.23432529370E+02  0.51100000000E-03 0.  1.
         12    1    3    3    0    0 -0.31725476880E+01  0.30346767977E+02 -0.30005320973E+02  0.42793815817E+02  0.00000000000E+00 0. -1.
</event>
<event>
 7    1  0.2976321E-013  0.7246148E+02  0.7816164E-02  0.1226708E+00
        -11   -1    0    0    0    0  0.00000000000E+00  0.00000000000E+00  0.45593999997E+02  0.45594000000E+02  0.51100000000E-03 0.  1.
         11   -1    0    0    0    0 -0.00000000000E+00 -0.00000000000E+00 -0.45593999997E+02  0.45594000000E+02  0.51100000000E-03 0. -1.
    9900012    2    1    2    0    0 -0.12527093889E+02 -0.93766776779E+01  0.10287481826E+02  0.72461482761E+02  0.69999885972E+02 0.  0.
         12    1    1    2    0    0  0.12527093889E+02  0.93766776779E+01 -0.10287481826E+02  0.18726517239E+02  0.00000000000E+00 0. -1.
         11    1    3    3    0    0 -0.19775905923E+02 -0.41721580029E+00 -0.36287937268E+01  0.20110411936E+02  0.51100000000E-03 0. -1.
        -11    1    3    3    0    0 -0.66516469648E+01  0.67453819705E+01 -0.14324858701E+02  0.17173996691E+02  0.51100000000E-03 0.  1.
        -12    1    3    3    0    0  0.13900458999E+02 -0.15704843848E+02  0.28241134254E+02  0.35177074134E+02  0.00000000000E+00 0.  1.
</event>
<event>
 7    1  0.2976321E-013  0.7246155E+02  0.7816164E-02  0.1226708E+00
        -11   -1    0    0    0    0  0.00000000000E+00  0.00000000000E+00  0.45593999997E+02  0.45594000000E+02  0.51100000000E-03 0. -1.
         11   -1    0    0    0    0 -0.00000000000E+00 -0.00000000000E+00 -0.45593999997E+02  0.45594000000E+02  0.51100000000E-03 0.  1.
    9900012    2    1    2    0    0 -0.14607233595E+02  0.72966647597E+01 -0.91688196117E+01  0.72461552312E+02  0.69999976575E+02 0.  0.
         12    1    1    2    0    0  0.14607233595E+02 -0.72966647597E+01  0.91688196117E+01  0.18726447688E+02  0.00000000000E+00 0. -1.
         11    1    3    3    0    0 -0.76514791987E+01  0.87211146346E+01 -0.23290010696E+01  0.11833309792E+02  0.51100000000E-03 0. -1.
        -11    1    3    3    0    0  0.27353077160E+01  0.25102302962E+02  0.10655091841E+02  0.27406906150E+02  0.51100000000E-03 0.  1.
         12    1    3    3    0    0 -0.96910621126E+01 -0.26526752837E+02 -0.17494910383E+02  0.33221336370E+02  0.00000000000E+00 0. -1.
</event>
<event>
 7    1  0.2976321E-013  0.7246157E+02  0.7816164E-02  0.1226708E+00
        -11   -1    0    0    0    0  0.00000000000E+00  0.00000000000E+00  0.45593999997E+02  0.45594000000E+02  0.51100000000E-03 0.  1.
         11   -1    0    0    0    0 -0.00000000000E+00 -0.00000000000E+00 -0.45593999997E+02  0.45594000000E+02  0.51100000000E-03 0. -1.
    9900012    2    1    2    0    0 -0.18252327412E+02  0.37744985177E+01 -0.18124695319E+01  0.72461565721E+02  0.69999994042E+02 0.  0.
         12    1    1    2    0    0  0.18252327412E+02 -0.37744985177E+01  0.18124695319E+01  0.18726434279E+02  0.00000000000E+00 0. -1.
         11    1    3    3    0    0  0.22543211801E+01  0.21935442095E+02  0.94843046370E+01  0.24004116701E+02  0.51100000000E-03 0. -1.
        -11    1    3    3    0    0  0.32245189523E+01  0.70256083770E+01 -0.11493834089E+02  0.13851531246E+02  0.51100000000E-03 0.  1.
        -12    1    3    3    0    0 -0.23731167544E+02 -0.25186551954E+02  0.19705991992E+00  0.34605917774E+02  0.00000000000E+00 0.  1.
</event>
<event>
 7    1  0.2976321E-013  0.7246163E+02  0.7816164E-02  0.1226708E+00
        -11   -1    0    0    0    0  0.00000000000E+00  0.00000000000E+00  0.45593999997E+02  0.45594000000E+02  0.51100000000E-03 0.  1.
         11   -1    0    0    0    0 -0.00000000000E+00 -0.00000000000E+00 -0.45593999997E+02  0.45594000000E+02  0.51100000000E-03 0. -1.
    9900012    2    1    2    0    0  0.87676604980E+01  0.12816224329E+02  0.10466592315E+02  0.72461627384E+02  0.70000074370E+02 0.  0.
         12    1    1    2    0    0 -0.87676604980E+01 -0.12816224329E+02 -0.10466592315E+02  0.18726372616E+02  0.00000000000E+00 0. -1.
         11    1    3    3    0    0  0.11464297675E+02 -0.37385296248E+01  0.12519414540E+01  0.12123286791E+02  0.51100000000E-03 0. -1.
        -11    1    3    3    0    0 -0.37333830504E+01  0.31583718399E+02  0.23526134300E+02  0.39559428867E+02  0.51100000000E-03 0.  1.
         12    1    3    3    0    0  0.10367458732E+01 -0.15028964446E+02 -0.14311483439E+02  0.20778911727E+02  0.00000000000E+00 0. -1.
</event>
<event>
 7    1  0.2976321E-013  0.7246183E+02  0.7816164E-02  0.1226707E+00
        -11   -1    0    0    0    0  0.00000000000E+00  0.00000000000E+00  0.45593999997E+02  0.45594000000E+02  0.51100000000E-03 0.  1.
         11   -1    0    0    0    0 -0.00000000000E+00 -0.00000000000E+00 -0.45593999997E+02  0.45594000000E+02  0.51100000000E-03 0. -1.
    9900012    2    1    2    0    0 -0.17775398244E+02  0.58762254532E+01  0.41801131339E+00  0.72461827360E+02  0.70000334875E+02 0.  0.
         12    1    1    2    0    0  0.17775398244E+02 -0.58762254532E+01 -0.41801131339E+00  0.18726172640E+02  0.00000000000E+00 0. -1.
         11    1    3    3    0    0 -0.12680997196E+02  0.27706459143E+02 -0.86055188274E+01  0.31662446569E+02  0.51100000000E-03 0. -1.
        -11    1    3    3    0    0 -0.11000344909E+02  0.21575027769E+01 -0.51301168331E+01  0.12328037367E+02  0.51100000000E-03 0.  1.
         12    1    3    3    0    0  0.59059438613E+01 -0.23987736467E+02  0.14153646974E+02  0.28471343424E+02  0.00000000000E+00 0. -1.
</event>
<event>
 7    1  0.2976321E-013  0.7246149E+02  0.7816164E-02  0.1226708E+00
        -11   -1    0    0    0    0  0.00000000000E+00  0.00000000000E+00  0.45593999997E+02  0.45594000000E+02  0.51100000000E-03 0.  1.
         11   -1    0    0    0    0 -0.00000000000E+00 -0.00000000000E+00 -0.45593999997E+02  0.45594000000E+02  0.51100000000E-03 0. -1.
    9900012    2    1    2    0    0 -0.10079123327E+02 -0.15018660370E+02  0.48511067959E+01  0.72461491423E+02  0.69999897256E+02 0.  0.
         12    1    1    2    0    0  0.10079123327E+02  0.15018660370E+02 -0.48511067959E+01  0.18726508577E+02  0.00000000000E+00 0. -1.
         11    1    3    3    0    0  0.11597252502E+01 -0.25239055147E+02  0.86509821323E+01  0.26705699008E+02  0.51100000000E-03 0. -1.
        -11    1    3    3    0    0  0.12884307670E+02 -0.77282982638E+01 -0.44866572791E+01  0.15679989540E+02  0.51100000000E-03 0.  1.
         12    1    3    3    0    0 -0.24123156246E+02  0.17948693041E+02  0.68678194267E+00  0.30075802876E+02  0.00000000000E+00 0. -1.
</event>
<event>
 7    1  0.2976321E-013  0.7246158E+02  0.7816164E-02  0.1226708E+00
        -11   -1    0    0    0    0  0.00000000000E+00  0.00000000000E+00  0.45593999997E+02  0.45594000000E+02  0.51100000000E-03 0.  1.
         11   -1    0    0    0    0 -0.00000000000E+00 -0.00000000000E+00 -0.45593999997E+02  0.45594000000E+02  0.51100000000E-03 0. -1.
    9900012    2    1    2    0    0  0.48650132672E+01 -0.17411767302E+02  0.48827064669E+01  0.72461579704E+02  0.70000012258E+02 0.  0.
         12    1    1    2    0    0 -0.48650132672E+01  0.17411767302E+02 -0.48827064669E+01  0.18726420296E+02  0.00000000000E+00 0. -1.
         11    1    3    3    0    0  0.12418208922E+02 -0.20439124691E+02  0.25773194061E+02  0.35160023653E+02  0.51100000000E-03 0. -1.
        -11    1    3    3    0    0 -0.71662202932E+01  0.88371221448E+01  0.37521850497E+01  0.11980331131E+02  0.51100000000E-03 0.  1.
        -12    1    3    3    0    0 -0.38697536146E+00 -0.58097647558E+01 -0.24642672643E+02  0.25321224920E+02  0.00000000000E+00 0.  1.
</event>
<event>
 7    1  0.2976321E-013  0.7246158E+02  0.7816164E-02  0.1226708E+00
        -11   -1    0    0    0    0  0.00000000000E+00  0.00000000000E+00  0.45593999997E+02  0.45594000000E+02  0.51100000000E-03 0. -1.
         11   -1    0    0    0    0 -0.00000000000E+00 -0.00000000000E+00 -0.45593999997E+02  0.45594000000E+02  0.51100000000E-03 0.  1.
    9900012    2    1    2    0    0  0.89436581171E+01  0.58786072776E+01 -0.15366582106E+02  0.72461577766E+02  0.70000009734E+02 0.  0.
         12    1    1    2    0    0 -0.89436581171E+01 -0.58786072776E+01  0.15366582106E+02  0.18726422234E+02  0.00000000000E+00 0. -1.
         11    1    3    3    0    0  0.11477975698E+01 -0.15849973284E+02 -0.19323419175E+02  0.25018665456E+02  0.51100000000E-03 0. -1.
        -11    1    3    3    0    0  0.20680237260E+02  0.92353688270E+01 -0.99505894350E+01  0.24738198820E+02  0.51100000000E-03 0.  1.
        -12    1    3    3    0    0 -0.12884376713E+02  0.12493211734E+02  0.13907426503E+02  0.22704713490E+02  0.00000000000E+00 0.  1.
</event>
<event>
 7    1  0.2976321E-013  0.7246162E+02  0.7816164E-02  0.1226708E+00
        -11   -1    0    0    0    0  0.00000000000E+00  0.00000000000E+00  0.45593999997E+02  0.45594000000E+02  0.51100000000E-03 0.  1.
         11   -1    0    0    0    0 -0.00000000000E+00 -0.00000000000E+00 -0.45593999997E+02  0.45594000000E+02  0.51100000000E-03 0. -1.
    9900012    2    1    2    0    0  0.13792061705E+01 -0.80342914992E+01  0.16858984879E+02  0.72461616988E+02  0.70000060828E+02 0.  0.
         12    1    1    2    0    0 -0.13792061705E+01  0.80342914992E+01 -0.16858984879E+02  0.18726383012E+02  0.00000000000E+00 0. -1.
         11    1    3    3    0    0 -0.15217578573E+02  0.15103602881E+01  0.35125454724E+02  0.38309965487E+02  0.51100000000E-03 0.  1.
        -11    1    3    3    0    0  0.13497776360E+02 -0.16297048808E+02 -0.11406490695E+02  0.24039380124E+02  0.51100000000E-03 0. -1.
        -12    1    3    3    0    0  0.30990083835E+01  0.67523970204E+01 -0.68599791496E+01  0.10112271378E+02  0.00000000000E+00 0.  1.
</event>
<event>
 7    1  0.2976321E-013  0.7246158E+02  0.7816164E-02  0.1226708E+00
        -11   -1    0    0    0    0  0.00000000000E+00  0.00000000000E+00  0.45593999997E+02  0.45594000000E+02  0.51100000000E-03 0. -1.
         11   -1    0    0    0    0 -0.00000000000E+00 -0.00000000000E+00 -0.45593999997E+02  0.45594000000E+02  0.51100000000E-03 0.  1.
    9900012    2    1    2    0    0  0.18251987286E+01  0.18535548017E+02 -0.19444854261E+01  0.72461577110E+02  0.70000008878E+02 0.  0.
         12    1    1    2    0    0 -0.18251987286E+01 -0.18535548017E+02  0.19444854261E+01  0.18726422890E+02  0.00000000000E+00 0. -1.
         11    1    3    3    0    0 -0.33244394114E+01 -0.35280821412E+01  0.75900904485E+01  0.90060387669E+01  0.51100000000E-03 0. -1.
        -11    1    3    3    0    0  0.17398805785E+01 -0.17866577832E+02  0.80726115713E+01  0.19682704227E+02  0.51100000000E-03 0.  1.
         12    1    3    3    0    0  0.34097575615E+01  0.39930207990E+02 -0.17607187446E+02  0.43772834116E+02  0.00000000000E+00 0. -1.
</event>
<event>
 7    1  0.2976321E-013  0.7246160E+02  0.7816164E-02  0.1226708E+00
        -11   -1    0    0    0    0  0.00000000000E+00  0.00000000000E+00  0.45593999997E+02  0.45594000000E+02  0.51100000000E-03 0. -1.
         11   -1    0    0    0    0 -0.00000000000E+00 -0.00000000000E+00 -0.45593999997E+02  0.45594000000E+02  0.51100000000E-03 0.  1.
    9900012    2    1    2    0    0 -0.16127596040E+01  0.45853473556E+01 -0.18084573838E+02  0.72461595785E+02  0.70000033206E+02 0.  0.
         12    1    1    2    0    0  0.16127596040E+01 -0.45853473556E+01  0.18084573838E+02  0.18726404215E+02  0.00000000000E+00 0. -1.
         11    1    3    3    0    0 -0.14397859163E+02 -0.19783717944E+02 -0.36450174298E+01  0.24738229453E+02  0.51100000000E-03 0. -1.
        -11    1    3    3    0    0  0.18155574546E+02 -0.15420655940E+01 -0.10326690127E+02  0.20943814901E+02  0.51100000000E-03 0.  1.
         12    1    3    3    0    0 -0.53704749868E+01  0.25911130893E+02 -0.41128662812E+01  0.26779551430E+02  0.00000000000E+00 0. -1.
</event>
<event>
 7    1  0.2976321E-013  0.7246157E+02  0.7816164E-02  0.1226708E+00
        -11   -1    0    0    0    0  0.00000000000E+00  0.00000000000E+00  0.45593999997E+02  0.45594000000E+02  0.51100000000E-03 0. -1.
         11   -1    0    0    0    0 -0.00000000000E+00 -0.00000000000E+00 -0.45593999997E+02  0.45594000000E+02  0.51100000000E-03 0.  1.
    9900012    2    1    2    0    0 -0.13807759153E+02  0.96295125816E+01 -0.82035101609E+01  0.72461566694E+02  0.69999995310E+02 0.  0.
         12    1    1    2    0    0  0.13807759153E+02 -0.96295125816E+01  0.82035101609E+01  0.18726433306E+02  0.00000000000E+00 0. -1.
         11    1    3    3    0    0  0.21489826874E+01 -0.60971791197E+01 -0.11350977379E+01  0.65637007050E+01  0.51100000000E-03 0. -1.
        -11    1    3    3    0    0 -0.18041048638E+02 -0.19830088311E+02 -0.12991715583E+02  0.29790879685E+02  0.51100000000E-03 0.  1.
        -12    1    3    3    0    0  0.20843067970E+01  0.35556780012E+02  0.59233031602E+01  0.36106986304E+02  0.00000000000E+00 0.  1.
</event>
<event>
 7    1  0.2976321E-013  0.7246113E+02  0.7816164E-02  0.1226709E+00
        -11   -1    0    0    0    0  0.00000000000E+00  0.00000000000E+00  0.45593999997E+02  0.45594000000E+02  0.51100000000E-03 0. -1.
         11   -1    0    0    0    0 -0.00000000000E+00 -0.00000000000E+00 -0.45593999997E+02  0.45594000000E+02  0.51100000000E-03 0.  1.
    9900012    2    1    2    0    0  0.18229189964E+02 -0.36209143821E+01  0.22981209506E+01  0.72461127661E+02  0.69999423385E+02 0.  0.
         12    1    1    2    0    0 -0.18229189964E+02  0.36209143821E+01 -0.22981209506E+01  0.18726872339E+02  0.00000000000E+00 0. -1.
         11    1    3    3    0    0  0.75596781066E+01 -0.20052121045E+02  0.27034776233E+01  0.21599654697E+02  0.51100000000E-03 0. -1.
        -11    1    3    3    0    0  0.42892275729E+01 -0.12088328198E+02 -0.13689246424E+02  0.18759547428E+02  0.51100000000E-03 0.  1.
         12    1    3    3    0    0  0.63802842847E+01  0.28519534861E+02  0.13283889751E+02  0.32101925536E+02  0.00000000000E+00 0. -1.
</event>
<event>
 7    1  0.2976321E-013  0.7246154E+02  0.7816164E-02  0.1226708E+00
        -11   -1    0    0    0    0  0.00000000000E+00  0.00000000000E+00  0.45593999997E+02  0.45594000000E+02  0.51100000000E-03 0.  1.
         11   -1    0    0    0    0 -0.00000000000E+00 -0.00000000000E+00 -0.45593999997E+02  0.45594000000E+02  0.51100000000E-03 0. -1.
    9900012    2    1    2    0    0  0.54187336142E+01  0.13974672696E+01  0.17870782815E+02  0.72461535646E+02  0.69999954865E+02 0.  0.
         12    1    1    2    0    0 -0.54187336142E+01 -0.13974672696E+01 -0.17870782815E+02  0.18726464354E+02  0.00000000000E+00 0. -1.
         11    1    3    3    0    0 -0.28600168947E+01 -0.10560639487E+02 -0.64023426020E+01  0.12676623923E+02  0.51100000000E-03 0. -1.
        -11    1    3    3    0    0  0.22751602560E+02 -0.12656807156E+02  0.12802276482E+02  0.29012557106E+02  0.51100000000E-03 0.  1.
         12    1    3    3    0    0 -0.14472852052E+02  0.24614913913E+02  0.11470848936E+02  0.30772354618E+02  0.00000000000E+00 0. -1.
</event>
<event>
 7    1  0.2976321E-013  0.7246158E+02  0.7816164E-02  0.1226708E+00
        -11   -1    0    0    0    0  0.00000000000E+00  0.00000000000E+00  0.45593999997E+02  0.45594000000E+02  0.51100000000E-03 0. -1.
         11   -1    0    0    0    0 -0.00000000000E+00 -0.00000000000E+00 -0.45593999997E+02  0.45594000000E+02  0.51100000000E-03 0.  1.
    9900012    2    1    2    0    0 -0.17990412249E+02  0.25611796919E+01 -0.45237343350E+01  0.72461581586E+02  0.70000014709E+02 0.  0.
         12    1    1    2    0    0  0.17990412249E+02 -0.25611796919E+01  0.45237343350E+01  0.18726418414E+02  0.00000000000E+00 0. -1.
         11    1    3    3    0    0  0.90095216946E+01  0.13187738012E+02  0.76217427546E+01  0.17696860680E+02  0.51100000000E-03 0. -1.
        -11    1    3    3    0    0 -0.13640151222E+02  0.16699584055E+02  0.10966367424E+01  0.21590100634E+02  0.51100000000E-03 0.  1.
         12    1    3    3    0    0 -0.13359782721E+02 -0.27326142375E+02 -0.13242113832E+02  0.33174620272E+02  0.00000000000E+00 0. -1.
</event>
<event>
 7    1  0.2976321E-013  0.7246188E+02  0.7816164E-02  0.1226707E+00
        -11   -1    0    0    0    0  0.00000000000E+00  0.00000000000E+00  0.45593999997E+02  0.45594000000E+02  0.51100000000E-03 0. -1.
         11   -1    0    0    0    0 -0.00000000000E+00 -0.00000000000E+00 -0.45593999997E+02  0.45594000000E+02  0.51100000000E-03 0.  1.
    9900012    2    1    2    0    0 -0.15130127185E+02  0.68746374710E+00 -0.11012451289E+02  0.72461883520E+02  0.70000408033E+02 0.  0.
         12    1    1    2    0    0  0.15130127185E+02 -0.68746374710E+00  0.11012451289E+02  0.18726116480E+02  0.00000000000E+00 0. -1.
         11    1    3    3    0    0 -0.19237160296E+02  0.20809108854E+01  0.87107282386E+01  0.21219691635E+02  0.51100000000E-03 0. -1.
        -11    1    3    3    0    0 -0.13499874097E+02 -0.99888343896E+01  0.69258886706E+01  0.18165663964E+02  0.51100000000E-03 0.  1.
         12    1    3    3    0    0  0.17606907209E+02  0.85953872513E+01 -0.26649068199E+02  0.33076527921E+02  0.00000000000E+00 0. -1.
</event>
<event>
 7    1  0.2976321E-013  0.7246160E+02  0.7816164E-02  0.1226708E+00
        -11   -1    0    0    0    0  0.00000000000E+00  0.00000000000E+00  0.45593999997E+02  0.45594000000E+02  0.51100000000E-03 0. -1.
         11   -1    0    0    0    0 -0.00000000000E+00 -0.00000000000E+00 -0.45593999997E+02  0.45594000000E+02  0.51100000000E-03 0.  1.
    9900012    2    1    2    0    0 -0.17379247309E+02  0.67135882956E+01 -0.18887903799E+01  0.72461600615E+02  0.70000039498E+02 0.  0.
         12    1    1    2    0    0  0.17379247309E+02 -0.67135882956E+01  0.18887903799E+01  0.18726399385E+02  0.00000000000E+00 0. -1.
         11    1    3    3    0    0 -0.11559392073E+02 -0.15552872709E+02  0.20816235931E+02  0.28439885252E+02  0.51100000000E-03 0. -1.
        -11    1    3    3    0    0 -0.10689176403E+02 -0.49194725152E+00 -0.16953648067E+02  0.20048109320E+02  0.51100000000E-03 0.  1.
        -12    1    3    3    0    0  0.48693211670E+01  0.22758408256E+02 -0.57513782439E+01  0.23973606042E+02  0.00000000000E+00 0.  1.
</event>
<event>
 7    1  0.2976321E-013  0.7246155E+02  0.7816164E-02  0.1226708E+00
        -11   -1    0    0    0    0  0.00000000000E+00  0.00000000000E+00  0.45593999997E+02  0.45594000000E+02  0.51100000000E-03 0.  1.
         11   -1    0    0    0    0 -0.00000000000E+00 -0.00000000000E+00 -0.45593999997E+02  0.45594000000E+02  0.51100000000E-03 0. -1.
    9900012    2    1    2    0    0 -0.16002139125E+02 -0.83604533682E+01 -0.49713299028E+01  0.72461554579E+02  0.69999979528E+02 0.  0.
         12    1    1    2    0    0  0.16002139125E+02  0.83604533682E+01  0.49713299028E+01  0.18726445421E+02  0.00000000000E+00 0. -1.
         11    1    3    3    0    0 -0.37118026471E+01  0.16271830661E+01  0.11227394858E+01  0.42054426444E+01  0.51100000000E-03 0. -1.
        -11    1    3    3    0    0 -0.29142528981E+02  0.16226523947E+02  0.76096098939E+01  0.34212471963E+02  0.51100000000E-03 0.  1.
         12    1    3    3    0    0  0.16852192503E+02 -0.26214160381E+02 -0.13703679282E+02  0.34043639972E+02  0.00000000000E+00 0. -1.
</event>
<event>
 7    1  0.2976321E-013  0.7246155E+02  0.7816164E-02  0.1226708E+00
        -11   -1    0    0    0    0  0.00000000000E+00  0.00000000000E+00  0.45593999997E+02  0.45594000000E+02  0.51100000000E-03 0. -1.
         11   -1    0    0    0    0 -0.00000000000E+00 -0.00000000000E+00 -0.45593999997E+02  0.45594000000E+02  0.51100000000E-03 0.  1.
    9900012    2    1    2    0    0  0.13796617375E+02 -0.76826964656E+01 -0.10065252905E+02  0.72461553673E+02  0.69999978348E+02 0.  0.
         12    1    1    2    0    0 -0.13796617375E+02  0.76826964656E+01  0.10065252905E+02  0.18726446327E+02  0.00000000000E+00 0. -1.
         11    1    3    3    0    0  0.86915747577E+01 -0.13317386182E+02  0.38958544163E+01  0.16372963336E+02  0.51100000000E-03 0. -1.
        -11    1    3    3    0    0  0.27746264165E+02 -0.57947655824E+01 -0.31550203349E+01  0.28519969089E+02  0.51100000000E-03 0.  1.
         12    1    3    3    0    0 -0.22641221548E+02  0.11429455299E+02 -0.10806086987E+02  0.27568621249E+02  0.00000000000E+00 0. -1.
</event>
<event>
 7    1  0.2976321E-013  0.7246155E+02  0.7816164E-02  0.1226708E+00
        -11   -1    0    0    0    0  0.00000000000E+00  0.00000000000E+00  0.45593999997E+02  0.45594000000E+02  0.51100000000E-03 0.  1.
         11   -1    0    0    0    0 -0.00000000000E+00 -0.00000000000E+00 -0.45593999997E+02  0.45594000000E+02  0.51100000000E-03 0. -1.
    9900012    2    1    2    0    0  0.69061908285E+01 -0.50570368536E+01  0.16655651518E+02  0.72461552900E+02  0.69999977340E+02 0.  0.
         12    1    1    2    0    0 -0.69061908285E+01  0.50570368536E+01 -0.16655651518E+02  0.18726447100E+02  0.00000000000E+00 0. -1.
         11    1    3    3    0    0  0.77060743265E+01 -0.24171538743E+02  0.14338886881E+02  0.29141903575E+02  0.51100000000E-03 0. -1.
        -11    1    3    3    0    0 -0.52104778774E+01 -0.29258798585E+01  0.15948792453E+02  0.17031554058E+02  0.51100000000E-03 0.  1.
         12    1    3    3    0    0  0.44105943794E+01  0.22040381748E+02 -0.13632027816E+02  0.26288095267E+02  0.00000000000E+00 0. -1.
</event>
<event>
 7    1  0.2976321E-013  0.7246158E+02  0.7816164E-02  0.1226708E+00
        -11   -1    0    0    0    0  0.00000000000E+00  0.00000000000E+00  0.45593999997E+02  0.45594000000E+02  0.51100000000E-03 0. -1.
         11   -1    0    0    0    0 -0.00000000000E+00 -0.00000000000E+00 -0.45593999997E+02  0.45594000000E+02  0.51100000000E-03 0.  1.
    9900012    2    1    2    0    0  0.13505024137E+02 -0.59624691351E+01 -0.11521374848E+02  0.72461580334E+02  0.70000013078E+02 0.  0.
         12    1    1    2    0    0 -0.13505024137E+02  0.59624691351E+01  0.11521374848E+02  0.18726419666E+02  0.00000000000E+00 0. -1.
         11    1    3    3    0    0  0.26803748422E+01 -0.66235839984E+01  0.65922822678E+01  0.97218547632E+01  0.51100000000E-03 0. -1.
        -11    1    3    3    0    0 -0.15991348013E+02  0.20640265524E+02 -0.38835292995E+01  0.26397453897E+02  0.51100000000E-03 0.  1.
         12    1    3    3    0    0  0.26815997308E+02 -0.19979150660E+02 -0.14230127816E+02  0.36342271674E+02  0.00000000000E+00 0. -1.
</event>
<event>
 7    1  0.2976321E-013  0.7246157E+02  0.7816164E-02  0.1226708E+00
        -11   -1    0    0    0    0  0.00000000000E+00  0.00000000000E+00  0.45593999997E+02  0.45594000000E+02  0.51100000000E-03 0. -1.
         11   -1    0    0    0    0 -0.00000000000E+00 -0.00000000000E+00 -0.45593999997E+02  0.45594000000E+02  0.51100000000E-03 0.  1.
    9900012    2    1    2    0    0 -0.11969034190E+02  0.58281226920E+01  0.13170202568E+02  0.72461574040E+02  0.70000004879E+02 0.  0.
         12    1    1    2    0    0  0.11969034190E+02 -0.58281226920E+01 -0.13170202568E+02  0.18726425960E+02  0.00000000000E+00 0. -1.
         11    1    3    3    0    0 -0.86521161045E+01  0.94131767800E+01  0.12313679922E+02  0.17750879518E+02  0.51100000000E-03 0. -1.
        -11    1    3    3    0    0 -0.58832086532E+01 -0.42291704261E+01 -0.26374392474E+02  0.27351537529E+02  0.51100000000E-03 0.  1.
         12    1    3    3    0    0  0.25662905674E+01  0.64411633806E+00  0.27230915119E+02  0.27359156993E+02  0.00000000000E+00 0. -1.
</event>
<event>
 7    1  0.2976321E-013  0.7246161E+02  0.7816164E-02  0.1226708E+00
        -11   -1    0    0    0    0  0.00000000000E+00  0.00000000000E+00  0.45593999997E+02  0.45594000000E+02  0.51100000000E-03 0.  1.
         11   -1    0    0    0    0 -0.00000000000E+00 -0.00000000000E+00 -0.45593999997E+02  0.45594000000E+02  0.51100000000E-03 0. -1.
    9900012    2    1    2    0    0  0.10798505857E+02 -0.55794898510E+01  0.14245672005E+02  0.72461612024E+02  0.70000054361E+02 0.  0.
         12    1    1    2    0    0 -0.10798505857E+02  0.55794898510E+01 -0.14245672005E+02  0.18726387976E+02  0.00000000000E+00 0. -1.
         11    1    3    3    0    0  0.86786072433E+01 -0.17279448255E+02 -0.12785705641E+02  0.23181281774E+02  0.51100000000E-03 0. -1.
        -11    1    3    3    0    0  0.20592421846E+02  0.72723907875E+01  0.11151032810E+02  0.24521032569E+02  0.51100000000E-03 0.  1.
        -12    1    3    3    0    0 -0.18472523232E+02  0.44275676166E+01  0.15880344837E+02  0.24759297682E+02  0.00000000000E+00 0.  1.
</event>
<event>
 7    1  0.2976321E-013  0.7246165E+02  0.7816164E-02  0.1226708E+00
        -11   -1    0    0    0    0  0.00000000000E+00  0.00000000000E+00  0.45593999997E+02  0.45594000000E+02  0.51100000000E-03 0.  1.
         11   -1    0    0    0    0 -0.00000000000E+00 -0.00000000000E+00 -0.45593999997E+02  0.45594000000E+02  0.51100000000E-03 0. -1.
    9900012    2    1    2    0    0 -0.13610958655E+02  0.94567997791E+01 -0.87170460925E+01  0.72461650913E+02  0.70000105020E+02 0.  0.
         12    1    1    2    0    0  0.13610958655E+02 -0.94567997791E+01  0.87170460925E+01  0.18726349087E+02  0.00000000000E+00 0. -1.
         11    1    3    3    0    0  0.50767042952E+01  0.98530235672E+01  0.10720758136E+02  0.15420429799E+02  0.51100000000E-03 0. -1.
        -11    1    3    3    0    0 -0.39045138114E+01  0.23616788908E+02 -0.23104791796E+01  0.24048622844E+02  0.51100000000E-03 0.  1.
         12    1    3    3    0    0 -0.14783149139E+02 -0.24013012696E+02 -0.17127325049E+02  0.32992598269E+02  0.00000000000E+00 0. -1.
</event>
<event>
 7    1  0.2976321E-013  0.7246156E+02  0.7816164E-02  0.1226708E+00
        -11   -1    0    0    0    0  0.00000000000E+00  0.00000000000E+00  0.45593999997E+02  0.45594000000E+02  0.51100000000E-03 0.  1.
         11   -1    0    0    0    0 -0.00000000000E+00 -0.00000000000E+00 -0.45593999997E+02  0.45594000000E+02  0.51100000000E-03 0. -1.
    9900012    2    1    2    0    0 -0.99841371108E+00  0.15304710976E+02  0.10744700394E+02  0.72461558945E+02  0.69999985216E+02 0.  0.
         12    1    1    2    0    0  0.99841371108E+00 -0.15304710976E+02 -0.10744700394E+02  0.18726441055E+02  0.00000000000E+00 0. -1.
         11    1    3    3    0    0  0.42181723221E+01 -0.44179784327E+01 -0.16746248231E+02  0.17825496942E+02  0.51100000000E-03 0. -1.
        -11    1    3    3    0    0  0.13342948333E+02 -0.51377502084E+00  0.23306413331E+02  0.26860512609E+02  0.51100000000E-03 0.  1.
        -12    1    3    3    0    0 -0.18559534366E+02  0.20236464430E+02  0.41845352936E+01  0.27775549394E+02  0.00000000000E+00 0.  1.
</event>
<event>
 7    1  0.2976321E-013  0.7246158E+02  0.7816164E-02  0.1226708E+00
        -11   -1    0    0    0    0  0.00000000000E+00  0.00000000000E+00  0.45593999997E+02  0.45594000000E+02  0.51100000000E-03 0.  1.
         11   -1    0    0    0    0 -0.00000000000E+00 -0.00000000000E+00 -0.45593999997E+02  0.45594000000E+02  0.51100000000E-03 0. -1.
    9900012    2    1    2    0    0 -0.18256978054E+02 -0.27314645847E+01 -0.31465310195E+01  0.72461580056E+02  0.70000012717E+02 0.  0.
         12    1    1    2    0    0  0.18256978054E+02  0.27314645847E+01  0.31465310195E+01  0.18726419944E+02  0.00000000000E+00 0. -1.
         11    1    3    3    0    0  0.73548550476E+01 -0.86556001773E+01 -0.28863116300E+02  0.31017620638E+02  0.51100000000E-03 0. -1.
        -11    1    3    3    0    0 -0.69224642761E+01 -0.52657064607E+01  0.14208759882E+01  0.88128919782E+01  0.51100000000E-03 0.  1.
        -12    1    3    3    0    0 -0.18689368826E+02  0.11189842053E+02  0.24295709292E+02  0.32631067440E+02  0.00000000000E+00 0.  1.
</event>
<event>
 7    1  0.2976321E-013  0.7246157E+02  0.7816164E-02  0.1226708E+00
        -11   -1    0    0    0    0  0.00000000000E+00  0.00000000000E+00  0.45593999997E+02  0.45594000000E+02  0.51100000000E-03 0. -1.
         11   -1    0    0    0    0 -0.00000000000E+00 -0.00000000000E+00 -0.45593999997E+02  0.45594000000E+02  0.51100000000E-03 0.  1.
    9900012    2    1    2    0    0  0.43562828298E+01  0.14499972728E+02 -0.11020558906E+02  0.72461571409E+02  0.70000001451E+02 0.  0.
         12    1    1    2    0    0 -0.43562828298E+01 -0.14499972728E+02  0.11020558906E+02  0.18726428591E+02  0.00000000000E+00 0. -1.
         11    1    3    3    0    0  0.73429073704E+01 -0.17863817116E+02  0.18277094875E+02  0.26591097156E+02  0.51100000000E-03 0. -1.
        -11    1    3    3    0    0  0.71431554190E+00  0.93992000782E+00 -0.71535284824E+01  0.72502873270E+01  0.51100000000E-03 0.  1.
        -12    1    3    3    0    0 -0.37009400825E+01  0.31423869836E+02 -0.22144125298E+02  0.38620186926E+02  0.00000000000E+00 0.  1.
</event>
<event>
 7    1  0.2976321E-013  0.7246159E+02  0.7816164E-02  0.1226708E+00
        -11   -1    0    0    0    0  0.00000000000E+00  0.00000000000E+00  0.45593999997E+02  0.45594000000E+02  0.51100000000E-03 0. -1.
         11   -1    0    0    0    0 -0.00000000000E+00 -0.00000000000E+00 -0.45593999997E+02  0.45594000000E+02  0.51100000000E-03 0.  1.
    9900012    2    1    2    0    0  0.10124119962E+02 -0.10769775714E+02 -0.11497510005E+02  0.72461585227E+02  0.70000019453E+02 0.  0.
         12    1    1    2    0    0 -0.10124119962E+02  0.10769775714E+02  0.11497510005E+02  0.18726414773E+02  0.00000000000E+00 0. -1.
         11    1    3    3    0    0 -0.14457408241E+02 -0.18536657255E+02 -0.90923256775E+01  0.25205053099E+02  0.51100000000E-03 0. -1.
        -11    1    3    3    0    0  0.97239195991E+00 -0.14622521299E+02 -0.99980566666E+00  0.14688883106E+02  0.51100000000E-03 0.  1.
         12    1    3    3    0    0  0.23609136243E+02  0.22389402840E+02 -0.14053786607E+01  0.32567649022E+02  0.00000000000E+00 0. -1.
</event>
<event>
 7    1  0.2976321E-013  0.7246157E+02  0.7816164E-02  0.1226708E+00
        -11   -1    0    0    0    0  0.00000000000E+00  0.00000000000E+00  0.45593999997E+02  0.45594000000E+02  0.51100000000E-03 0.  1.
         11   -1    0    0    0    0 -0.00000000000E+00 -0.00000000000E+00 -0.45593999997E+02  0.45594000000E+02  0.51100000000E-03 0. -1.
    9900012    2    1    2    0    0  0.17929172852E+02 -0.45227566004E+01  0.29611755351E+01  0.72461571430E+02  0.70000001480E+02 0.  0.
         12    1    1    2    0    0 -0.17929172852E+02  0.45227566004E+01 -0.29611755351E+01  0.18726428570E+02  0.00000000000E+00 0. -1.
         11    1    3    3    0    0  0.16834686194E+00  0.17396332712E+02 -0.15322749784E+02  0.23182911674E+02  0.51100000000E-03 0. -1.
        -11    1    3    3    0    0  0.39651641891E+01 -0.15493185875E+02 -0.87689370966E+01  0.18238848475E+02  0.51100000000E-03 0.  1.
         12    1    3    3    0    0  0.13795661801E+02 -0.64259034371E+01  0.27052862416E+02  0.31039811281E+02  0.00000000000E+00 0. -1.
</event>
<event>
 7    1  0.2976321E-013  0.7246159E+02  0.7816164E-02  0.1226708E+00
        -11   -1    0    0    0    0  0.00000000000E+00  0.00000000000E+00  0.45593999997E+02  0.45594000000E+02  0.51100000000E-03 0.  1.
         11   -1    0    0    0    0 -0.00000000000E+00 -0.00000000000E+00 -0.45593999997E+02  0.45594000000E+02  0.51100000000E-03 0. -1.
    9900012    2    1    2    0    0  0.15959714908E+02  0.28620075279E+01  0.93688143083E+01  0.72461594350E+02  0.70000031337E+02 0.  0.
         12    1    1    2    0    0 -0.15959714908E+02 -0.28620075279E+01 -0.93688143083E+01  0.18726405650E+02  0.00000000000E+00 0. -1.
         11    1    3    3    0    0 -0.58989580528E+01 -0.85002503068E+01  0.44482556915E+01  0.11262279536E+02  0.51100000000E-03 0. -1.
        -11    1    3    3    0    0 -0.13706402982E+02 -0.10200226371E+01 -0.13509830970E+02  0.19272297787E+02  0.51100000000E-03 0.  1.
         12    1    3    3    0    0  0.35565075943E+02  0.12382280472E+02  0.18430389586E+02  0.41927017027E+02  0.00000000000E+00 0. -1.
</event>
<event>
 7    1  0.2976321E-013  0.7246149E+02  0.7816164E-02  0.1226708E+00
        -11   -1    0    0    0    0  0.00000000000E+00  0.00000000000E+00  0.45593999997E+02  0.45594000000E+02  0.51100000000E-03 0.  1.
         11   -1    0    0    0    0 -0.00000000000E+00 -0.00000000000E+00 -0.45593999997E+02  0.45594000000E+02  0.51100000000E-03 0. -1.
    9900012    2    1    2    0    0  0.29460176279E+01  0.56501636136E+01  0.17609053262E+02  0.72461491369E+02  0.69999897186E+02 0.  0.
         12    1    1    2    0    0 -0.29460176279E+01 -0.56501636136E+01 -0.17609053262E+02  0.18726508631E+02  0.00000000000E+00 0. -1.
         11    1    3    3    0    0 -0.24039127560E+02 -0.49938260116E+01  0.18423058057E+02  0.30695716647E+02  0.51100000000E-03 0. -1.
        -11    1    3    3    0    0 -0.17484295286E+01 -0.54443297661E+01  0.58355007264E+01  0.81701163644E+01  0.51100000000E-03 0.  1.
        -12    1    3    3    0    0  0.28733574716E+02  0.16088319391E+02 -0.66495055216E+01  0.33595658358E+02  0.00000000000E+00 0.  1.
</event>
<event>
 7    1  0.2976321E-013  0.7246158E+02  0.7816164E-02  0.1226708E+00
        -11   -1    0    0    0    0  0.00000000000E+00  0.00000000000E+00  0.45593999997E+02  0.45594000000E+02  0.51100000000E-03 0. -1.
         11   -1    0    0    0    0 -0.00000000000E+00 -0.00000000000E+00 -0.45593999997E+02  0.45594000000E+02  0.51100000000E-03 0.  1.
    9900012    2    1    2    0    0  0.12346659462E+02 -0.12291206056E+02 -0.68676725282E+01  0.72461583575E+02  0.70000017300E+02 0.  0.
         12    1    1    2    0    0 -0.12346659462E+02  0.12291206056E+02  0.68676725282E+01  0.18726416425E+02  0.00000000000E+00 0. -1.
         11    1    3    3    0    0  0.58048616785E+01 -0.36439126481E+01 -0.11103305573E+02  0.13048291589E+02  0.51100000000E-03 0. -1.
        -11    1    3    3    0    0  0.73193230882E+00 -0.32326477395E+02 -0.61457703722E+01  0.32913634855E+02  0.51100000000E-03 0.  1.
         12    1    3    3    0    0  0.58098654748E+01  0.23679183987E+02  0.10381403417E+02  0.26499657130E+02  0.00000000000E+00 0. -1.
</event>
<event>
 7    1  0.2976321E-013  0.7246155E+02  0.7816164E-02  0.1226708E+00
        -11   -1    0    0    0    0  0.00000000000E+00  0.00000000000E+00  0.45593999997E+02  0.45594000000E+02  0.51100000000E-03 0.  1.
         11   -1    0    0    0    0 -0.00000000000E+00 -0.00000000000E+00 -0.45593999997E+02  0.45594000000E+02  0.51100000000E-03 0. -1.
    9900012    2    1    2    0    0  0.10881250408E+02  0.15202548789E+02  0.10773941515E+01  0.72461551370E+02  0.69999975348E+02 0.  0.
         12    1    1    2    0    0 -0.10881250408E+02 -0.15202548789E+02 -0.10773941515E+01  0.18726448630E+02  0.00000000000E+00 0. -1.
         11    1    3    3    0    0 -0.18424854810E+01 -0.10874235381E+02 -0.90599857137E+01  0.14273299873E+02  0.51100000000E-03 0. -1.
        -11    1    3    3    0    0 -0.69397281697E+01  0.45273042993E+01 -0.16640413149E+02  0.18589235093E+02  0.51100000000E-03 0.  1.
         12    1    3    3    0    0  0.19663464058E+02  0.21549479871E+02  0.26777793014E+02  0.39599016405E+02  0.00000000000E+00 0. -1.
</event>
<event>
 7    1  0.2976321E-013  0.7246160E+02  0.7816164E-02  0.1226708E+00
        -11   -1    0    0    0    0  0.00000000000E+00  0.00000000000E+00  0.45593999997E+02  0.45594000000E+02  0.51100000000E-03 0.  1.
         11   -1    0    0    0    0 -0.00000000000E+00 -0.00000000000E+00 -0.45593999997E+02  0.45594000000E+02  0.51100000000E-03 0. -1.
    9900012    2    1    2    0    0 -0.96587822131E+01 -0.15602967777E+02 -0.37327376823E+01  0.72461601310E+02  0.70000040403E+02 0.  0.
         12    1    1    2    0    0  0.96587822131E+01  0.15602967777E+02  0.37327376823E+01  0.18726398690E+02  0.00000000000E+00 0. -1.
         11    1    3    3    0    0 -0.95583577130E+01 -0.30226338487E+02 -0.83253152650E+01  0.32776586384E+02  0.51100000000E-03 0. -1.
        -11    1    3    3    0    0  0.14701793871E+02  0.40078942863E+01 -0.83158076159E+01  0.17359683644E+02  0.51100000000E-03 0.  1.
        -12    1    3    3    0    0 -0.14802218372E+02  0.10615476423E+02  0.12908385199E+02  0.22325331282E+02  0.00000000000E+00 0.  1.
</event>
<event>
 7    1  0.2976321E-013  0.7246156E+02  0.7816164E-02  0.1226708E+00
        -11   -1    0    0    0    0  0.00000000000E+00  0.00000000000E+00  0.45593999997E+02  0.45594000000E+02  0.51100000000E-03 0.  1.
         11   -1    0    0    0    0 -0.00000000000E+00 -0.00000000000E+00 -0.45593999997E+02  0.45594000000E+02  0.51100000000E-03 0. -1.
    9900012    2    1    2    0    0  0.19385844447E+01  0.18253201181E+02 -0.37070557222E+01  0.72461555459E+02  0.69999980674E+02 0.  0.
         12    1    1    2    0    0 -0.19385844447E+01 -0.18253201181E+02  0.37070557222E+01  0.18726444541E+02  0.00000000000E+00 0. -1.
         11    1    3    3    0    0 -0.17078479875E+01  0.70089780200E+00  0.75782470175E+00  0.19955703488E+01  0.51100000000E-03 0. -1.
        -11    1    3    3    0    0 -0.19272078363E+02 -0.17607077692E+02  0.68696757000E+01  0.26992862645E+02  0.51100000000E-03 0.  1.
         12    1    3    3    0    0  0.22918510795E+02  0.35159381071E+02 -0.11334556124E+02  0.43473122466E+02  0.00000000000E+00 0. -1.
</event>
<event>
 7    1  0.2976321E-013  0.7246171E+02  0.7816164E-02  0.1226708E+00
        -11   -1    0    0    0    0  0.00000000000E+00  0.00000000000E+00  0.45593999997E+02  0.45594000000E+02  0.51100000000E-03 0. -1.
         11   -1    0    0    0    0 -0.00000000000E+00 -0.00000000000E+00 -0.45593999997E+02  0.45594000000E+02  0.51100000000E-03 0.  1.
    9900012    2    1    2    0    0  0.10964723868E+02 -0.11107357517E+02 -0.10347720351E+02  0.72461711607E+02  0.70000184086E+02 0.  0.
         12    1    1    2    0    0 -0.10964723868E+02  0.11107357517E+02  0.10347720351E+02  0.18726288393E+02  0.00000000000E+00 0. -1.
         11    1    3    3    0    0  0.50088485854E+01  0.96612234959E+01  0.17475203338E+01  0.11021870584E+02  0.51100000000E-03 0. -1.
        -11    1    3    3    0    0 -0.36342065600E+01 -0.17783842573E+02  0.20471353911E+02  0.27359620706E+02  0.51100000000E-03 0.  1.
         12    1    3    3    0    0  0.95900818426E+01 -0.29847384399E+01 -0.32566594596E+02  0.34080220317E+02  0.00000000000E+00 0. -1.
</event>
<event>
 7    1  0.2976321E-013  0.7246165E+02  0.7816164E-02  0.1226708E+00
        -11   -1    0    0    0    0  0.00000000000E+00  0.00000000000E+00  0.45593999997E+02  0.45594000000E+02  0.51100000000E-03 0.  1.
         11   -1    0    0    0    0 -0.00000000000E+00 -0.00000000000E+00 -0.45593999997E+02  0.45594000000E+02  0.51100000000E-03 0. -1.
    9900012    2    1    2    0    0 -0.13336605003E+01 -0.13762405192E+02  0.12629088310E+02  0.72461646417E+02  0.70000099163E+02 0.  0.
         12    1    1    2    0    0  0.13336605003E+01  0.13762405192E+02 -0.12629088310E+02  0.18726353583E+02  0.00000000000E+00 0. -1.
         11    1    3    3    0    0  0.50744733992E+01 -0.10428497402E+02 -0.16772606714E+02  0.20391767324E+02  0.51100000000E-03 0. -1.
        -11    1    3    3    0    0  0.31569065883E+00 -0.49116467221E+01 -0.10488680410E+02  0.11586041218E+02  0.51100000000E-03 0.  1.
        -12    1    3    3    0    0 -0.67238245583E+01  0.15777389325E+01  0.39890375433E+02  0.40483837875E+02  0.00000000000E+00 0.  1.
</event>
<event>
 7    1  0.2976321E-013  0.7246159E+02  0.7816164E-02  0.1226708E+00
        -11   -1    0    0    0    0  0.00000000000E+00  0.00000000000E+00  0.45593999997E+02  0.45594000000E+02  0.51100000000E-03 0.  1.
         11   -1    0    0    0    0 -0.00000000000E+00 -0.00000000000E+00 -0.45593999997E+02  0.45594000000E+02  0.51100000000E-03 0. -1.
    9900012    2    1    2    0    0 -0.14812140338E+02  0.66430052994E+01  0.93353916297E+01  0.72461586630E+02  0.70000021281E+02 0.  0.
         12    1    1    2    0    0  0.14812140338E+02 -0.66430052994E+01 -0.93353916297E+01  0.18726413370E+02  0.00000000000E+00 0. -1.
         11    1    3    3    0    0  0.10377522109E+02  0.19821237972E+01  0.54191129948E+00  0.10579009783E+02  0.51100000000E-03 0. -1.
        -11    1    3    3    0    0  0.14070971740E+02 -0.72378196397E+01  0.13221702673E+02  0.20620177028E+02  0.51100000000E-03 0.  1.
         12    1    3    3    0    0 -0.39260634188E+02  0.11898701142E+02 -0.44282223431E+01  0.41262399819E+02  0.00000000000E+00 0. -1.
</event>
<event>
 7    1  0.2976321E-013  0.7246158E+02  0.7816164E-02  0.1226708E+00
        -11   -1    0    0    0    0  0.00000000000E+00  0.00000000000E+00  0.45593999997E+02  0.45594000000E+02  0.51100000000E-03 0.  1.
         11   -1    0    0    0    0 -0.00000000000E+00 -0.00000000000E+00 -0.45593999997E+02  0.45594000000E+02  0.51100000000E-03 0. -1.
    9900012    2    1    2    0    0 -0.16748267917E+02 -0.49574160536E+01  0.67526540762E+01  0.72461580449E+02  0.70000013228E+02 0.  0.
         12    1    1    2    0    0  0.16748267917E+02  0.49574160536E+01 -0.67526540762E+01  0.18726419551E+02  0.00000000000E+00 0. -1.
         11    1    3    3    0    0 -0.71016419212E+01 -0.12281762370E+02  0.11643623039E+02  0.18353445525E+02  0.51100000000E-03 0. -1.
        -11    1    3    3    0    0 -0.21181392385E+02 -0.23384575123E+01  0.17195799006E+02  0.27382754986E+02  0.51100000000E-03 0.  1.
         12    1    3    3    0    0  0.11534766390E+02  0.96628038285E+01 -0.22086767969E+02  0.26725379938E+02  0.00000000000E+00 0. -1.
</event>
<event>
 7    1  0.2976321E-013  0.7246162E+02  0.7816164E-02  0.1226708E+00
        -11   -1    0    0    0    0  0.00000000000E+00  0.00000000000E+00  0.45593999997E+02  0.45594000000E+02  0.51100000000E-03 0. -1.
         11   -1    0    0    0    0 -0.00000000000E+00 -0.00000000000E+00 -0.45593999997E+02  0.45594000000E+02  0.51100000000E-03 0.  1.
    9900012    2    1    2    0    0 -0.43719159046E+01 -0.27386444855E+01 -0.18001764585E+02  0.72461618864E+02  0.70000063270E+02 0.  0.
         12    1    1    2    0    0  0.43719159046E+01  0.27386444855E+01  0.18001764585E+02  0.18726381136E+02  0.00000000000E+00 0. -1.
         11    1    3    3    0    0  0.66570909380E+01  0.15139843052E+02 -0.21821938842E+01  0.16682136488E+02  0.51100000000E-03 0. -1.
        -11    1    3    3    0    0 -0.23790018083E+02  0.65110568525E+01 -0.13988527232E+01  0.24704566601E+02  0.51100000000E-03 0.  1.
         12    1    3    3    0    0  0.12761011241E+02 -0.24389544390E+02 -0.14420717978E+02  0.31074915775E+02  0.00000000000E+00 0. -1.
</event>
<event>
 7    1  0.2976321E-013  0.7246160E+02  0.7816164E-02  0.1226708E+00
        -11   -1    0    0    0    0  0.00000000000E+00  0.00000000000E+00  0.45593999997E+02  0.45594000000E+02  0.51100000000E-03 0.  1.
         11   -1    0    0    0    0 -0.00000000000E+00 -0.00000000000E+00 -0.45593999997E+02  0.45594000000E+02  0.51100000000E-03 0. -1.
    9900012    2    1    2    0    0  0.11812141262E+02 -0.99802107125E+01  0.10561567975E+02  0.72461601384E+02  0.70000040500E+02 0.  0.
         12    1    1    2    0    0 -0.11812141262E+02  0.99802107125E+01 -0.10561567975E+02  0.18726398616E+02  0.00000000000E+00 0. -1.
         11    1    3    3    0    0 -0.19656722089E+02  0.82122072136E+01 -0.11317557899E+02  0.24122897580E+02  0.51100000000E-03 0. -1.
        -11    1    3    3    0    0  0.29684354940E+01 -0.10385982840E+02  0.14136411508E+02  0.17790963420E+02  0.51100000000E-03 0.  1.
        -12    1    3    3    0    0  0.28500427857E+02 -0.78064350857E+01  0.77427143658E+01  0.30547740383E+02  0.00000000000E+00 0.  1.
</event>
<event>
 7    1  0.2976321E-013  0.7246142E+02  0.7816164E-02  0.1226708E+00
        -11   -1    0    0    0    0  0.00000000000E+00  0.00000000000E+00  0.45593999997E+02  0.45594000000E+02  0.51100000000E-03 0.  1.
         11   -1    0    0    0    0 -0.00000000000E+00 -0.00000000000E+00 -0.45593999997E+02  0.45594000000E+02  0.51100000000E-03 0. -1.
    9900012    2    1    2    0    0 -0.72223351229E+01 -0.78766178633E+01  0.15377955496E+02  0.72461421326E+02  0.69999805941E+02 0.  0.
         12    1    1    2    0    0  0.72223351229E+01  0.78766178633E+01 -0.15377955496E+02  0.18726578674E+02  0.00000000000E+00 0. -1.
         11    1    3    3    0    0 -0.24372650012E+01  0.28446557226E+02  0.12024911989E+02  0.30979757702E+02  0.51100000000E-03 0. -1.
        -11    1    3    3    0    0  0.64495092540E+01 -0.53143706175E+01  0.35592783747E+00  0.83645316404E+01  0.51100000000E-03 0.  1.
        -12    1    3    3    0    0 -0.11234579376E+02 -0.31008804472E+02  0.29971156694E+01  0.33117131984E+02  0.00000000000E+00 0.  1.
</event>
<event>
 7    1  0.2976321E-013  0.7246142E+02  0.7816164E-02  0.1226708E+00
        -11   -1    0    0    0    0  0.00000000000E+00  0.00000000000E+00  0.45593999997E+02  0.45594000000E+02  0.51100000000E-03 0.  1.
         11   -1    0    0    0    0 -0.00000000000E+00 -0.00000000000E+00 -0.45593999997E+02  0.45594000000E+02  0.51100000000E-03 0. -1.
    9900012    2    1    2    0    0  0.54060405076E+00  0.31195817332E+01  0.18456997879E+02  0.72461419596E+02  0.69999803687E+02 0.  0.
         12    1    1    2    0    0 -0.54060405076E+00 -0.31195817332E+01 -0.18456997879E+02  0.18726580404E+02  0.00000000000E+00 0. -1.
         11    1    3    3    0    0  0.39359189632E+00  0.11696275486E+02 -0.81453578163E+00  0.11731208106E+02  0.51100000000E-03 0. -1.
        -11    1    3    3    0    0 -0.27060170487E+02 -0.10935101348E+01  0.97463309659E+00  0.27099787843E+02  0.51100000000E-03 0.  1.
         12    1    3    3    0    0  0.27207182642E+02 -0.74831836182E+01  0.18296900564E+02  0.33630423646E+02  0.00000000000E+00 0. -1.
</event>
<event>
 7    1  0.2976321E-013  0.7246155E+02  0.7816164E-02  0.1226708E+00
        -11   -1    0    0    0    0  0.00000000000E+00  0.00000000000E+00  0.45593999997E+02  0.45594000000E+02  0.51100000000E-03 0.  1.
         11   -1    0    0    0    0 -0.00000000000E+00 -0.00000000000E+00 -0.45593999997E+02  0.45594000000E+02  0.51100000000E-03 0. -1.
    9900012    2    1    2    0    0  0.15715572222E+02  0.73805311795E+00  0.10156575387E+02  0.72461549288E+02  0.69999972636E+02 0.  0.
         12    1    1    2    0    0 -0.15715572222E+02 -0.73805311795E+00 -0.10156575387E+02  0.18726450712E+02  0.00000000000E+00 0. -1.
         11    1    3    3    0    0 -0.76701737653E+01  0.80430679163E+00 -0.18617887493E+02  0.20152027441E+02  0.51100000000E-03 0. -1.
        -11    1    3    3    0    0 -0.95921301970E+01 -0.33017111385E+01  0.99010175297E+01  0.14175345024E+02  0.51100000000E-03 0.  1.
         12    1    3    3    0    0  0.32977876184E+02  0.32354574648E+01  0.18873445350E+02  0.38134176824E+02  0.00000000000E+00 0. -1.
</event>
<event>
 7    1  0.2976321E-013  0.7246155E+02  0.7816164E-02  0.1226708E+00
        -11   -1    0    0    0    0  0.00000000000E+00  0.00000000000E+00  0.45593999997E+02  0.45594000000E+02  0.51100000000E-03 0. -1.
         11   -1    0    0    0    0 -0.00000000000E+00 -0.00000000000E+00 -0.45593999997E+02  0.45594000000E+02  0.51100000000E-03 0.  1.
    9900012    2    1    2    0    0 -0.17263973147E+02 -0.68204899112E+01  0.24730730421E+01  0.72461549676E+02  0.69999973141E+02 0.  0.
         12    1    1    2    0    0  0.17263973147E+02  0.68204899112E+01 -0.24730730421E+01  0.18726450324E+02  0.00000000000E+00 0. -1.
         11    1    3    3    0    0 -0.15037850837E+02  0.26245210765E+01  0.17957749671E+02  0.23569171436E+02  0.51100000000E-03 0. -1.
        -11    1    3    3    0    0 -0.12406389636E+02 -0.24828754934E+02 -0.72266281616E+01  0.28681173794E+02  0.51100000000E-03 0.  1.
        -12    1    3    3    0    0  0.10180267326E+02  0.15383743946E+02 -0.82580484675E+01  0.20211204445E+02  0.00000000000E+00 0.  1.
</event>
<event>
 7    1  0.2976321E-013  0.7246166E+02  0.7816164E-02  0.1226708E+00
        -11   -1    0    0    0    0  0.00000000000E+00  0.00000000000E+00  0.45593999997E+02  0.45594000000E+02  0.51100000000E-03 0.  1.
         11   -1    0    0    0    0 -0.00000000000E+00 -0.00000000000E+00 -0.45593999997E+02  0.45594000000E+02  0.51100000000E-03 0. -1.
    9900012    2    1    2    0    0 -0.64105979415E+01 -0.13005098814E+02  0.11851051665E+02  0.72461660617E+02  0.70000117662E+02 0.  0.
         12    1    1    2    0    0  0.64105979415E+01  0.13005098814E+02 -0.11851051665E+02  0.18726339383E+02  0.00000000000E+00 0. -1.
         11    1    3    3    0    0 -0.12346566994E+01 -0.52665875346E+01 -0.18209349125E+02  0.18995834207E+02  0.51100000000E-03 0. -1.
        -11    1    3    3    0    0  0.16575971819E+02 -0.17879906730E+00  0.13080762436E+01  0.16628465791E+02  0.51100000000E-03 0.  1.
         12    1    3    3    0    0 -0.21751913061E+02 -0.75597122122E+01  0.28752324546E+02  0.36837360618E+02  0.00000000000E+00 0. -1.
</event>
<event>
 7    1  0.2976321E-013  0.7246151E+02  0.7816164E-02  0.1226708E+00
        -11   -1    0    0    0    0  0.00000000000E+00  0.00000000000E+00  0.45593999997E+02  0.45594000000E+02  0.51100000000E-03 0.  1.
         11   -1    0    0    0    0 -0.00000000000E+00 -0.00000000000E+00 -0.45593999997E+02  0.45594000000E+02  0.51100000000E-03 0. -1.
    9900012    2    1    2    0    0  0.25414036423E+01 -0.17705302995E+02  0.55447988408E+01  0.72461513922E+02  0.69999926565E+02 0.  0.
         12    1    1    2    0    0 -0.25414036423E+01  0.17705302995E+02 -0.55447988408E+01  0.18726486078E+02  0.00000000000E+00 0. -1.
         11    1    3    3    0    0  0.10057879669E+02  0.11532430462E+02  0.40103374413E+01  0.15818998150E+02  0.51100000000E-03 0. -1.
        -11    1    3    3    0    0 -0.15851664340E+02 -0.26912120970E+02  0.19416373730E+02  0.36776800929E+02  0.51100000000E-03 0.  1.
         12    1    3    3    0    0  0.83351883132E+01 -0.23256124877E+01 -0.17881912331E+02  0.19865714844E+02  0.00000000000E+00 0. -1.
</event>
<event>
 7    1  0.2976321E-013  0.7246163E+02  0.7816164E-02  0.1226708E+00
        -11   -1    0    0    0    0  0.00000000000E+00  0.00000000000E+00  0.45593999997E+02  0.45594000000E+02  0.51100000000E-03 0. -1.
         11   -1    0    0    0    0 -0.00000000000E+00 -0.00000000000E+00 -0.45593999997E+02  0.45594000000E+02  0.51100000000E-03 0.  1.
    9900012    2    1    2    0    0  0.13266174024E+02 -0.13216792481E+02  0.43449787662E-01  0.72461631836E+02  0.70000080169E+02 0.  0.
         12    1    1    2    0    0 -0.13266174024E+02  0.13216792481E+02 -0.43449787662E-01  0.18726368164E+02  0.00000000000E+00 0. -1.
         11    1    3    3    0    0 -0.11016907293E+01 -0.39699349254E+01 -0.11192586032E+01  0.42692910251E+01  0.51100000000E-03 0. -1.
        -11    1    3    3    0    0  0.11547911263E+02 -0.22895118685E+01 -0.32048947372E+02  0.34142805201E+02  0.51100000000E-03 0.  1.
         12    1    3    3    0    0  0.28199534905E+01 -0.69573456875E+01  0.33211655762E+02  0.34049535609E+02  0.00000000000E+00 0. -1.
</event>
<event>
 7    1  0.2976321E-013  0.7246155E+02  0.7816164E-02  0.1226708E+00
        -11   -1    0    0    0    0  0.00000000000E+00  0.00000000000E+00  0.45593999997E+02  0.45594000000E+02  0.51100000000E-03 0.  1.
         11   -1    0    0    0    0 -0.00000000000E+00 -0.00000000000E+00 -0.45593999997E+02  0.45594000000E+02  0.51100000000E-03 0. -1.
    9900012    2    1    2    0    0 -0.14819510930E+01  0.18429539986E+02 -0.29725202340E+01  0.72461548129E+02  0.69999971125E+02 0.  0.
         12    1    1    2    0    0  0.14819510930E+01 -0.18429539986E+02  0.29725202340E+01  0.18726451871E+02  0.00000000000E+00 0. -1.
         11    1    3    3    0    0  0.46999273312E+01 -0.14434914563E+02  0.89804275028E+01  0.17638144850E+02  0.51100000000E-03 0. -1.
        -11    1    3    3    0    0  0.15813392685E+02  0.25885780175E+02 -0.51687392208E+01  0.30770974454E+02  0.51100000000E-03 0.  1.
         12    1    3    3    0    0 -0.21995271109E+02  0.69786743741E+01 -0.67842085160E+01  0.24052428825E+02  0.00000000000E+00 0. -1.
</event>
<event>
 7    1  0.2976321E-013  0.7246157E+02  0.7816164E-02  0.1226708E+00
        -11   -1    0    0    0    0  0.00000000000E+00  0.00000000000E+00  0.45593999997E+02  0.45594000000E+02  0.51100000000E-03 0. -1.
         11   -1    0    0    0    0 -0.00000000000E+00 -0.00000000000E+00 -0.45593999997E+02  0.45594000000E+02  0.51100000000E-03 0.  1.
    9900012    2    1    2    0    0 -0.80884022841E+00  0.15639109642E+02 -0.10268559462E+02  0.72461567175E+02  0.69999995937E+02 0.  0.
         12    1    1    2    0    0  0.80884022841E+00 -0.15639109642E+02  0.10268559462E+02  0.18726432825E+02  0.00000000000E+00 0. -1.
         11    1    3    3    0    0 -0.30452661429E+02  0.11207879990E+02 -0.18258736660E+01  0.32500999629E+02  0.51100000000E-03 0. -1.
        -11    1    3    3    0    0 -0.24337100026E+01  0.64418321810E+01 -0.21091799635E+01  0.72019987923E+01  0.51100000000E-03 0.  1.
        -12    1    3    3    0    0  0.32077531204E+02 -0.20106025284E+01 -0.63335058328E+01  0.32758568753E+02  0.00000000000E+00 0.  1.
</event>
<event>
 7    1  0.2976321E-013  0.7246183E+02  0.7816164E-02  0.1226707E+00
        -11   -1    0    0    0    0  0.00000000000E+00  0.00000000000E+00  0.45593999997E+02  0.45594000000E+02  0.51100000000E-03 0.  1.
         11   -1    0    0    0    0 -0.00000000000E+00 -0.00000000000E+00 -0.45593999997E+02  0.45594000000E+02  0.51100000000E-03 0. -1.
    9900012    2    1    2    0    0 -0.70444116233E+01  0.10711492290E+02  0.13649527952E+02  0.72461830730E+02  0.70000339266E+02 0.  0.
         12    1    1    2    0    0  0.70444116233E+01 -0.10711492290E+02 -0.13649527952E+02  0.18726169270E+02  0.00000000000E+00 0. -1.
         11    1    3    3    0    0 -0.15924759452E+02 -0.66578584054E+01 -0.47792252148E+01  0.17909942381E+02  0.51100000000E-03 0. -1.
        -11    1    3    3    0    0  0.19203824496E+02 -0.34749279150E+01  0.23700427423E+02  0.30701339703E+02  0.51100000000E-03 0.  1.
         12    1    3    3    0    0 -0.10323476667E+02  0.20844278611E+02 -0.52716742561E+01  0.23850548647E+02  0.00000000000E+00 0. -1.
</event>
<event>
 7    1  0.2976321E-013  0.7246158E+02  0.7816164E-02  0.1226708E+00
        -11   -1    0    0    0    0  0.00000000000E+00  0.00000000000E+00  0.45593999997E+02  0.45594000000E+02  0.51100000000E-03 0.  1.
         11   -1    0    0    0    0 -0.00000000000E+00 -0.00000000000E+00 -0.45593999997E+02  0.45594000000E+02  0.51100000000E-03 0. -1.
    9900012    2    1    2    0    0  0.17658252506E+02 -0.55797144805E+01  0.27806181814E+01  0.72461576617E+02  0.70000008236E+02 0.  0.
         12    1    1    2    0    0 -0.17658252506E+02  0.55797144805E+01 -0.27806181814E+01  0.18726423383E+02  0.00000000000E+00 0. -1.
         11    1    3    3    0    0  0.19014023244E+02  0.21802197641E+01 -0.21356763601E+02  0.28677478793E+02  0.51100000000E-03 0. -1.
        -11    1    3    3    0    0  0.12692970357E+02  0.26412768959E+01 -0.11800440033E+01  0.13018461670E+02  0.51100000000E-03 0.  1.
        -12    1    3    3    0    0 -0.14048741095E+02 -0.10401211141E+02  0.25317425786E+02  0.30765636154E+02  0.00000000000E+00 0.  1.
</event>
<event>
 7    1  0.2976321E-013  0.7246153E+02  0.7816164E-02  0.1226708E+00
        -11   -1    0    0    0    0  0.00000000000E+00  0.00000000000E+00  0.45593999997E+02  0.45594000000E+02  0.51100000000E-03 0. -1.
         11   -1    0    0    0    0 -0.00000000000E+00 -0.00000000000E+00 -0.45593999997E+02  0.45594000000E+02  0.51100000000E-03 0.  1.
    9900012    2    1    2    0    0  0.16991861728E+02  0.17130691035E+00  0.78694309724E+01  0.72461530636E+02  0.69999948337E+02 0.  0.
         12    1    1    2    0    0 -0.16991861728E+02 -0.17130691035E+00 -0.78694309724E+01  0.18726469364E+02  0.00000000000E+00 0. -1.
         11    1    3    3    0    0 -0.48345077549E+01 -0.12143034258E+01  0.14641667985E+02  0.15466914355E+02  0.51100000000E-03 0. -1.
        -11    1    3    3    0    0 -0.15508026061E+02 -0.23569941997E+01  0.67962731571E+01  0.17095134485E+02  0.51100000000E-03 0.  1.
         12    1    3    3    0    0  0.37334395544E+02  0.37426045358E+01 -0.13568510169E+02  0.39899481795E+02  0.00000000000E+00 0. -1.
</event>
<event>
 7    1  0.2976321E-013  0.7246155E+02  0.7816164E-02  0.1226708E+00
        -11   -1    0    0    0    0  0.00000000000E+00  0.00000000000E+00  0.45593999997E+02  0.45594000000E+02  0.51100000000E-03 0.  1.
         11   -1    0    0    0    0 -0.00000000000E+00 -0.00000000000E+00 -0.45593999997E+02  0.45594000000E+02  0.51100000000E-03 0. -1.
    9900012    2    1    2    0    0 -0.18446260849E+02  0.12358768557E+01  0.29812827991E+01  0.72461548707E+02  0.69999971878E+02 0.  0.
         12    1    1    2    0    0  0.18446260849E+02 -0.12358768557E+01 -0.29812827991E+01  0.18726451293E+02  0.00000000000E+00 0. -1.
         11    1    3    3    0    0  0.24920132484E+01 -0.16128050968E+01  0.59547251120E+01  0.66535721031E+01  0.51100000000E-03 0. -1.
        -11    1    3    3    0    0 -0.18659434721E+02  0.11308780636E+02  0.26922967789E+02  0.34654137104E+02  0.51100000000E-03 0.  1.
         12    1    3    3    0    0 -0.22788393762E+01 -0.84600986839E+01 -0.29896410101E+02  0.31153839500E+02  0.00000000000E+00 0. -1.
</event>
<event>
 7    1  0.2976321E-013  0.7246162E+02  0.7816164E-02  0.1226708E+00
        -11   -1    0    0    0    0  0.00000000000E+00  0.00000000000E+00  0.45593999997E+02  0.45594000000E+02  0.51100000000E-03 0. -1.
         11   -1    0    0    0    0 -0.00000000000E+00 -0.00000000000E+00 -0.45593999997E+02  0.45594000000E+02  0.51100000000E-03 0.  1.
    9900012    2    1    2    0    0  0.12471135705E+02 -0.62217187590E+01 -0.12507536537E+02  0.72461615397E+02  0.70000058754E+02 0.  0.
         12    1    1    2    0    0 -0.12471135705E+02  0.62217187590E+01  0.12507536537E+02  0.18726384603E+02  0.00000000000E+00 0. -1.
         11    1    3    3    0    0 -0.11942148722E+01  0.21141724515E+02  0.12735578238E+02  0.24710192593E+02  0.51100000000E-03 0. -1.
        -11    1    3    3    0    0  0.28970977864E+01 -0.23224044378E+02 -0.42349835778E+01  0.23784122835E+02  0.51100000000E-03 0.  1.
        -12    1    3    3    0    0  0.10768252790E+02 -0.41393988963E+01 -0.21008131198E+02  0.23967299969E+02  0.00000000000E+00 0.  1.
</event>
<event>
 7    1  0.2976321E-013  0.7246160E+02  0.7816164E-02  0.1226708E+00
        -11   -1    0    0    0    0  0.00000000000E+00  0.00000000000E+00  0.45593999997E+02  0.45594000000E+02  0.51100000000E-03 0.  1.
         11   -1    0    0    0    0 -0.00000000000E+00 -0.00000000000E+00 -0.45593999997E+02  0.45594000000E+02  0.51100000000E-03 0. -1.
    9900012    2    1    2    0    0  0.24277309394E+01  0.17556560400E+02  0.60457873756E+01  0.72461595231E+02  0.70000032485E+02 0.  0.
         12    1    1    2    0    0 -0.24277309394E+01 -0.17556560400E+02 -0.60457873756E+01  0.18726404769E+02  0.00000000000E+00 0. -1.
         11    1    3    3    0    0  0.12082176497E+02 -0.22403803982E+02  0.70810369353E+01  0.26420645453E+02  0.51100000000E-03 0. -1.
        -11    1    3    3    0    0 -0.12454234690E+02  0.19025751407E+02  0.64436848285E+01  0.23634894811E+02  0.51100000000E-03 0.  1.
        -12    1    3    3    0    0  0.27997891325E+01  0.20934612975E+02 -0.74789343881E+01  0.22406054967E+02  0.00000000000E+00 0.  1.
</event>
<event>
 7    1  0.2976321E-013  0.7246127E+02  0.7816164E-02  0.1226709E+00
        -11   -1    0    0    0    0  0.00000000000E+00  0.00000000000E+00  0.45593999997E+02  0.45594000000E+02  0.51100000000E-03 0.  1.
         11   -1    0    0    0    0 -0.00000000000E+00 -0.00000000000E+00 -0.45593999997E+02  0.45594000000E+02  0.51100000000E-03 0. -1.
    9900012    2    1    2    0    0  0.17141270058E+02  0.45428960293E+01  0.60190856255E+01  0.72461269498E+02  0.69999608156E+02 0.  0.
         12    1    1    2    0    0 -0.17141270058E+02 -0.45428960293E+01 -0.60190856255E+01  0.18726730502E+02  0.00000000000E+00 0. -1.
         11    1    3    3    0    0  0.95079446737E+01 -0.19354368376E+02 -0.12612300725E+02  0.24981247307E+02  0.51100000000E-03 0. -1.
        -11    1    3    3    0    0 -0.93674690513E+01 -0.30018468494E+01 -0.13148415236E+01  0.99241810457E+01  0.51100000000E-03 0.  1.
        -12    1    3    3    0    0  0.17000794435E+02  0.26899111255E+02  0.19946227874E+02  0.37555841146E+02  0.00000000000E+00 0.  1.
</event>
<event>
 7    1  0.2976321E-013  0.7246175E+02  0.7816164E-02  0.1226708E+00
        -11   -1    0    0    0    0  0.00000000000E+00  0.00000000000E+00  0.45593999997E+02  0.45594000000E+02  0.51100000000E-03 0.  1.
         11   -1    0    0    0    0 -0.00000000000E+00 -0.00000000000E+00 -0.45593999997E+02  0.45594000000E+02  0.51100000000E-03 0. -1.
    9900012    2    1    2    0    0 -0.11399759901E+02 -0.95639927970E+01  0.11368729672E+02  0.72461748416E+02  0.70000232037E+02 0.  0.
         12    1    1    2    0    0  0.11399759901E+02  0.95639927970E+01 -0.11368729672E+02  0.18726251584E+02  0.00000000000E+00 0. -1.
         11    1    3    3    0    0  0.82421232514E+00 -0.11343630466E+02  0.13903061790E+02  0.17962527815E+02  0.51100000000E-03 0. -1.
        -11    1    3    3    0    0  0.11339534626E+01 -0.20668751075E+02  0.12674771459E+02  0.24272061166E+02  0.51100000000E-03 0.  1.
         12    1    3    3    0    0 -0.13357925688E+02  0.22448388744E+02 -0.15209103577E+02  0.30227159435E+02  0.00000000000E+00 0. -1.
</event>
<event>
 7    1  0.2976321E-013  0.7246160E+02  0.7816164E-02  0.1226708E+00
        -11   -1    0    0    0    0  0.00000000000E+00  0.00000000000E+00  0.45593999997E+02  0.45594000000E+02  0.51100000000E-03 0.  1.
         11   -1    0    0    0    0 -0.00000000000E+00 -0.00000000000E+00 -0.45593999997E+02  0.45594000000E+02  0.51100000000E-03 0. -1.
    9900012    2    1    2    0    0  0.14497329014E+02 -0.10922811234E+02  0.46040862483E+01  0.72461602482E+02  0.70000041931E+02 0.  0.
         12    1    1    2    0    0 -0.14497329014E+02  0.10922811234E+02 -0.46040862483E+01  0.18726397518E+02  0.00000000000E+00 0. -1.
         11    1    3    3    0    0  0.26383886661E+02  0.48384636463E+00 -0.61198676499E+01  0.27088675918E+02  0.51100000000E-03 0. -1.
        -11    1    3    3    0    0 -0.46737484746E+00  0.97745243313E+01  0.17781257492E+02  0.20296129764E+02  0.51100000000E-03 0.  1.
        -12    1    3    3    0    0 -0.11419182800E+02 -0.21181181930E+02 -0.70573035937E+01  0.25076796801E+02  0.00000000000E+00 0.  1.
</event>
<event>
 7    1  0.2976321E-013  0.7246167E+02  0.7816164E-02  0.1226708E+00
        -11   -1    0    0    0    0  0.00000000000E+00  0.00000000000E+00  0.45593999997E+02  0.45594000000E+02  0.51100000000E-03 0.  1.
         11   -1    0    0    0    0 -0.00000000000E+00 -0.00000000000E+00 -0.45593999997E+02  0.45594000000E+02  0.51100000000E-03 0. -1.
    9900012    2    1    2    0    0  0.85009309707E+01 -0.84644359574E+01  0.14379251695E+02  0.72461671402E+02  0.70000131712E+02 0.  0.
         12    1    1    2    0    0 -0.85009309707E+01  0.84644359574E+01 -0.14379251695E+02  0.18726328598E+02  0.00000000000E+00 0. -1.
         11    1    3    3    0    0 -0.25726747542E+02 -0.24007716577E+01  0.61252857003E+01  0.26554629894E+02  0.51100000000E-03 0. -1.
        -11    1    3    3    0    0  0.65664879584E+01 -0.13575168376E+02 -0.25143172051E+01  0.15288091830E+02  0.51100000000E-03 0.  1.
         12    1    3    3    0    0  0.27661190554E+02  0.75115040760E+01  0.10768283199E+02  0.30618949678E+02  0.00000000000E+00 0. -1.
</event>
<event>
 7    1  0.2976321E-013  0.7246156E+02  0.7816164E-02  0.1226708E+00
        -11   -1    0    0    0    0  0.00000000000E+00  0.00000000000E+00  0.45593999997E+02  0.45594000000E+02  0.51100000000E-03 0.  1.
         11   -1    0    0    0    0 -0.00000000000E+00 -0.00000000000E+00 -0.45593999997E+02  0.45594000000E+02  0.51100000000E-03 0. -1.
    9900012    2    1    2    0    0 -0.16234379883E+02  0.21257592487E+01  0.90887663635E+01  0.72461558358E+02  0.69999984450E+02 0.  0.
         12    1    1    2    0    0  0.16234379883E+02 -0.21257592487E+01 -0.90887663635E+01  0.18726441642E+02  0.00000000000E+00 0. -1.
         11    1    3    3    0    0 -0.87679101988E+01 -0.97660071415E+01  0.99058054629E+01  0.16443117918E+02  0.51100000000E-03 0. -1.
        -11    1    3    3    0    0 -0.25676187371E+02 -0.10232833839E+00  0.14390645508E+02  0.29434125558E+02  0.51100000000E-03 0.  1.
         12    1    3    3    0    0  0.18209717686E+02  0.11994094729E+02 -0.15207684608E+02  0.26584314881E+02  0.00000000000E+00 0. -1.
</event>
<event>
 7    1  0.2976321E-013  0.7246160E+02  0.7816164E-02  0.1226708E+00
        -11   -1    0    0    0    0  0.00000000000E+00  0.00000000000E+00  0.45593999997E+02  0.45594000000E+02  0.51100000000E-03 0.  1.
         11   -1    0    0    0    0 -0.00000000000E+00 -0.00000000000E+00 -0.45593999997E+02  0.45594000000E+02  0.51100000000E-03 0. -1.
    9900012    2    1    2    0    0 -0.18005152659E+02 -0.49793671327E+01  0.13032822777E+01  0.72461597142E+02  0.70000034974E+02 0.  0.
         12    1    1    2    0    0  0.18005152659E+02  0.49793671327E+01 -0.13032822777E+01  0.18726402858E+02  0.00000000000E+00 0. -1.
         11    1    3    3    0    0  0.11895048880E+02  0.13852811884E+02  0.42225073151E+01  0.18740921889E+02  0.51100000000E-03 0. -1.
        -11    1    3    3    0    0  0.10010860008E+02 -0.21170255724E+01  0.95990498112E+00  0.10277185082E+02  0.51100000000E-03 0.  1.
        -12    1    3    3    0    0 -0.39911061547E+02 -0.16715153444E+02 -0.38791300185E+01  0.43443490171E+02  0.00000000000E+00 0.  1.
</event>
<event>
 7    1  0.2976321E-013  0.7246157E+02  0.7816164E-02  0.1226708E+00
        -11   -1    0    0    0    0  0.00000000000E+00  0.00000000000E+00  0.45593999997E+02  0.45594000000E+02  0.51100000000E-03 0. -1.
         11   -1    0    0    0    0 -0.00000000000E+00 -0.00000000000E+00 -0.45593999997E+02  0.45594000000E+02  0.51100000000E-03 0.  1.
    9900012    2    1    2    0    0  0.62042031748E+01 -0.16256410371E+02  0.69221445705E+01  0.72461572134E+02  0.70000002396E+02 0.  0.
         12    1    1    2    0    0 -0.62042031748E+01  0.16256410371E+02 -0.69221445705E+01  0.18726427866E+02  0.00000000000E+00 0. -1.
         11    1    3    3    0    0 -0.38380085606E+01  0.13513783732E+02  0.90494820098E+01  0.16710648862E+02  0.51100000000E-03 0. -1.
        -11    1    3    3    0    0 -0.26506833494E+01 -0.88018507730E+01  0.20453460621E+02  0.22424155522E+02  0.51100000000E-03 0.  1.
        -12    1    3    3    0    0  0.12692895085E+02 -0.20968343330E+02 -0.22580798060E+02  0.33326767750E+02  0.00000000000E+00 0.  1.
</event>
<event>
 7    1  0.2976321E-013  0.7246163E+02  0.7816164E-02  0.1226708E+00
        -11   -1    0    0    0    0  0.00000000000E+00  0.00000000000E+00  0.45593999997E+02  0.45594000000E+02  0.51100000000E-03 0.  1.
         11   -1    0    0    0    0 -0.00000000000E+00 -0.00000000000E+00 -0.45593999997E+02  0.45594000000E+02  0.51100000000E-03 0. -1.
    9900012    2    1    2    0    0 -0.18227689102E+02  0.28721129150E-01  0.42927087291E+01  0.72461632944E+02  0.70000081612E+02 0.  0.
         12    1    1    2    0    0  0.18227689102E+02 -0.28721129150E-01 -0.42927087291E+01  0.18726367056E+02  0.00000000000E+00 0. -1.
         11    1    3    3    0    0  0.48443411206E+01 -0.13199554244E+02  0.14520632511E+02  0.20212487277E+02  0.51100000000E-03 0. -1.
        -11    1    3    3    0    0 -0.10391196143E+01 -0.14411777628E+02  0.25320764330E+01  0.14669373378E+02  0.51100000000E-03 0.  1.
        -12    1    3    3    0    0 -0.22032910608E+02  0.27640053001E+02 -0.12760000215E+02  0.37579772289E+02  0.00000000000E+00 0.  1.
</event>
<event>
 7    1  0.2976321E-013  0.7246159E+02  0.7816164E-02  0.1226708E+00
        -11   -1    0    0    0    0  0.00000000000E+00  0.00000000000E+00  0.45593999997E+02  0.45594000000E+02  0.51100000000E-03 0.  1.
         11   -1    0    0    0    0 -0.00000000000E+00 -0.00000000000E+00 -0.45593999997E+02  0.45594000000E+02  0.51100000000E-03 0. -1.
    9900012    2    1    2    0    0 -0.25082467309E+01 -0.15688447716E+02  0.99126036990E+01  0.72461590694E+02  0.70000026575E+02 0.  0.
         12    1    1    2    0    0  0.25082467309E+01  0.15688447716E+02 -0.99126036990E+01  0.18726409306E+02  0.00000000000E+00 0. -1.
         11    1    3    3    0    0  0.72375713930E+01 -0.31832678322E+02  0.20508403492E+02  0.38552515649E+02  0.51100000000E-03 0. -1.
        -11    1    3    3    0    0 -0.41835381820E+01 -0.64887164285E+01  0.11575775433E+01  0.78067546804E+01  0.51100000000E-03 0.  1.
        -12    1    3    3    0    0 -0.55622799419E+01  0.22632947035E+02 -0.11753377336E+02  0.26102320365E+02  0.00000000000E+00 0.  1.
</event>
<event>
 7    1  0.2976321E-013  0.7246158E+02  0.7816164E-02  0.1226708E+00
        -11   -1    0    0    0    0  0.00000000000E+00  0.00000000000E+00  0.45593999997E+02  0.45594000000E+02  0.51100000000E-03 0.  1.
         11   -1    0    0    0    0 -0.00000000000E+00 -0.00000000000E+00 -0.45593999997E+02  0.45594000000E+02  0.51100000000E-03 0. -1.
    9900012    2    1    2    0    0  0.20921116292E+01 -0.18573010821E+02  0.11598763882E+01  0.72461575481E+02  0.70000006757E+02 0.  0.
         12    1    1    2    0    0 -0.20921116292E+01  0.18573010821E+02 -0.11598763882E+01  0.18726424519E+02  0.00000000000E+00 0. -1.
         11    1    3    3    0    0  0.84134441417E+01 -0.10018856970E+02 -0.13129502777E+02  0.18535031177E+02  0.51100000000E-03 0. -1.
        -11    1    3    3    0    0 -0.63229985748E+00  0.21361509122E+02  0.80851677547E+01  0.22849153441E+02  0.51100000000E-03 0.  1.
         12    1    3    3    0    0 -0.56890326550E+01 -0.29915662973E+02  0.62042114102E+01  0.31077390864E+02  0.00000000000E+00 0. -1.
</event>
<event>
 7    1  0.2976321E-013  0.7246156E+02  0.7816164E-02  0.1226708E+00
        -11   -1    0    0    0    0  0.00000000000E+00  0.00000000000E+00  0.45593999997E+02  0.45594000000E+02  0.51100000000E-03 0.  1.
         11   -1    0    0    0    0 -0.00000000000E+00 -0.00000000000E+00 -0.45593999997E+02  0.45594000000E+02  0.51100000000E-03 0. -1.
    9900012    2    1    2    0    0 -0.57025829922E+01 -0.37133175348E+01  0.17446244875E+02  0.72461557729E+02  0.69999983631E+02 0.  0.
         12    1    1    2    0    0  0.57025829922E+01  0.37133175348E+01 -0.17446244875E+02  0.18726442271E+02  0.00000000000E+00 0. -1.
         11    1    3    3    0    0 -0.11538189219E+01 -0.20762519090E+02 -0.12931575217E+02  0.24487530192E+02  0.51100000000E-03 0. -1.
        -11    1    3    3    0    0  0.11317590241E+02  0.22848403721E+01  0.11723882300E+01  0.11605293568E+02  0.51100000000E-03 0.  1.
         12    1    3    3    0    0 -0.15866354311E+02  0.14764361183E+02  0.29205431862E+02  0.36368733969E+02  0.00000000000E+00 0. -1.
</event>
<event>
 7    1  0.2976321E-013  0.7246159E+02  0.7816164E-02  0.1226708E+00
        -11   -1    0    0    0    0  0.00000000000E+00  0.00000000000E+00  0.45593999997E+02  0.45594000000E+02  0.51100000000E-03 0.  1.
         11   -1    0    0    0    0 -0.00000000000E+00 -0.00000000000E+00 -0.45593999997E+02  0.45594000000E+02  0.51100000000E-03 0. -1.
    9900012    2    1    2    0    0 -0.15258932726E+01 -0.18473113428E+02 -0.26634798623E+01  0.72461590975E+02  0.70000026940E+02 0.  0.
         12    1    1    2    0    0  0.15258932726E+01  0.18473113428E+02  0.26634798623E+01  0.18726409025E+02  0.00000000000E+00 0. -1.
         11    1    3    3    0    0 -0.17096110076E+02 -0.95991986828E+01 -0.16858545970E+02  0.25857922723E+02  0.51100000000E-03 0. -1.
        -11    1    3    3    0    0 -0.24017208045E+01 -0.99407532647E+01 -0.11397438227E+02  0.15313015271E+02  0.51100000000E-03 0.  1.
        -12    1    3    3    0    0  0.17971937607E+02  0.10668385195E+01  0.25592504335E+02  0.31290652980E+02  0.00000000000E+00 0.  1.
</event>
<event>
 7    1  0.2976321E-013  0.7246159E+02  0.7816164E-02  0.1226708E+00
        -11   -1    0    0    0    0  0.00000000000E+00  0.00000000000E+00  0.45593999997E+02  0.45594000000E+02  0.51100000000E-03 0.  1.
         11   -1    0    0    0    0 -0.00000000000E+00 -0.00000000000E+00 -0.45593999997E+02  0.45594000000E+02  0.51100000000E-03 0. -1.
    9900012    2    1    2    0    0 -0.90167295427E+01 -0.32655594727E+01  0.16084561806E+02  0.72461590338E+02  0.70000026111E+02 0.  0.
         12    1    1    2    0    0  0.90167295427E+01  0.32655594727E+01 -0.16084561806E+02  0.18726409662E+02  0.00000000000E+00 0. -1.
         11    1    3    3    0    0 -0.28371782053E+02 -0.42620925428E+01 -0.85079932348E+01  0.29925063055E+02  0.51100000000E-03 0. -1.
        -11    1    3    3    0    0  0.13730718736E+02  0.16393737941E+01 -0.31830969820E+01  0.14189865753E+02  0.51100000000E-03 0.  1.
        -12    1    3    3    0    0  0.56243337747E+01 -0.64284072404E+00  0.27775652023E+02  0.28346661530E+02  0.00000000000E+00 0.  1.
</event>
<event>
 7    1  0.2976321E-013  0.7246152E+02  0.7816164E-02  0.1226708E+00
        -11   -1    0    0    0    0  0.00000000000E+00  0.00000000000E+00  0.45593999997E+02  0.45594000000E+02  0.51100000000E-03 0.  1.
         11   -1    0    0    0    0 -0.00000000000E+00 -0.00000000000E+00 -0.45593999997E+02  0.45594000000E+02  0.51100000000E-03 0. -1.
    9900012    2    1    2    0    0 -0.14464903779E+02 -0.29164684343E+01  0.11530045970E+02  0.72461516360E+02  0.69999929740E+02 0.  0.
         12    1    1    2    0    0  0.14464903779E+02  0.29164684343E+01 -0.11530045970E+02  0.18726483640E+02  0.00000000000E+00 0. -1.
         11    1    3    3    0    0 -0.14831600998E+02 -0.80623159955E+01 -0.30163005893E+00  0.16883966013E+02  0.51100000000E-03 0. -1.
        -11    1    3    3    0    0 -0.61414469869E+01 -0.15657214931E+02 -0.13925249383E+02  0.21835254089E+02  0.51100000000E-03 0.  1.
         12    1    3    3    0    0  0.65081442058E+01  0.20803062492E+02  0.25756925412E+02  0.33742296258E+02  0.00000000000E+00 0. -1.
</event>
<event>
 7    1  0.2976321E-013  0.7246157E+02  0.7816164E-02  0.1226708E+00
        -11   -1    0    0    0    0  0.00000000000E+00  0.00000000000E+00  0.45593999997E+02  0.45594000000E+02  0.51100000000E-03 0.  1.
         11   -1    0    0    0    0 -0.00000000000E+00 -0.00000000000E+00 -0.45593999997E+02  0.45594000000E+02  0.51100000000E-03 0. -1.
    9900012    2    1    2    0    0 -0.13850073761E+02  0.79327393334E+01  0.97941959290E+01  0.72461570271E+02  0.69999999969E+02 0.  0.
         12    1    1    2    0    0  0.13850073761E+02 -0.79327393334E+01 -0.97941959290E+01  0.18726429729E+02  0.00000000000E+00 0. -1.
         11    1    3    3    0    0 -0.10085793351E+02 -0.33877514416E+01 -0.48762638980E+01  0.11703761669E+02  0.51100000000E-03 0. -1.
        -11    1    3    3    0    0 -0.27300993595E+02  0.28569436269E+01  0.21457109212E+02  0.34841267402E+02  0.51100000000E-03 0.  1.
         12    1    3    3    0    0  0.23536713185E+02  0.84635471481E+01 -0.67866493849E+01  0.25916541200E+02  0.00000000000E+00 0. -1.
</event>
<event>
 7    1  0.2976321E-013  0.7246154E+02  0.7816164E-02  0.1226708E+00
        -11   -1    0    0    0    0  0.00000000000E+00  0.00000000000E+00  0.45593999997E+02  0.45594000000E+02  0.51100000000E-03 0.  1.
         11   -1    0    0    0    0 -0.00000000000E+00 -0.00000000000E+00 -0.45593999997E+02  0.45594000000E+02  0.51100000000E-03 0. -1.
    9900012    2    1    2    0    0  0.13255652860E+02 -0.78247682998E+01  0.10664934986E+02  0.72461543583E+02  0.69999965203E+02 0.  0.
         12    1    1    2    0    0 -0.13255652860E+02  0.78247682998E+01 -0.10664934986E+02  0.18726456417E+02  0.00000000000E+00 0. -1.
         11    1    3    3    0    0  0.15750952872E+02  0.70981782455E+01 -0.74098921654E+01  0.18798488049E+02  0.51100000000E-03 0. -1.
        -11    1    3    3    0    0  0.42602701403E+01 -0.28055897472E+02 -0.23315443388E+01  0.28473134423E+02  0.51100000000E-03 0.  1.
        -12    1    3    3    0    0 -0.67555701526E+01  0.13132950927E+02  0.20406371491E+02  0.25189921110E+02  0.00000000000E+00 0.  1.
</event>
<event>
 7    1  0.2976321E-013  0.7246155E+02  0.7816164E-02  0.1226708E+00
        -11   -1    0    0    0    0  0.00000000000E+00  0.00000000000E+00  0.45593999997E+02  0.45594000000E+02  0.51100000000E-03 0.  1.
         11   -1    0    0    0    0 -0.00000000000E+00 -0.00000000000E+00 -0.45593999997E+02  0.45594000000E+02  0.51100000000E-03 0. -1.
    9900012    2    1    2    0    0  0.40460878445E+00 -0.18001977584E+02  0.51424718904E+01  0.72461550193E+02  0.69999973815E+02 0.  0.
         12    1    1    2    0    0 -0.40460878445E+00  0.18001977584E+02 -0.51424718904E+01  0.18726449807E+02  0.00000000000E+00 0. -1.
         11    1    3    3    0    0  0.68169930213E+01  0.14871886525E+02 -0.10790938586E+02  0.19598182531E+02  0.51100000000E-03 0. -1.
        -11    1    3    3    0    0 -0.17935097772E+02 -0.41872535725E+01  0.11289593550E+02  0.21602216261E+02  0.51100000000E-03 0.  1.
         12    1    3    3    0    0  0.11522713536E+02 -0.28686610537E+02  0.46438169265E+01  0.31261151402E+02  0.00000000000E+00 0. -1.
</event>
<event>
 7    1  0.2976321E-013  0.7246161E+02  0.7816164E-02  0.1226708E+00
        -11   -1    0    0    0    0  0.00000000000E+00  0.00000000000E+00  0.45593999997E+02  0.45594000000E+02  0.51100000000E-03 0.  1.
         11   -1    0    0    0    0 -0.00000000000E+00 -0.00000000000E+00 -0.45593999997E+02  0.45594000000E+02  0.51100000000E-03 0. -1.
    9900012    2    1    2    0    0  0.99525388703E+00  0.11614346355E+02  0.14655849891E+02  0.72461614669E+02  0.70000057806E+02 0.  0.
         12    1    1    2    0    0 -0.99525388703E+00 -0.11614346355E+02 -0.14655849891E+02  0.18726385331E+02  0.00000000000E+00 0. -1.
         11    1    3    3    0    0 -0.20649198351E+01 -0.27810063575E+02  0.11139426835E+02  0.30029158504E+02  0.51100000000E-03 0. -1.
        -11    1    3    3    0    0  0.89540315950E+01  0.20683809272E+02  0.40741667976E+00  0.22542418602E+02  0.51100000000E-03 0.  1.
        -12    1    3    3    0    0 -0.58938578728E+01  0.18740600658E+02  0.31090063761E+01  0.19890037564E+02  0.00000000000E+00 0.  1.
</event>
<event>
 7    1  0.2976321E-013  0.7246094E+02  0.7816164E-02  0.1226710E+00
        -11   -1    0    0    0    0  0.00000000000E+00  0.00000000000E+00  0.45593999997E+02  0.45594000000E+02  0.51100000000E-03 0.  1.
         11   -1    0    0    0    0 -0.00000000000E+00 -0.00000000000E+00 -0.45593999997E+02  0.45594000000E+02  0.51100000000E-03 0. -1.
    9900012    2    1    2    0    0  0.57929754144E+01  0.10609185307E+02  0.14303476162E+02  0.72460939169E+02  0.69999177838E+02 0.  0.
         12    1    1    2    0    0 -0.57929754144E+01 -0.10609185307E+02 -0.14303476162E+02  0.18727060831E+02  0.00000000000E+00 0. -1.
         11    1    3    3    0    0 -0.13391589160E+02 -0.13972624529E+02 -0.44932624635E+01  0.19868525468E+02  0.51100000000E-03 0. -1.
        -11    1    3    3    0    0  0.50914835682E+01  0.11157964176E+02  0.28366079576E+02  0.30904010100E+02  0.51100000000E-03 0.  1.
         12    1    3    3    0    0  0.14093081006E+02  0.13423845660E+02 -0.95693409510E+01  0.21688403601E+02  0.00000000000E+00 0. -1.
</event>
<event>
 7    1  0.2976321E-013  0.7246158E+02  0.7816164E-02  0.1226708E+00
        -11   -1    0    0    0    0  0.00000000000E+00  0.00000000000E+00  0.45593999997E+02  0.45594000000E+02  0.51100000000E-03 0. -1.
         11   -1    0    0    0    0 -0.00000000000E+00 -0.00000000000E+00 -0.45593999997E+02  0.45594000000E+02  0.51100000000E-03 0.  1.
    9900012    2    1    2    0    0 -0.88552779881E+01  0.11981908288E+02 -0.11344463143E+02  0.72461576998E+02  0.70000008732E+02 0.  0.
         12    1    1    2    0    0  0.88552779881E+01 -0.11981908288E+02  0.11344463143E+02  0.18726423002E+02  0.00000000000E+00 0. -1.
         11    1    3    3    0    0 -0.16527497250E+02  0.14560801264E+01  0.94649851554E+01  0.19101420862E+02  0.51100000000E-03 0. -1.
        -11    1    3    3    0    0  0.46136972214E+01  0.29435558175E+02 -0.14906380739E+02  0.33315739135E+02  0.51100000000E-03 0.  1.
         12    1    3    3    0    0  0.30585220404E+01 -0.18909730014E+02 -0.59030675596E+01  0.20044417000E+02  0.00000000000E+00 0. -1.
</event>
<event>
 7    1  0.4389264E-013  0.7246157E+02  0.7816164E-02  0.1226708E+00
        -11   -1    0    0    0    0  0.00000000000E+00  0.00000000000E+00  0.45593999997E+02  0.45594000000E+02  0.51100000000E-03 0.  1.
         11   -1    0    0    0    0 -0.00000000000E+00 -0.00000000000E+00 -0.45593999997E+02  0.45594000000E+02  0.51100000000E-03 0. -1.
    9900012    2    1    2    0    0 -0.21185661324E+01  0.84035613306E+01 -0.16600336784E+02  0.72461565560E+02  0.69999993833E+02 0.  0.
         12    1    1    2    0    0  0.21185661324E+01 -0.84035613306E+01  0.16600336784E+02  0.18726434440E+02  0.00000000000E+00 0. -1.
         11    1    3    3    0    0 -0.84556392303E+01  0.27252460549E+02 -0.31881294761E+01  0.28711645905E+02  0.51100000000E-03 0. -1.
        -11    1    3    3    0    0  0.86174725426E+01  0.51180107549E+01 -0.16674325150E+02  0.19454767708E+02  0.51100000000E-03 0.  1.
        -12    1    3    3    0    0 -0.22803994447E+01 -0.23966909973E+02  0.32621178422E+01  0.24295151947E+02  0.00000000000E+00 0.  1.
</event>
<event>
 7    1  0.2976321E-013  0.7246148E+02  0.7816164E-02  0.1226708E+00
        -11   -1    0    0    0    0  0.00000000000E+00  0.00000000000E+00  0.45593999997E+02  0.45594000000E+02  0.51100000000E-03 0. -1.
         11   -1    0    0    0    0 -0.00000000000E+00 -0.00000000000E+00 -0.45593999997E+02  0.45594000000E+02  0.51100000000E-03 0.  1.
    9900012    2    1    2    0    0  0.51584661089E+01 -0.17827149549E+02 -0.25031193961E+01  0.72461477623E+02  0.69999879278E+02 0.  0.
         12    1    1    2    0    0 -0.51584661089E+01  0.17827149549E+02  0.25031193961E+01  0.18726522377E+02  0.00000000000E+00 0. -1.
         11    1    3    3    0    0 -0.18492987687E+02 -0.14522617424E+02  0.10498145685E+02  0.25750884907E+02  0.51100000000E-03 0. -1.
        -11    1    3    3    0    0  0.31972923404E+01 -0.11524835885E+02  0.94524803222E+01  0.15244471293E+02  0.51100000000E-03 0.  1.
         12    1    3    3    0    0  0.20454161455E+02  0.82203037599E+01 -0.22453745403E+02  0.31466121423E+02  0.00000000000E+00 0. -1.
</event>
<event>
 7    1  0.2976321E-013  0.7246160E+02  0.7816164E-02  0.1226708E+00
        -11   -1    0    0    0    0  0.00000000000E+00  0.00000000000E+00  0.45593999997E+02  0.45594000000E+02  0.51100000000E-03 0.  1.
         11   -1    0    0    0    0 -0.00000000000E+00 -0.00000000000E+00 -0.45593999997E+02  0.45594000000E+02  0.51100000000E-03 0. -1.
    9900012    2    1    2    0    0  0.17517194217E+01 -0.15555351630E+02  0.10278166880E+02  0.72461596190E+02  0.70000033734E+02 0.  0.
         12    1    1    2    0    0 -0.17517194217E+01  0.15555351630E+02 -0.10278166880E+02  0.18726403810E+02  0.00000000000E+00 0. -1.
         11    1    3    3    0    0  0.12627294546E+02  0.58319026284E+01  0.72574140403E+01  0.15688521747E+02  0.51100000000E-03 0. -1.
        -11    1    3    3    0    0  0.27102712501E+01  0.15037218705E+02 -0.67256998953E+01  0.16694267159E+02  0.51100000000E-03 0.  1.
        -12    1    3    3    0    0 -0.13585846374E+02 -0.36424472963E+02  0.97464527351E+01  0.40078807283E+02  0.00000000000E+00 0.  1.
</event>
<event>
 7    1  0.2976321E-013  0.7246154E+02  0.7816164E-02  0.1226708E+00
        -11   -1    0    0    0    0  0.00000000000E+00  0.00000000000E+00  0.45593999997E+02  0.45594000000E+02  0.51100000000E-03 0. -1.
         11   -1    0    0    0    0 -0.00000000000E+00 -0.00000000000E+00 -0.45593999997E+02  0.45594000000E+02  0.51100000000E-03 0.  1.
    9900012    2    1    2    0    0 -0.81453117190E+01  0.77309286093E+00 -0.16844477073E+02  0.72461543223E+02  0.69999964735E+02 0.  0.
         12    1    1    2    0    0  0.81453117190E+01 -0.77309286093E+00  0.16844477073E+02  0.18726456777E+02  0.00000000000E+00 0. -1.
         11    1    3    3    0    0 -0.59785019932E+01 -0.66644039428E+01  0.11293346192E+02  0.14411677018E+02  0.51100000000E-03 0. -1.
        -11    1    3    3    0    0 -0.11995844641E+02  0.26559827546E+02 -0.18239264443E+02  0.34380161367E+02  0.51100000000E-03 0.  1.
         12    1    3    3    0    0  0.98290349148E+01 -0.19122330743E+02 -0.98985588216E+01  0.23669704838E+02  0.00000000000E+00 0. -1.
</event>
<event>
 7    1  0.2976321E-013  0.7246157E+02  0.7816164E-02  0.1226708E+00
        -11   -1    0    0    0    0  0.00000000000E+00  0.00000000000E+00  0.45593999997E+02  0.45594000000E+02  0.51100000000E-03 0. -1.
         11   -1    0    0    0    0 -0.00000000000E+00 -0.00000000000E+00 -0.45593999997E+02  0.45594000000E+02  0.51100000000E-03 0.  1.
    9900012    2    1    2    0    0  0.81524583646E+00  0.78479260201E+01 -0.16983068976E+02  0.72461569469E+02  0.69999998925E+02 0.  0.
         12    1    1    2    0    0 -0.81524583646E+00 -0.78479260201E+01  0.16983068976E+02  0.18726430531E+02  0.00000000000E+00 0. -1.
         11    1    3    3    0    0 -0.20278389336E+01  0.18052977885E+02 -0.36384924688E+02  0.40667983550E+02  0.51100000000E-03 0. -1.
        -11    1    3    3    0    0  0.42104795854E+01  0.59810646487E+01  0.12252629180E+01  0.74163698768E+01  0.51100000000E-03 0.  1.
         12    1    3    3    0    0 -0.13673948153E+01 -0.16186116514E+02  0.18176592794E+02  0.24377216042E+02  0.00000000000E+00 0. -1.
</event>
<event>
 7    1  0.2976321E-013  0.7246158E+02  0.7816164E-02  0.1226708E+00
        -11   -1    0    0    0    0  0.00000000000E+00  0.00000000000E+00  0.45593999997E+02  0.45594000000E+02  0.51100000000E-03 0. -1.
         11   -1    0    0    0    0 -0.00000000000E+00 -0.00000000000E+00 -0.45593999997E+02  0.45594000000E+02  0.51100000000E-03 0.  1.
    9900012    2    1    2    0    0  0.17799780713E+02  0.50480878632E+01  0.28919379352E+01  0.72461583111E+02  0.70000016695E+02 0.  0.
         12    1    1    2    0    0 -0.17799780713E+02 -0.50480878632E+01 -0.28919379352E+01  0.18726416889E+02  0.00000000000E+00 0. -1.
         11    1    3    3    0    0  0.62828481783E+01 -0.15920867468E+02  0.71070969316E+00  0.17130478998E+02  0.51100000000E-03 0. -1.
        -11    1    3    3    0    0 -0.41332794046E+01 -0.15142584232E+02 -0.16748869571E+01  0.15785661292E+02  0.51100000000E-03 0.  1.
        -12    1    3    3    0    0  0.15650211939E+02  0.36111539564E+02  0.38561151991E+01  0.39545442820E+02  0.00000000000E+00 0.  1.
</event>
<event>
 7    1  0.2976321E-013  0.7246158E+02  0.7816164E-02  0.1226708E+00
        -11   -1    0    0    0    0  0.00000000000E+00  0.00000000000E+00  0.45593999997E+02  0.45594000000E+02  0.51100000000E-03 0.  1.
         11   -1    0    0    0    0 -0.00000000000E+00 -0.00000000000E+00 -0.45593999997E+02  0.45594000000E+02  0.51100000000E-03 0. -1.
    9900012    2    1    2    0    0 -0.11353714752E+02 -0.30447927193E+01  0.14577420901E+02  0.72461580121E+02  0.70000012800E+02 0.  0.
         12    1    1    2    0    0  0.11353714752E+02  0.30447927193E+01 -0.14577420901E+02  0.18726419879E+02  0.00000000000E+00 0. -1.
         11    1    3    3    0    0 -0.25398435884E+02  0.20389835778E+02 -0.44425066887E+00  0.32573352719E+02  0.51100000000E-03 0. -1.
        -11    1    3    3    0    0  0.43408034448E+01  0.50190673593E+01  0.45829767587E+01  0.80645699163E+01  0.51100000000E-03 0.  1.
        -12    1    3    3    0    0  0.97039176871E+01 -0.28453695857E+02  0.10438694811E+02  0.31823657486E+02  0.00000000000E+00 0.  1.
</event>
<event>
 7    1  0.2976321E-013  0.7246161E+02  0.7816164E-02  0.1226708E+00
        -11   -1    0    0    0    0  0.00000000000E+00  0.00000000000E+00  0.45593999997E+02  0.45594000000E+02  0.51100000000E-03 0. -1.
         11   -1    0    0    0    0 -0.00000000000E+00 -0.00000000000E+00 -0.45593999997E+02  0.45594000000E+02  0.51100000000E-03 0.  1.
    9900012    2    1    2    0    0  0.16357230465E+02 -0.23530878242E+00 -0.91139158448E+01  0.72461606308E+02  0.70000046914E+02 0.  0.
         12    1    1    2    0    0 -0.16357230465E+02  0.23530878242E+00  0.91139158448E+01  0.18726393692E+02  0.00000000000E+00 0. -1.
         11    1    3    3    0    0 -0.12139752418E+02  0.14703875802E+02 -0.18489998155E+02  0.26560451510E+02  0.51100000000E-03 0. -1.
        -11    1    3    3    0    0  0.18608023374E+01  0.38736443903E+01 -0.79032717873E+01  0.89960775567E+01  0.51100000000E-03 0.  1.
        -12    1    3    3    0    0  0.26636180546E+02 -0.18812828975E+02  0.17279354098E+02  0.36905077241E+02  0.00000000000E+00 0.  1.
</event>
<event>
 7    1  0.2976321E-013  0.7246155E+02  0.7816164E-02  0.1226708E+00
        -11   -1    0    0    0    0  0.00000000000E+00  0.00000000000E+00  0.45593999997E+02  0.45594000000E+02  0.51100000000E-03 0. -1.
         11   -1    0    0    0    0 -0.00000000000E+00 -0.00000000000E+00 -0.45593999997E+02  0.45594000000E+02  0.51100000000E-03 0.  1.
    9900012    2    1    2    0    0 -0.80880558988E+01 -0.15715710721E+02 -0.61870528836E+01  0.72461552524E+02  0.69999976851E+02 0.  0.
         12    1    1    2    0    0  0.80880558988E+01  0.15715710721E+02  0.61870528836E+01  0.18726447476E+02  0.00000000000E+00 0. -1.
         11    1    3    3    0    0 -0.15620031937E+02  0.82161259774E+01 -0.69555958702E+01  0.18970251394E+02  0.51100000000E-03 0. -1.
        -11    1    3    3    0    0 -0.17325108624E+02 -0.69014095717E+00  0.73468864803E+01  0.18831155689E+02  0.51100000000E-03 0.  1.
         12    1    3    3    0    0  0.24857084662E+02 -0.23241695741E+02 -0.65783434937E+01  0.34660145440E+02  0.00000000000E+00 0. -1.
</event>
<event>
 7    1  0.2976321E-013  0.7246151E+02  0.7816164E-02  0.1226708E+00
        -11   -1    0    0    0    0  0.00000000000E+00  0.00000000000E+00  0.45593999997E+02  0.45594000000E+02  0.51100000000E-03 0.  1.
         11   -1    0    0    0    0 -0.00000000000E+00 -0.00000000000E+00 -0.45593999997E+02  0.45594000000E+02  0.51100000000E-03 0. -1.
    9900012    2    1    2    0    0 -0.11665060309E+02  0.14263818296E+02  0.33393390563E+01  0.72461512616E+02  0.69999924863E+02 0.  0.
         12    1    1    2    0    0  0.11665060309E+02 -0.14263818296E+02 -0.33393390563E+01  0.18726487384E+02  0.00000000000E+00 0. -1.
         11    1    3    3    0    0  0.14852882566E+02 -0.90782916952E+00 -0.10908487247E+02  0.18450673933E+02  0.51100000000E-03 0. -1.
        -11    1    3    3    0    0 -0.42999177287E+00  0.12121095734E+02  0.23268039723E+02  0.26239426967E+02  0.51100000000E-03 0.  1.
        -12    1    3    3    0    0 -0.26087951102E+02  0.30505517318E+01 -0.90202134205E+01  0.27771411716E+02  0.00000000000E+00 0.  1.
</event>
<event>
 7    1  0.2976321E-013  0.7246151E+02  0.7816164E-02  0.1226708E+00
        -11   -1    0    0    0    0  0.00000000000E+00  0.00000000000E+00  0.45593999997E+02  0.45594000000E+02  0.51100000000E-03 0.  1.
         11   -1    0    0    0    0 -0.00000000000E+00 -0.00000000000E+00 -0.45593999997E+02  0.45594000000E+02  0.51100000000E-03 0. -1.
    9900012    2    1    2    0    0  0.13706484269E+02 -0.12741884067E+02 -0.67684258695E+00  0.72461509767E+02  0.69999921152E+02 0.  0.
         12    1    1    2    0    0 -0.13706484269E+02  0.12741884067E+02  0.67684258695E+00  0.18726490233E+02  0.00000000000E+00 0. -1.
         11    1    3    3    0    0 -0.80474572799E+01  0.38789729152E+01  0.15277496778E+02  0.17697737358E+02  0.51100000000E-03 0. -1.
        -11    1    3    3    0    0  0.28425940880E+00  0.95125586979E+01  0.87125155926E+01  0.12902616192E+02  0.51100000000E-03 0.  1.
         12    1    3    3    0    0  0.21469682140E+02 -0.26133415680E+02 -0.24666854957E+02  0.41861156216E+02  0.00000000000E+00 0. -1.
</event>
<event>
 7    1  0.2976321E-013  0.7246161E+02  0.7816164E-02  0.1226708E+00
        -11   -1    0    0    0    0  0.00000000000E+00  0.00000000000E+00  0.45593999997E+02  0.45594000000E+02  0.51100000000E-03 0.  1.
         11   -1    0    0    0    0 -0.00000000000E+00 -0.00000000000E+00 -0.45593999997E+02  0.45594000000E+02  0.51100000000E-03 0. -1.
    9900012    2    1    2    0    0  0.17924582768E+02 -0.15305944045E+00  0.54188181596E+01  0.72461609936E+02  0.70000051640E+02 0.  0.
         12    1    1    2    0    0 -0.17924582768E+02  0.15305944045E+00 -0.54188181596E+01  0.18726390064E+02  0.00000000000E+00 0. -1.
         11    1    3    3    0    0  0.13753267633E+02 -0.11248357712E+02 -0.13893174548E+02  0.22554339297E+02  0.51100000000E-03 0. -1.
        -11    1    3    3    0    0  0.12101719657E+02 -0.98526018130E+01 -0.54389008633E+01  0.16525950018E+02  0.51100000000E-03 0.  1.
         12    1    3    3    0    0 -0.79304045220E+01  0.20947900085E+02  0.24750893571E+02  0.33381320621E+02  0.00000000000E+00 0. -1.
</event>
<event>
 7    1  0.3454997E-013  0.7246158E+02  0.7816164E-02  0.1226708E+00
        -11   -1    0    0    0    0  0.00000000000E+00  0.00000000000E+00  0.45593999997E+02  0.45594000000E+02  0.51100000000E-03 0.  1.
         11   -1    0    0    0    0 -0.00000000000E+00 -0.00000000000E+00 -0.45593999997E+02  0.45594000000E+02  0.51100000000E-03 0. -1.
    9900012    2    1    2    0    0 -0.16788923697E+02 -0.27791864052E+01  0.78158269559E+01  0.72461575168E+02  0.70000006349E+02 0.  0.
         12    1    1    2    0    0  0.16788923697E+02  0.27791864052E+01 -0.78158269559E+01  0.18726424832E+02  0.00000000000E+00 0. -1.
         11    1    3    3    0    0 -0.17658594088E+02  0.50152420914E+01 -0.16127279526E+02  0.24434969687E+02  0.51100000000E-03 0. -1.
        -11    1    3    3    0    0  0.10644489130E+02  0.12221952557E+02  0.12941263899E+01  0.16259029384E+02  0.51100000000E-03 0.  1.
        -12    1    3    3    0    0 -0.97748187389E+01 -0.20016381054E+02  0.22648980092E+02  0.31767576097E+02  0.00000000000E+00 0.  1.
</event>
<event>
 7    1  0.2976321E-013  0.7246158E+02  0.7816164E-02  0.1226708E+00
        -11   -1    0    0    0    0  0.00000000000E+00  0.00000000000E+00  0.45593999997E+02  0.45594000000E+02  0.51100000000E-03 0.  1.
         11   -1    0    0    0    0 -0.00000000000E+00 -0.00000000000E+00 -0.45593999997E+02  0.45594000000E+02  0.51100000000E-03 0. -1.
    9900012    2    1    2    0    0 -0.40212174719E+01  0.37039889695E+01  0.17910586722E+02  0.72461579066E+02  0.70000011427E+02 0.  0.
         12    1    1    2    0    0  0.40212174719E+01 -0.37039889695E+01 -0.17910586722E+02  0.18726420934E+02  0.00000000000E+00 0. -1.
         11    1    3    3    0    0 -0.10390138691E+02 -0.50559275613E+01 -0.21751042500E+01  0.11757910711E+02  0.51100000000E-03 0. -1.
        -11    1    3    3    0    0 -0.13336560014E+02  0.21182880803E+02  0.26589515591E+02  0.36518223009E+02  0.51100000000E-03 0.  1.
         12    1    3    3    0    0  0.19705481233E+02 -0.12422964272E+02 -0.65038246184E+01  0.24185445346E+02  0.00000000000E+00 0. -1.
</event>
<event>
 7    1  0.2976321E-013  0.7246166E+02  0.7816164E-02  0.1226708E+00
        -11   -1    0    0    0    0  0.00000000000E+00  0.00000000000E+00  0.45593999997E+02  0.45594000000E+02  0.51100000000E-03 0.  1.
         11   -1    0    0    0    0 -0.00000000000E+00 -0.00000000000E+00 -0.45593999997E+02  0.45594000000E+02  0.51100000000E-03 0. -1.
    9900012    2    1    2    0    0  0.13137132102E+02  0.13214315347E+02  0.18636968785E+01  0.72461661970E+02  0.70000119425E+02 0.  0.
         12    1    1    2    0    0 -0.13137132102E+02 -0.13214315347E+02 -0.18636968785E+01  0.18726338030E+02  0.00000000000E+00 0. -1.
         11    1    3    3    0    0 -0.21358294921E+02 -0.53634122167E+01  0.63158547333E+01  0.22909233375E+02  0.51100000000E-03 0. -1.
        -11    1    3    3    0    0  0.68874531282E+01  0.17984428300E+02 -0.95106714328E+01  0.21478583362E+02  0.51100000000E-03 0.  1.
        -12    1    3    3    0    0  0.27607973895E+02  0.59329926415E+00  0.50585135779E+01  0.28073845234E+02  0.00000000000E+00 0.  1.
</event>
<event>
 7    1  0.2976321E-013  0.7246191E+02  0.7816164E-02  0.1226707E+00
        -11   -1    0    0    0    0  0.00000000000E+00  0.00000000000E+00  0.45593999997E+02  0.45594000000E+02  0.51100000000E-03 0.  1.
         11   -1    0    0    0    0 -0.00000000000E+00 -0.00000000000E+00 -0.45593999997E+02  0.45594000000E+02  0.51100000000E-03 0. -1.
    9900012    2    1    2    0    0 -0.11423767143E+02  0.14271805963E+02 -0.40595176519E+01  0.72461906314E+02  0.70000437727E+02 0.  0.
         12    1    1    2    0    0  0.11423767143E+02 -0.14271805963E+02  0.40595176519E+01  0.18726093686E+02  0.00000000000E+00 0. -1.
         11    1    3    3    0    0 -0.32456495544E+02  0.17479810523E+02 -0.13902360017E+02  0.39398521459E+02  0.51100000000E-03 0. -1.
        -11    1    3    3    0    0  0.68746804408E-03 -0.77814744798E+01 -0.25971439360E+01  0.82034445472E+01  0.51100000000E-03 0.  1.
        -12    1    3    3    0    0  0.21032040933E+02  0.45734699201E+01  0.12439986301E+02  0.24859940307E+02  0.00000000000E+00 0.  1.
</event>
<event>
 7    1  0.2976321E-013  0.7246168E+02  0.7816164E-02  0.1226708E+00
        -11   -1    0    0    0    0  0.00000000000E+00  0.00000000000E+00  0.45593999997E+02  0.45594000000E+02  0.51100000000E-03 0.  1.
         11   -1    0    0    0    0 -0.00000000000E+00 -0.00000000000E+00 -0.45593999997E+02  0.45594000000E+02  0.51100000000E-03 0. -1.
    9900012    2    1    2    0    0 -0.12983169926E+02  0.10228656922E+02  0.88026705667E+01  0.72461678075E+02  0.70000140404E+02 0.  0.
         12    1    1    2    0    0  0.12983169926E+02 -0.10228656922E+02 -0.88026705667E+01  0.18726321925E+02  0.00000000000E+00 0. -1.
         11    1    3    3    0    0 -0.18718503643E+02  0.55597485697E+01  0.46125295120E+01  0.20064112529E+02  0.51100000000E-03 0. -1.
        -11    1    3    3    0    0 -0.15912897639E+02  0.77702668352E+01  0.19009675830E+02  0.25980091097E+02  0.51100000000E-03 0.  1.
         12    1    3    3    0    0  0.21648231357E+02 -0.31013584832E+01 -0.14819534776E+02  0.26417474449E+02  0.00000000000E+00 0. -1.
</event>
<event>
 7    1  0.2976321E-013  0.7246155E+02  0.7816164E-02  0.1226708E+00
        -11   -1    0    0    0    0  0.00000000000E+00  0.00000000000E+00  0.45593999997E+02  0.45594000000E+02  0.51100000000E-03 0.  1.
         11   -1    0    0    0    0 -0.00000000000E+00 -0.00000000000E+00 -0.45593999997E+02  0.45594000000E+02  0.51100000000E-03 0. -1.
    9900012    2    1    2    0    0  0.32748490799E+01 -0.14702679586E+02  0.11125932914E+02  0.72461553281E+02  0.69999977837E+02 0.  0.
         12    1    1    2    0    0 -0.32748490799E+01  0.14702679586E+02 -0.11125932914E+02  0.18726446719E+02  0.00000000000E+00 0. -1.
         11    1    3    3    0    0  0.19615514951E+01  0.60980974395E+01 -0.19330513420E+02  0.20364263454E+02  0.51100000000E-03 0. -1.
        -11    1    3    3    0    0 -0.64356185173E+01 -0.12829743510E+01 -0.67244952849E+01  0.93958525948E+01  0.51100000000E-03 0.  1.
        -12    1    3    3    0    0  0.77489161021E+01 -0.19517802675E+02  0.37180941620E+02  0.42701437233E+02  0.00000000000E+00 0.  1.
</event>
<event>
 7    1  0.2976321E-013  0.7246156E+02  0.7816164E-02  0.1226708E+00
        -11   -1    0    0    0    0  0.00000000000E+00  0.00000000000E+00  0.45593999997E+02  0.45594000000E+02  0.51100000000E-03 0.  1.
         11   -1    0    0    0    0 -0.00000000000E+00 -0.00000000000E+00 -0.45593999997E+02  0.45594000000E+02  0.51100000000E-03 0. -1.
    9900012    2    1    2    0    0 -0.93768366936E+01  0.11668771589E+02 -0.11251418109E+02  0.72461555964E+02  0.69999981332E+02 0.  0.
         12    1    1    2    0    0  0.93768366936E+01 -0.11668771589E+02  0.11251418109E+02  0.18726444036E+02  0.00000000000E+00 0. -1.
         11    1    3    3    0    0 -0.21314075477E+02  0.12535345242E+02 -0.65907035180E+01  0.25590272896E+02  0.51100000000E-03 0. -1.
        -11    1    3    3    0    0 -0.90697836047E+01  0.15565452572E+02 -0.85111219745E+01  0.19924444432E+02  0.51100000000E-03 0.  1.
         12    1    3    3    0    0  0.21007022388E+02 -0.16432026225E+02  0.38504073832E+01  0.26946838636E+02  0.00000000000E+00 0. -1.
</event>
<event>
 7    1  0.2976321E-013  0.7246156E+02  0.7816164E-02  0.1226708E+00
        -11   -1    0    0    0    0  0.00000000000E+00  0.00000000000E+00  0.45593999997E+02  0.45594000000E+02  0.51100000000E-03 0. -1.
         11   -1    0    0    0    0 -0.00000000000E+00 -0.00000000000E+00 -0.45593999997E+02  0.45594000000E+02  0.51100000000E-03 0.  1.
    9900012    2    1    2    0    0 -0.14412567277E+02 -0.86112258094E+01 -0.82948271611E+01  0.72461562456E+02  0.69999989789E+02 0.  0.
         12    1    1    2    0    0  0.14412567277E+02  0.86112258094E+01  0.82948271611E+01  0.18726437544E+02  0.00000000000E+00 0. -1.
         11    1    3    3    0    0 -0.14148209337E+02 -0.23825809505E+02  0.33664747705E+01  0.27913691599E+02  0.51100000000E-03 0. -1.
        -11    1    3    3    0    0 -0.16962503238E+02  0.16165596913E+01 -0.15067382027E+02  0.22745676133E+02  0.51100000000E-03 0.  1.
         12    1    3    3    0    0  0.16698145298E+02  0.13598024005E+02  0.34060800953E+01  0.21802194725E+02  0.00000000000E+00 0. -1.
</event>
<event>
 7    1  0.2976321E-013  0.7246167E+02  0.7816164E-02  0.1226708E+00
        -11   -1    0    0    0    0  0.00000000000E+00  0.00000000000E+00  0.45593999997E+02  0.45594000000E+02  0.51100000000E-03 0. -1.
         11   -1    0    0    0    0 -0.00000000000E+00 -0.00000000000E+00 -0.45593999997E+02  0.45594000000E+02  0.51100000000E-03 0.  1.
    9900012    2    1    2    0    0  0.17079292061E+02 -0.12961735478E+01 -0.75692334732E+01  0.72461666175E+02  0.70000124902E+02 0.  0.
         12    1    1    2    0    0 -0.17079292061E+02  0.12961735478E+01  0.75692334732E+01  0.18726333825E+02  0.00000000000E+00 0. -1.
         11    1    3    3    0    0 -0.60122174051E+01  0.14877061168E+00  0.94368314948E+01  0.11190293997E+02  0.51100000000E-03 0. -1.
        -11    1    3    3    0    0  0.93419783471E+01  0.18899080839E+02  0.11201943015E+02  0.23873234878E+02  0.51100000000E-03 0.  1.
         12    1    3    3    0    0  0.13749531119E+02 -0.20344024998E+02 -0.28208007983E+02  0.37398137299E+02  0.00000000000E+00 0. -1.
</event>
<event>
 7    1  0.2976321E-013  0.7246158E+02  0.7816164E-02  0.1226708E+00
        -11   -1    0    0    0    0  0.00000000000E+00  0.00000000000E+00  0.45593999997E+02  0.45594000000E+02  0.51100000000E-03 0. -1.
         11   -1    0    0    0    0 -0.00000000000E+00 -0.00000000000E+00 -0.45593999997E+02  0.45594000000E+02  0.51100000000E-03 0.  1.
    9900012    2    1    2    0    0 -0.17870296215E+02  0.55861173668E+01 -0.35558849764E+00  0.72461584507E+02  0.70000018515E+02 0.  0.
         12    1    1    2    0    0  0.17870296215E+02 -0.55861173668E+01  0.35558849764E+00  0.18726415493E+02  0.00000000000E+00 0. -1.
         11    1    3    3    0    0 -0.61561916227E+01  0.68396944496E+01 -0.48645822279E+01  0.10408855651E+02  0.51100000000E-03 0. -1.
        -11    1    3    3    0    0 -0.28637562178E+02  0.19723887835E+02  0.47716075672E+01  0.35098574870E+02  0.51100000000E-03 0.  1.
         12    1    3    3    0    0  0.16923457586E+02 -0.20977464918E+02 -0.26261383695E+00  0.26954153986E+02  0.00000000000E+00 0. -1.
</event>
<event>
 7    1  0.2976321E-013  0.7246148E+02  0.7816164E-02  0.1226708E+00
        -11   -1    0    0    0    0  0.00000000000E+00  0.00000000000E+00  0.45593999997E+02  0.45594000000E+02  0.51100000000E-03 0. -1.
         11   -1    0    0    0    0 -0.00000000000E+00 -0.00000000000E+00 -0.45593999997E+02  0.45594000000E+02  0.51100000000E-03 0.  1.
    9900012    2    1    2    0    0 -0.11152283299E+01 -0.13702542405E+02 -0.12715314459E+02  0.72461478049E+02  0.69999879833E+02 0.  0.
         12    1    1    2    0    0  0.11152283299E+01  0.13702542405E+02  0.12715314459E+02  0.18726521951E+02  0.00000000000E+00 0. -1.
         11    1    3    3    0    0 -0.52864293591E+01 -0.12500995216E+01  0.21394645522E+02  0.22073512214E+02  0.51100000000E-03 0. -1.
        -11    1    3    3    0    0 -0.13002465936E+02 -0.13727714610E+02 -0.12126859460E+02  0.22462746703E+02  0.51100000000E-03 0.  1.
         12    1    3    3    0    0  0.17173666966E+02  0.12752717262E+01 -0.21983100521E+02  0.27925219132E+02  0.00000000000E+00 0. -1.
</event>
<event>
 7    1  0.2976321E-013  0.7246160E+02  0.7816164E-02  0.1226708E+00
        -11   -1    0    0    0    0  0.00000000000E+00  0.00000000000E+00  0.45593999997E+02  0.45594000000E+02  0.51100000000E-03 0.  1.
         11   -1    0    0    0    0 -0.00000000000E+00 -0.00000000000E+00 -0.45593999997E+02  0.45594000000E+02  0.51100000000E-03 0. -1.
    9900012    2    1    2    0    0  0.14802553171E+02 -0.91668619727E+01  0.68942770507E+01  0.72461601658E+02  0.70000040857E+02 0.  0.
         12    1    1    2    0    0 -0.14802553171E+02  0.91668619727E+01 -0.68942770507E+01  0.18726398342E+02  0.00000000000E+00 0. -1.
         11    1    3    3    0    0  0.28389498152E+02  0.36038245802E+01 -0.33223734571E+01  0.28809535272E+02  0.51100000000E-03 0. -1.
        -11    1    3    3    0    0  0.23765083519E+01 -0.20505826784E+02 -0.38671409746E+01  0.21002178545E+02  0.51100000000E-03 0.  1.
         12    1    3    3    0    0 -0.15963453333E+02  0.77351402311E+01  0.14083791482E+02  0.22649887841E+02  0.00000000000E+00 0. -1.
</event>
<event>
 7    1  0.2976321E-013  0.7246158E+02  0.7816164E-02  0.1226708E+00
        -11   -1    0    0    0    0  0.00000000000E+00  0.00000000000E+00  0.45593999997E+02  0.45594000000E+02  0.51100000000E-03 0.  1.
         11   -1    0    0    0    0 -0.00000000000E+00 -0.00000000000E+00 -0.45593999997E+02  0.45594000000E+02  0.51100000000E-03 0. -1.
    9900012    2    1    2    0    0  0.29978029650E+01  0.13348629179E+02  0.12786954504E+02  0.72461576715E+02  0.70000008364E+02 0.  0.
         12    1    1    2    0    0 -0.29978029650E+01 -0.13348629179E+02 -0.12786954504E+02  0.18726423285E+02  0.00000000000E+00 0. -1.
         11    1    3    3    0    0  0.20938141180E+02 -0.74918261015E+01 -0.17052625860E+02  0.28023655425E+02  0.51100000000E-03 0. -1.
        -11    1    3    3    0    0 -0.27878652736E+01 -0.26725691284E+01  0.82283413429E+01  0.90895775505E+01  0.51100000000E-03 0.  1.
        -12    1    3    3    0    0 -0.15152472941E+02  0.23513024408E+02  0.21611239022E+02  0.35348343739E+02  0.00000000000E+00 0.  1.
</event>
<event>
 7    1  0.2976321E-013  0.7246159E+02  0.7816164E-02  0.1226708E+00
        -11   -1    0    0    0    0  0.00000000000E+00  0.00000000000E+00  0.45593999997E+02  0.45594000000E+02  0.51100000000E-03 0.  1.
         11   -1    0    0    0    0 -0.00000000000E+00 -0.00000000000E+00 -0.45593999997E+02  0.45594000000E+02  0.51100000000E-03 0. -1.
    9900012    2    1    2    0    0 -0.11786510736E+02  0.19915324214E+01  0.14414933362E+02  0.72461592429E+02  0.70000028834E+02 0.  0.
         12    1    1    2    0    0  0.11786510736E+02 -0.19915324214E+01 -0.14414933362E+02  0.18726407571E+02  0.00000000000E+00 0. -1.
         11    1    3    3    0    0 -0.30326301187E+01 -0.17794983009E+02 -0.12684130908E+02  0.22062308195E+02  0.51100000000E-03 0. -1.
        -11    1    3    3    0    0  0.47770111093E+01 -0.91585761580E+01  0.88577427134E+01  0.13607312689E+02  0.51100000000E-03 0.  1.
        -12    1    3    3    0    0 -0.13530891726E+02  0.28945091589E+02  0.18241321556E+02  0.36791971544E+02  0.00000000000E+00 0.  1.
</event>
<event>
 7    1  0.2976321E-013  0.7246161E+02  0.7816164E-02  0.1226708E+00
        -11   -1    0    0    0    0  0.00000000000E+00  0.00000000000E+00  0.45593999997E+02  0.45594000000E+02  0.51100000000E-03 0.  1.
         11   -1    0    0    0    0 -0.00000000000E+00 -0.00000000000E+00 -0.45593999997E+02  0.45594000000E+02  0.51100000000E-03 0. -1.
    9900012    2    1    2    0    0  0.11368298558E+02  0.14880256561E+02 -0.13191815899E+00  0.72461610871E+02  0.70000052858E+02 0.  0.
         12    1    1    2    0    0 -0.11368298558E+02 -0.14880256561E+02  0.13191815899E+00  0.18726389129E+02  0.00000000000E+00 0. -1.
         11    1    3    3    0    0  0.20374537693E+02 -0.81122189111E+01  0.19214670040E+01  0.22014129952E+02  0.51100000000E-03 0. -1.
        -11    1    3    3    0    0  0.11834191103E+02  0.13978153459E+02  0.13648165286E+02  0.22840955959E+02  0.51100000000E-03 0.  1.
        -12    1    3    3    0    0 -0.20840430237E+02  0.90143220123E+01 -0.15701550449E+02  0.27606524959E+02  0.00000000000E+00 0.  1.
</event>
<event>
 7    1  0.2976321E-013  0.7246158E+02  0.7816164E-02  0.1226708E+00
        -11   -1    0    0    0    0  0.00000000000E+00  0.00000000000E+00  0.45593999997E+02  0.45594000000E+02  0.51100000000E-03 0. -1.
         11   -1    0    0    0    0 -0.00000000000E+00 -0.00000000000E+00 -0.45593999997E+02  0.45594000000E+02  0.51100000000E-03 0.  1.
    9900012    2    1    2    0    0 -0.68914197959E+01 -0.16589117515E+02 -0.52904112775E+01  0.72461576470E+02  0.70000008045E+02 0.  0.
         12    1    1    2    0    0  0.68914197959E+01  0.16589117515E+02  0.52904112775E+01  0.18726423530E+02  0.00000000000E+00 0. -1.
         11    1    3    3    0    0  0.17628592275E+02 -0.51839702571E+01  0.14199506599E+02  0.23222118791E+02  0.51100000000E-03 0. -1.
        -11    1    3    3    0    0 -0.62835349555E+01 -0.22784334465E+02 -0.86748682761E+01  0.25176617097E+02  0.51100000000E-03 0.  1.
        -12    1    3    3    0    0 -0.18236477115E+02  0.11379187207E+02 -0.10815049600E+02  0.24062840583E+02  0.00000000000E+00 0.  1.
</event>
<event>
 7    1  0.2976321E-013  0.7246140E+02  0.7816164E-02  0.1226708E+00
        -11   -1    0    0    0    0  0.00000000000E+00  0.00000000000E+00  0.45593999997E+02  0.45594000000E+02  0.51100000000E-03 0.  1.
         11   -1    0    0    0    0 -0.00000000000E+00 -0.00000000000E+00 -0.45593999997E+02  0.45594000000E+02  0.51100000000E-03 0. -1.
    9900012    2    1    2    0    0 -0.13220075677E+02  0.12734776429E+02  0.37068268678E+01  0.72461401349E+02  0.69999779917E+02 0.  0.
         12    1    1    2    0    0  0.13220075677E+02 -0.12734776429E+02 -0.37068268678E+01  0.18726598651E+02  0.00000000000E+00 0. -1.
         11    1    3    3    0    0  0.80996385714E+01  0.49055216497E+01  0.14471351245E+00  0.94704397947E+01  0.51100000000E-03 0. -1.
        -11    1    3    3    0    0 -0.25202995152E+02  0.12483549335E+02  0.26876106340E+02  0.38901864492E+02  0.51100000000E-03 0.  1.
         12    1    3    3    0    0  0.38832809043E+01 -0.46542945555E+01 -0.23313992985E+02  0.24089097063E+02  0.00000000000E+00 0. -1.
</event>
<event>
 7    1  0.2976321E-013  0.7246152E+02  0.7816164E-02  0.1226708E+00
        -11   -1    0    0    0    0  0.00000000000E+00  0.00000000000E+00  0.45593999997E+02  0.45594000000E+02  0.51100000000E-03 0. -1.
         11   -1    0    0    0    0 -0.00000000000E+00 -0.00000000000E+00 -0.45593999997E+02  0.45594000000E+02  0.51100000000E-03 0.  1.
    9900012    2    1    2    0    0  0.12713396326E+02 -0.18551352224E+01 -0.13623849128E+02  0.72461515069E+02  0.69999928058E+02 0.  0.
         12    1    1    2    0    0 -0.12713396326E+02  0.18551352224E+01  0.13623849128E+02  0.18726484931E+02  0.00000000000E+00 0. -1.
         11    1    3    3    0    0 -0.36880630533E+01 -0.32338760901E+01 -0.11952085039E+02  0.12919446609E+02  0.51100000000E-03 0. -1.
        -11    1    3    3    0    0  0.18248538487E+02  0.19431733718E+02 -0.20321979624E+02  0.33519908834E+02  0.51100000000E-03 0.  1.
         12    1    3    3    0    0 -0.18470791076E+01 -0.18052992850E+02  0.18650215534E+02  0.26022159625E+02  0.00000000000E+00 0. -1.
</event>
<event>
 7    1  0.2976321E-013  0.7246154E+02  0.7816164E-02  0.1226708E+00
        -11   -1    0    0    0    0  0.00000000000E+00  0.00000000000E+00  0.45593999997E+02  0.45594000000E+02  0.51100000000E-03 0.  1.
         11   -1    0    0    0    0 -0.00000000000E+00 -0.00000000000E+00 -0.45593999997E+02  0.45594000000E+02  0.51100000000E-03 0. -1.
    9900012    2    1    2    0    0  0.14291997877E+02 -0.67828298138E+01  0.10020595890E+02  0.72461539427E+02  0.69999959790E+02 0.  0.
         12    1    1    2    0    0 -0.14291997877E+02  0.67828298138E+01 -0.10020595890E+02  0.18726460573E+02  0.00000000000E+00 0. -1.
         11    1    3    3    0    0  0.26371044575E+02 -0.84518206008E+01  0.11036815734E+02  0.29810678711E+02  0.51100000000E-03 0. -1.
        -11    1    3    3    0    0  0.71864054128E+01  0.56879152556E+01  0.14796542255E+02  0.17405012659E+02  0.51100000000E-03 0.  1.
        -12    1    3    3    0    0 -0.19265452111E+02 -0.40189244686E+01 -0.15812762098E+02  0.25245848057E+02  0.00000000000E+00 0.  1.
</event>
<event>
 7    1  0.2976321E-013  0.7246158E+02  0.7816164E-02  0.1226708E+00
        -11   -1    0    0    0    0  0.00000000000E+00  0.00000000000E+00  0.45593999997E+02  0.45594000000E+02  0.51100000000E-03 0. -1.
         11   -1    0    0    0    0 -0.00000000000E+00 -0.00000000000E+00 -0.45593999997E+02  0.45594000000E+02  0.51100000000E-03 0.  1.
    9900012    2    1    2    0    0 -0.15979482088E+02  0.37852780000E+01 -0.90003625847E+01  0.72461582724E+02  0.70000016192E+02 0.  0.
         12    1    1    2    0    0  0.15979482088E+02 -0.37852780000E+01  0.90003625847E+01  0.18726417276E+02  0.00000000000E+00 0. -1.
         11    1    3    3    0    0  0.26633296200E+01  0.87587465228E+01  0.15019380455E+02  0.17589506952E+02  0.51100000000E-03 0. -1.
        -11    1    3    3    0    0  0.10875460906E+02 -0.11418469097E+02  0.77363815806E+00  0.15787830842E+02  0.51100000000E-03 0.  1.
        -12    1    3    3    0    0 -0.29518272614E+02  0.64450005738E+01 -0.24793381198E+02  0.39084244930E+02  0.00000000000E+00 0.  1.
</event>
<event>
 7    1  0.2976321E-013  0.7246167E+02  0.7816164E-02  0.1226708E+00
        -11   -1    0    0    0    0  0.00000000000E+00  0.00000000000E+00  0.45593999997E+02  0.45594000000E+02  0.51100000000E-03 0.  1.
         11   -1    0    0    0    0 -0.00000000000E+00 -0.00000000000E+00 -0.45593999997E+02  0.45594000000E+02  0.51100000000E-03 0. -1.
    9900012    2    1    2    0    0 -0.12937500726E+02 -0.10258315479E+02  0.88353590187E+01  0.72461667457E+02  0.70000126573E+02 0.  0.
         12    1    1    2    0    0  0.12937500726E+02  0.10258315479E+02 -0.88353590187E+01  0.18726332543E+02  0.00000000000E+00 0. -1.
         11    1    3    3    0    0  0.17801791635E+01  0.96236715626E+00 -0.13582790829E+02  0.13732712601E+02  0.51100000000E-03 0. -1.
        -11    1    3    3    0    0  0.74454638522E+01 -0.25000796985E+02  0.19291791386E+02  0.32444537244E+02  0.51100000000E-03 0.  1.
         12    1    3    3    0    0 -0.22163143742E+02  0.13780114349E+02  0.31263584616E+01  0.26284417613E+02  0.00000000000E+00 0. -1.
</event>
<event>
 7    1  0.4351646E-013  0.7246152E+02  0.7816164E-02  0.1226708E+00
        -11   -1    0    0    0    0  0.00000000000E+00  0.00000000000E+00  0.45593999997E+02  0.45594000000E+02  0.51100000000E-03 0. -1.
         11   -1    0    0    0    0 -0.00000000000E+00 -0.00000000000E+00 -0.45593999997E+02  0.45594000000E+02  0.51100000000E-03 0.  1.
    9900012    2    1    2    0    0  0.51757723443E+01  0.73043250520E+01 -0.16448076689E+02  0.72461521138E+02  0.69999935964E+02 0.  0.
         12    1    1    2    0    0 -0.51757723443E+01 -0.73043250520E+01  0.16448076689E+02  0.18726478862E+02  0.00000000000E+00 0. -1.
         11    1    3    3    0    0 -0.14362888478E+02 -0.11710436614E+02  0.67933854166E+01  0.19737704446E+02  0.51100000000E-03 0. -1.
        -11    1    3    3    0    0 -0.67024559339E+01 -0.35744640320E+01 -0.15475020443E+02  0.17238792494E+02  0.51100000000E-03 0.  1.
        -12    1    3    3    0    0  0.26241116756E+02  0.22589225698E+02 -0.77664416621E+01  0.35485024198E+02  0.00000000000E+00 0.  1.
</event>
<event>
 7    1  0.2976321E-013  0.7246159E+02  0.7816164E-02  0.1226708E+00
        -11   -1    0    0    0    0  0.00000000000E+00  0.00000000000E+00  0.45593999997E+02  0.45594000000E+02  0.51100000000E-03 0.  1.
         11   -1    0    0    0    0 -0.00000000000E+00 -0.00000000000E+00 -0.45593999997E+02  0.45594000000E+02  0.51100000000E-03 0. -1.
    9900012    2    1    2    0    0  0.91525101599E+01  0.15787806729E+02  0.42017891570E+01  0.72461593092E+02  0.70000029699E+02 0.  0.
         12    1    1    2    0    0 -0.91525101599E+01 -0.15787806729E+02 -0.42017891570E+01  0.18726406908E+02  0.00000000000E+00 0. -1.
         11    1    3    3    0    0  0.11099635578E+01 -0.10632815004E+01  0.15039894602E+02  0.15118234571E+02  0.51100000000E-03 0. -1.
        -11    1    3    3    0    0 -0.96760239182E+01  0.48091175396E+01  0.18255214341E+02  0.21213342529E+02  0.51100000000E-03 0.  1.
         12    1    3    3    0    0  0.17718570520E+02  0.12041970690E+02 -0.29093319786E+02  0.36130015992E+02  0.00000000000E+00 0. -1.
</event>
<event>
 7    1  0.2976321E-013  0.7246155E+02  0.7816164E-02  0.1226708E+00
        -11   -1    0    0    0    0  0.00000000000E+00  0.00000000000E+00  0.45593999997E+02  0.45594000000E+02  0.51100000000E-03 0. -1.
         11   -1    0    0    0    0 -0.00000000000E+00 -0.00000000000E+00 -0.45593999997E+02  0.45594000000E+02  0.51100000000E-03 0.  1.
    9900012    2    1    2    0    0  0.53303142902E+01  0.70912876115E+01 -0.16491854386E+02  0.72461551551E+02  0.69999975583E+02 0.  0.
         12    1    1    2    0    0 -0.53303142902E+01 -0.70912876115E+01  0.16491854386E+02  0.18726448449E+02  0.00000000000E+00 0. -1.
         11    1    3    3    0    0  0.18601495050E+02  0.11698957371E+02 -0.18321469666E+01  0.22050804621E+02  0.51100000000E-03 0. -1.
        -11    1    3    3    0    0  0.52026374839E+01 -0.20928031186E+02  0.31712505805E+00  0.21567347882E+02  0.51100000000E-03 0.  1.
         12    1    3    3    0    0 -0.18473818243E+02  0.16320361427E+02 -0.14976832477E+02  0.28843399048E+02  0.00000000000E+00 0. -1.
</event>
<event>
 7    1  0.2976321E-013  0.7246156E+02  0.7816164E-02  0.1226708E+00
        -11   -1    0    0    0    0  0.00000000000E+00  0.00000000000E+00  0.45593999997E+02  0.45594000000E+02  0.51100000000E-03 0.  1.
         11   -1    0    0    0    0 -0.00000000000E+00 -0.00000000000E+00 -0.45593999997E+02  0.45594000000E+02  0.51100000000E-03 0. -1.
    9900012    2    1    2    0    0  0.12480353770E+02 -0.91416252936E+01  0.10552307745E+02  0.72461555009E+02  0.69999980089E+02 0.  0.
         12    1    1    2    0    0 -0.12480353770E+02  0.91416252936E+01 -0.10552307745E+02  0.18726444991E+02  0.00000000000E+00 0. -1.
         11    1    3    3    0    0  0.14778339985E+01 -0.82321810664E+01 -0.11249911947E+02  0.14018320781E+02  0.51100000000E-03 0. -1.
        -11    1    3    3    0    0  0.46530535456E+01  0.92381717994E+00 -0.17734472930E+02  0.18357992152E+02  0.51100000000E-03 0.  1.
        -12    1    3    3    0    0  0.63494662258E+01 -0.18332614071E+01  0.39536692623E+02  0.40085242076E+02  0.00000000000E+00 0.  1.
</event>
<event>
 7    1  0.2976321E-013  0.7246152E+02  0.7816164E-02  0.1226708E+00
        -11   -1    0    0    0    0  0.00000000000E+00  0.00000000000E+00  0.45593999997E+02  0.45594000000E+02  0.51100000000E-03 0. -1.
         11   -1    0    0    0    0 -0.00000000000E+00 -0.00000000000E+00 -0.45593999997E+02  0.45594000000E+02  0.51100000000E-03 0.  1.
    9900012    2    1    2    0    0  0.10843741515E+02 -0.62954704832E+01 -0.13909038713E+02  0.72461520444E+02  0.69999935060E+02 0.  0.
         12    1    1    2    0    0 -0.10843741515E+02  0.62954704832E+01  0.13909038713E+02  0.18726479556E+02  0.00000000000E+00 0. -1.
         11    1    3    3    0    0  0.85301865248E+01 -0.29462328372E+02 -0.44981569174E+01  0.31000424048E+02  0.51100000000E-03 0. -1.
        -11    1    3    3    0    0  0.13146159135E+02 -0.13478843359E+01 -0.52680578485E+00  0.13225574346E+02  0.51100000000E-03 0.  1.
        -12    1    3    3    0    0 -0.10832604144E+02  0.24514742224E+02 -0.88840760112E+01  0.28235522050E+02  0.00000000000E+00 0.  1.
</event>
<event>
 7    1  0.2976321E-013  0.7246174E+02  0.7816164E-02  0.1226708E+00
        -11   -1    0    0    0    0  0.00000000000E+00  0.00000000000E+00  0.45593999997E+02  0.45594000000E+02  0.51100000000E-03 0. -1.
         11   -1    0    0    0    0 -0.00000000000E+00 -0.00000000000E+00 -0.45593999997E+02  0.45594000000E+02  0.51100000000E-03 0.  1.
    9900012    2    1    2    0    0 -0.22926665356E+01 -0.13937826113E+02 -0.12294453050E+02  0.72461737896E+02  0.70000218332E+02 0.  0.
         12    1    1    2    0    0  0.22926665356E+01  0.13937826113E+02  0.12294453050E+02  0.18726262104E+02  0.00000000000E+00 0. -1.
         11    1    3    3    0    0  0.22606375360E+01  0.79551819462E+01  0.68251865373E+01  0.10722806228E+02  0.51100000000E-03 0. -1.
        -11    1    3    3    0    0 -0.11964363329E+02  0.90024685778E+01  0.10511278060E+02  0.18294190254E+02  0.51100000000E-03 0.  1.
        -12    1    3    3    0    0  0.74110592571E+01 -0.30895476637E+02 -0.29630917647E+02  0.43444741414E+02  0.00000000000E+00 0.  1.
</event>
<event>
 7    1  0.2976321E-013  0.7246165E+02  0.7816164E-02  0.1226708E+00
        -11   -1    0    0    0    0  0.00000000000E+00  0.00000000000E+00  0.45593999997E+02  0.45594000000E+02  0.51100000000E-03 0. -1.
         11   -1    0    0    0    0 -0.00000000000E+00 -0.00000000000E+00 -0.45593999997E+02  0.45594000000E+02  0.51100000000E-03 0.  1.
    9900012    2    1    2    0    0  0.64579725643E+00  0.10922936913E+02 -0.15196986669E+02  0.72461654689E+02  0.70000109939E+02 0.  0.
         12    1    1    2    0    0 -0.64579725643E+00 -0.10922936913E+02  0.15196986669E+02  0.18726345311E+02  0.00000000000E+00 0. -1.
         11    1    3    3    0    0 -0.21067672518E+02  0.77450067683E+01 -0.14453002586E+02  0.26696839498E+02  0.51100000000E-03 0. -1.
        -11    1    3    3    0    0  0.50479542383E-01 -0.13986587235E+02  0.87997674028E+01  0.16524620337E+02  0.51100000000E-03 0.  1.
        -12    1    3    3    0    0  0.21662990232E+02  0.17164517380E+02 -0.95437514856E+01  0.29240194854E+02  0.00000000000E+00 0.  1.
</event>
<event>
 7    1  0.2976321E-013  0.7246157E+02  0.7816164E-02  0.1226708E+00
        -11   -1    0    0    0    0  0.00000000000E+00  0.00000000000E+00  0.45593999997E+02  0.45594000000E+02  0.51100000000E-03 0.  1.
         11   -1    0    0    0    0 -0.00000000000E+00 -0.00000000000E+00 -0.45593999997E+02  0.45594000000E+02  0.51100000000E-03 0. -1.
    9900012    2    1    2    0    0 -0.17197759547E+02  0.44376595347E+01  0.59349258798E+01  0.72461572130E+02  0.70000002391E+02 0.  0.
         12    1    1    2    0    0  0.17197759547E+02 -0.44376595347E+01 -0.59349258798E+01  0.18726427870E+02  0.00000000000E+00 0. -1.
         11    1    3    3    0    0 -0.29463506241E+01 -0.69908571930E+01  0.18479424022E+01  0.78081981068E+01  0.51100000000E-03 0. -1.
        -11    1    3    3    0    0 -0.20922841740E+02 -0.13523063060E+02  0.21988106853E+02  0.33228231735E+02  0.51100000000E-03 0.  1.
         12    1    3    3    0    0  0.66714328169E+01  0.24951579788E+02 -0.17901123375E+02  0.31425142288E+02  0.00000000000E+00 0. -1.
</event>
<event>
 7    1  0.2976321E-013  0.7246157E+02  0.7816164E-02  0.1226708E+00
        -11   -1    0    0    0    0  0.00000000000E+00  0.00000000000E+00  0.45593999997E+02  0.45594000000E+02  0.51100000000E-03 0. -1.
         11   -1    0    0    0    0 -0.00000000000E+00 -0.00000000000E+00 -0.45593999997E+02  0.45594000000E+02  0.51100000000E-03 0.  1.
    9900012    2    1    2    0    0  0.26821626908E+01  0.14071559063E+02 -0.12061359152E+02  0.72461570662E+02  0.70000000478E+02 0.  0.
         12    1    1    2    0    0 -0.26821626908E+01 -0.14071559063E+02  0.12061359152E+02  0.18726429338E+02  0.00000000000E+00 0. -1.
         11    1    3    3    0    0 -0.41305186134E+01  0.36953481941E+01 -0.18036825856E+02  0.18869124768E+02  0.51100000000E-03 0. -1.
        -11    1    3    3    0    0 -0.12168800289E+02  0.18250407430E+02 -0.13103655618E+02  0.25551181238E+02  0.51100000000E-03 0.  1.
         12    1    3    3    0    0  0.18981481593E+02 -0.78741965611E+01  0.19079122321E+02  0.28041264656E+02  0.00000000000E+00 0. -1.
</event>
<event>
 7    1  0.2976321E-013  0.7246155E+02  0.7816164E-02  0.1226708E+00
        -11   -1    0    0    0    0  0.00000000000E+00  0.00000000000E+00  0.45593999997E+02  0.45594000000E+02  0.51100000000E-03 0. -1.
         11   -1    0    0    0    0 -0.00000000000E+00 -0.00000000000E+00 -0.45593999997E+02  0.45594000000E+02  0.51100000000E-03 0.  1.
    9900012    2    1    2    0    0 -0.17586277487E+02  0.64143445625E+01 -0.50902841830E+00  0.72461545932E+02  0.69999968264E+02 0.  0.
         12    1    1    2    0    0  0.17586277487E+02 -0.64143445625E+01  0.50902841830E+00  0.18726454068E+02  0.00000000000E+00 0. -1.
         11    1    3    3    0    0 -0.30806515580E+02  0.14395343669E+02  0.21279127172E+02  0.40113197018E+02  0.51100000000E-03 0. -1.
        -11    1    3    3    0    0 -0.29715169468E+01 -0.17168118948E+01  0.11152660075E+01  0.36084864661E+01  0.51100000000E-03 0.  1.
        -12    1    3    3    0    0  0.16191755040E+02 -0.62641872120E+01 -0.22903421597E+02  0.28739862449E+02  0.00000000000E+00 0.  1.
</event>
<event>
 7    1  0.2976321E-013  0.7246194E+02  0.7816164E-02  0.1226707E+00
        -11   -1    0    0    0    0  0.00000000000E+00  0.00000000000E+00  0.45593999997E+02  0.45594000000E+02  0.51100000000E-03 0.  1.
         11   -1    0    0    0    0 -0.00000000000E+00 -0.00000000000E+00 -0.45593999997E+02  0.45594000000E+02  0.51100000000E-03 0. -1.
    9900012    2    1    2    0    0  0.15725698655E+02  0.78198805289E+01  0.64974755057E+01  0.72461940147E+02  0.70000481800E+02 0.  0.
         12    1    1    2    0    0 -0.15725698655E+02 -0.78198805289E+01 -0.64974755057E+01  0.18726059853E+02  0.00000000000E+00 0. -1.
         11    1    3    3    0    0  0.22208060604E+01 -0.11276636425E+00  0.71884356942E+01  0.75245135259E+01  0.51100000000E-03 0. -1.
        -11    1    3    3    0    0 -0.26045790359E+01 -0.17623021742E+02  0.21155050878E+02  0.27656661136E+02  0.51100000000E-03 0.  1.
         12    1    3    3    0    0  0.16109471631E+02  0.25555668635E+02 -0.21846011067E+02  0.37280765485E+02  0.00000000000E+00 0. -1.
</event>
<event>
 7    1  0.2976321E-013  0.7246159E+02  0.7816164E-02  0.1226708E+00
        -11   -1    0    0    0    0  0.00000000000E+00  0.00000000000E+00  0.45593999997E+02  0.45594000000E+02  0.51100000000E-03 0. -1.
         11   -1    0    0    0    0 -0.00000000000E+00 -0.00000000000E+00 -0.45593999997E+02  0.45594000000E+02  0.51100000000E-03 0.  1.
    9900012    2    1    2    0    0 -0.30401301451E+01  0.17787682262E+01 -0.18392171725E+02  0.72461591148E+02  0.70000027166E+02 0.  0.
         12    1    1    2    0    0  0.30401301451E+01 -0.17787682262E+01  0.18392171725E+02  0.18726408852E+02  0.00000000000E+00 0. -1.
         11    1    3    3    0    0 -0.51367157969E+01 -0.24813711345E+02  0.39404183309E+01  0.25644356431E+02  0.51100000000E-03 0. -1.
        -11    1    3    3    0    0  0.24515220571E+01 -0.37830782091E+01 -0.14867362576E+02  0.15535768773E+02  0.51100000000E-03 0.  1.
        -12    1    3    3    0    0 -0.35493640529E+00  0.30375557780E+02 -0.74652274800E+01  0.31281465944E+02  0.00000000000E+00 0.  1.
</event>
<event>
 7    1  0.2976321E-013  0.7246182E+02  0.7816164E-02  0.1226707E+00
        -11   -1    0    0    0    0  0.00000000000E+00  0.00000000000E+00  0.45593999997E+02  0.45594000000E+02  0.51100000000E-03 0.  1.
         11   -1    0    0    0    0 -0.00000000000E+00 -0.00000000000E+00 -0.45593999997E+02  0.45594000000E+02  0.51100000000E-03 0. -1.
    9900012    2    1    2    0    0  0.95699537322E+01 -0.11642322885E+02  0.11114949003E+02  0.72461820786E+02  0.70000326311E+02 0.  0.
         12    1    1    2    0    0 -0.95699537322E+01  0.11642322885E+02 -0.11114949003E+02  0.18726179214E+02  0.00000000000E+00 0. -1.
         11    1    3    3    0    0  0.10592534318E+02  0.27078905778E+01 -0.64068474412E+01  0.12672101209E+02  0.51100000000E-03 0. -1.
        -11    1    3    3    0    0  0.15648639250E+01  0.15254730330E+02 -0.10785335008E+02  0.18747774482E+02  0.51100000000E-03 0.  1.
         12    1    3    3    0    0 -0.25874445111E+01 -0.29604943793E+02  0.28307131453E+02  0.41041945095E+02  0.00000000000E+00 0. -1.
</event>
<event>
 7    1  0.2976321E-013  0.7246158E+02  0.7816164E-02  0.1226708E+00
        -11   -1    0    0    0    0  0.00000000000E+00  0.00000000000E+00  0.45593999997E+02  0.45594000000E+02  0.51100000000E-03 0.  1.
         11   -1    0    0    0    0 -0.00000000000E+00 -0.00000000000E+00 -0.45593999997E+02  0.45594000000E+02  0.51100000000E-03 0. -1.
    9900012    2    1    2    0    0 -0.46852848448E+01  0.14061200723E+01  0.18076221207E+02  0.72461579070E+02  0.70000011432E+02 0.  0.
         12    1    1    2    0    0  0.46852848448E+01 -0.14061200723E+01 -0.18076221207E+02  0.18726420930E+02  0.00000000000E+00 0. -1.
         11    1    3    3    0    0  0.11442285644E+02  0.62778431826E+01 -0.23062083555E+01  0.13253520778E+02  0.51100000000E-03 0. -1.
        -11    1    3    3    0    0 -0.19487802917E+02  0.21408127133E+02  0.85006180916E+01  0.30171888872E+02  0.51100000000E-03 0.  1.
        -12    1    3    3    0    0  0.33602324290E+01 -0.26279850243E+02  0.11881811470E+02  0.29036169420E+02  0.00000000000E+00 0.  1.
</event>
<event>
 7    1  0.2976321E-013  0.7246172E+02  0.7816164E-02  0.1226708E+00
        -11   -1    0    0    0    0  0.00000000000E+00  0.00000000000E+00  0.45593999997E+02  0.45594000000E+02  0.51100000000E-03 0. -1.
         11   -1    0    0    0    0 -0.00000000000E+00 -0.00000000000E+00 -0.45593999997E+02  0.45594000000E+02  0.51100000000E-03 0.  1.
    9900012    2    1    2    0    0 -0.87345396222E+01 -0.58212399114E+01 -0.15507885941E+02  0.72461720528E+02  0.70000195706E+02 0.  0.
         12    1    1    2    0    0  0.87345396222E+01  0.58212399114E+01  0.15507885941E+02  0.18726279472E+02  0.00000000000E+00 0. -1.
         11    1    3    3    0    0  0.18801266052E+01  0.58359433126E+01  0.76201072169E+01  0.97805493025E+01  0.51100000000E-03 0. -1.
        -11    1    3    3    0    0 -0.22458384564E+02 -0.34470151059E+01 -0.36517968392E+02  0.43009568308E+02  0.51100000000E-03 0.  1.
         12    1    3    3    0    0  0.11843718336E+02 -0.82101681180E+01  0.13389975234E+02  0.19671602917E+02  0.00000000000E+00 0. -1.
</event>
<event>
 7    1  0.2976321E-013  0.7246162E+02  0.7816164E-02  0.1226708E+00
        -11   -1    0    0    0    0  0.00000000000E+00  0.00000000000E+00  0.45593999997E+02  0.45594000000E+02  0.51100000000E-03 0.  1.
         11   -1    0    0    0    0 -0.00000000000E+00 -0.00000000000E+00 -0.45593999997E+02  0.45594000000E+02  0.51100000000E-03 0. -1.
    9900012    2    1    2    0    0 -0.55922744008E+00 -0.79635845590E+01  0.16939473263E+02  0.72461623714E+02  0.70000069589E+02 0.  0.
         12    1    1    2    0    0  0.55922744008E+00  0.79635845590E+01 -0.16939473263E+02  0.18726376286E+02  0.00000000000E+00 0. -1.
         11    1    3    3    0    0  0.19796192831E+02  0.91513811324E+01 -0.11912686537E+02  0.24850535769E+02  0.51100000000E-03 0. -1.
        -11    1    3    3    0    0 -0.34735852533E+00 -0.44854568944E+01 -0.47319225547E+01  0.65292474927E+01  0.51100000000E-03 0.  1.
        -12    1    3    3    0    0 -0.20008061746E+02 -0.12629508797E+02  0.33584082355E+02  0.41081840452E+02  0.00000000000E+00 0.  1.
</event>
<event>
 7    1  0.2976321E-013  0.7246163E+02  0.7816164E-02  0.1226708E+00
        -11   -1    0    0    0    0  0.00000000000E+00  0.00000000000E+00  0.45593999997E+02  0.45594000000E+02  0.51100000000E-03 0. -1.
         11   -1    0    0    0    0 -0.00000000000E+00 -0.00000000000E+00 -0.45593999997E+02  0.45594000000E+02  0.51100000000E-03 0.  1.
    9900012    2    1    2    0    0  0.15130317678E+02 -0.10268234195E+02 -0.40390197149E+01  0.72461632846E+02  0.70000081486E+02 0.  0.
         12    1    1    2    0    0 -0.15130317678E+02  0.10268234195E+02  0.40390197149E+01  0.18726367154E+02  0.00000000000E+00 0. -1.
         11    1    3    3    0    0 -0.14939553328E+02 -0.92856508610E+01 -0.77794048946E+01  0.19233634766E+02  0.51100000000E-03 0. -1.
        -11    1    3    3    0    0 -0.11111181450E+02  0.30416255280E+01 -0.10822106426E+01  0.11570696574E+02  0.51100000000E-03 0.  1.
        -12    1    3    3    0    0  0.41181052456E+02 -0.40242088622E+01  0.48225958223E+01  0.41657301506E+02  0.00000000000E+00 0.  1.
</event>
<event>
 7    1  0.2976321E-013  0.7246159E+02  0.7816164E-02  0.1226708E+00
        -11   -1    0    0    0    0  0.00000000000E+00  0.00000000000E+00  0.45593999997E+02  0.45594000000E+02  0.51100000000E-03 0.  1.
         11   -1    0    0    0    0 -0.00000000000E+00 -0.00000000000E+00 -0.45593999997E+02  0.45594000000E+02  0.51100000000E-03 0. -1.
    9900012    2    1    2    0    0  0.90138275156E+01  0.44156606588E+00  0.16408362719E+02  0.72461589927E+02  0.70000025576E+02 0.  0.
         12    1    1    2    0    0 -0.90138275156E+01 -0.44156606588E+00 -0.16408362719E+02  0.18726410073E+02  0.00000000000E+00 0. -1.
         11    1    3    3    0    0  0.17124728406E+02  0.10768848417E+02 -0.83531829674E+00  0.20246534917E+02  0.51100000000E-03 0. -1.
        -11    1    3    3    0    0  0.34118829338E+01 -0.41275907795E+01  0.32027666062E+02  0.32472285790E+02  0.51100000000E-03 0.  1.
         12    1    3    3    0    0 -0.11522783825E+02 -0.61996915718E+01 -0.14783985046E+02  0.19742769220E+02  0.00000000000E+00 0. -1.
</event>
<event>
 7    1  0.2976321E-013  0.7246155E+02  0.7816164E-02  0.1226708E+00
        -11   -1    0    0    0    0  0.00000000000E+00  0.00000000000E+00  0.45593999997E+02  0.45594000000E+02  0.51100000000E-03 0.  1.
         11   -1    0    0    0    0 -0.00000000000E+00 -0.00000000000E+00 -0.45593999997E+02  0.45594000000E+02  0.51100000000E-03 0. -1.
    9900012    2    1    2    0    0 -0.59254410931E+01 -0.20441196425E+00  0.17763086779E+02  0.72461551102E+02  0.69999974999E+02 0.  0.
         12    1    1    2    0    0  0.59254410931E+01  0.20441196425E+00 -0.17763086779E+02  0.18726448898E+02  0.00000000000E+00 0. -1.
         11    1    3    3    0    0  0.34365494767E+01 -0.37646443266E+01  0.29238783384E+02  0.29679772123E+02  0.51100000000E-03 0. -1.
        -11    1    3    3    0    0  0.69878377367E+01 -0.10657154154E+02  0.67928326464E+01  0.14441169846E+02  0.51100000000E-03 0.  1.
         12    1    3    3    0    0 -0.16349828307E+02  0.14217386517E+02 -0.18268529252E+02  0.28340609133E+02  0.00000000000E+00 0. -1.
</event>
<event>
 7    1  0.2976321E-013  0.7246155E+02  0.7816164E-02  0.1226708E+00
        -11   -1    0    0    0    0  0.00000000000E+00  0.00000000000E+00  0.45593999997E+02  0.45594000000E+02  0.51100000000E-03 0.  1.
         11   -1    0    0    0    0 -0.00000000000E+00 -0.00000000000E+00 -0.45593999997E+02  0.45594000000E+02  0.51100000000E-03 0. -1.
    9900012    2    1    2    0    0 -0.80580946822E+01  0.16739472383E+02 -0.23530753316E+01  0.72461553752E+02  0.69999978450E+02 0.  0.
         12    1    1    2    0    0  0.80580946822E+01 -0.16739472383E+02  0.23530753316E+01  0.18726446248E+02  0.00000000000E+00 0. -1.
         11    1    3    3    0    0  0.30086147292E+01  0.48413282829E+01 -0.94095220121E+01  0.11001332960E+02  0.51100000000E-03 0. -1.
        -11    1    3    3    0    0 -0.15388923864E+02  0.96815656458E+01 -0.23953610064E+02  0.30072032296E+02  0.51100000000E-03 0.  1.
        -12    1    3    3    0    0  0.43222144529E+01  0.22165784544E+01  0.31010056744E+02  0.31388188496E+02  0.00000000000E+00 0.  1.
</event>
<event>
 7    1  0.2976321E-013  0.7246158E+02  0.7816164E-02  0.1226708E+00
        -11   -1    0    0    0    0  0.00000000000E+00  0.00000000000E+00  0.45593999997E+02  0.45594000000E+02  0.51100000000E-03 0. -1.
         11   -1    0    0    0    0 -0.00000000000E+00 -0.00000000000E+00 -0.45593999997E+02  0.45594000000E+02  0.51100000000E-03 0.  1.
    9900012    2    1    2    0    0 -0.14547827461E+02  0.10378140083E+02 -0.55976502740E+01  0.72461581122E+02  0.70000014105E+02 0.  0.
         12    1    1    2    0    0  0.14547827461E+02 -0.10378140083E+02  0.55976502740E+01  0.18726418878E+02  0.00000000000E+00 0. -1.
         11    1    3    3    0    0 -0.14779640785E+02  0.39868512985E+01  0.24402152960E+02  0.28806211732E+02  0.51100000000E-03 0. -1.
        -11    1    3    3    0    0 -0.44968505784E+01  0.36795747267E+01  0.53436572446E+01  0.78940235814E+01  0.51100000000E-03 0.  1.
        -12    1    3    3    0    0  0.47286639022E+01  0.27117140574E+01 -0.35343460479E+02  0.35761345809E+02  0.00000000000E+00 0.  1.
</event>
<event>
 7    1  0.2976321E-013  0.7246159E+02  0.7816164E-02  0.1226708E+00
        -11   -1    0    0    0    0  0.00000000000E+00  0.00000000000E+00  0.45593999997E+02  0.45594000000E+02  0.51100000000E-03 0.  1.
         11   -1    0    0    0    0 -0.00000000000E+00 -0.00000000000E+00 -0.45593999997E+02  0.45594000000E+02  0.51100000000E-03 0. -1.
    9900012    2    1    2    0    0  0.15303156467E+01  0.15435914836E+02  0.10491374193E+02  0.72461594438E+02  0.70000031452E+02 0.  0.
         12    1    1    2    0    0 -0.15303156467E+01 -0.15435914836E+02 -0.10491374193E+02  0.18726405562E+02  0.00000000000E+00 0. -1.
         11    1    3    3    0    0  0.15641683149E+02 -0.19602269434E+02 -0.65404144983E+00  0.25086629689E+02  0.51100000000E-03 0. -1.
        -11    1    3    3    0    0  0.42975367631E+01 -0.18897069564E+01  0.26321124695E+00  0.47020309477E+01  0.51100000000E-03 0.  1.
        -12    1    3    3    0    0 -0.18408904266E+02  0.36927891226E+02  0.10882204396E+02  0.42672933801E+02  0.00000000000E+00 0.  1.
</event>
<event>
 7    1  0.2976321E-013  0.7246178E+02  0.7816164E-02  0.1226707E+00
        -11   -1    0    0    0    0  0.00000000000E+00  0.00000000000E+00  0.45593999997E+02  0.45594000000E+02  0.51100000000E-03 0.  1.
         11   -1    0    0    0    0 -0.00000000000E+00 -0.00000000000E+00 -0.45593999997E+02  0.45594000000E+02  0.51100000000E-03 0. -1.
    9900012    2    1    2    0    0 -0.22786300045E+00 -0.17392753451E+02  0.69362369142E+01  0.72461783706E+02  0.70000278008E+02 0.  0.
         12    1    1    2    0    0  0.22786300045E+00  0.17392753451E+02 -0.69362369142E+01  0.18726216294E+02  0.00000000000E+00 0. -1.
         11    1    3    3    0    0 -0.78197808164E+01  0.43869135535E+01  0.14126885379E+02  0.16732091122E+02  0.51100000000E-03 0. -1.
        -11    1    3    3    0    0 -0.20266413308E+02 -0.78086420991E+00 -0.42330912313E+01  0.20718501850E+02  0.51100000000E-03 0.  1.
         12    1    3    3    0    0  0.27858331124E+02 -0.20998802795E+02 -0.29575572333E+01  0.35011190734E+02  0.00000000000E+00 0. -1.
</event>
<event>
 7    1  0.2976321E-013  0.7246159E+02  0.7816164E-02  0.1226708E+00
        -11   -1    0    0    0    0  0.00000000000E+00  0.00000000000E+00  0.45593999997E+02  0.45594000000E+02  0.51100000000E-03 0. -1.
         11   -1    0    0    0    0 -0.00000000000E+00 -0.00000000000E+00 -0.45593999997E+02  0.45594000000E+02  0.51100000000E-03 0.  1.
    9900012    2    1    2    0    0 -0.17007120297E+02  0.50252878226E+01  0.60152058458E+01  0.72461591912E+02  0.70000028161E+02 0.  0.
         12    1    1    2    0    0  0.17007120297E+02 -0.50252878226E+01 -0.60152058458E+01  0.18726408088E+02  0.00000000000E+00 0. -1.
         11    1    3    3    0    0  0.11305001864E+02 -0.10603682958E+02 -0.20552517004E+02  0.25741933006E+02  0.51100000000E-03 0. -1.
        -11    1    3    3    0    0  0.20949604942E+00 -0.67044963147E-01  0.10343047740E+02  0.10345386432E+02  0.51100000000E-03 0.  1.
        -12    1    3    3    0    0 -0.28521618211E+02  0.15696015744E+02  0.16224675110E+02  0.36374272474E+02  0.00000000000E+00 0.  1.
</event>
<event>
 7    1  0.2976321E-013  0.7246154E+02  0.7816164E-02  0.1226708E+00
        -11   -1    0    0    0    0  0.00000000000E+00  0.00000000000E+00  0.45593999997E+02  0.45594000000E+02  0.51100000000E-03 0. -1.
         11   -1    0    0    0    0 -0.00000000000E+00 -0.00000000000E+00 -0.45593999997E+02  0.45594000000E+02  0.51100000000E-03 0.  1.
    9900012    2    1    2    0    0 -0.11438772957E+02 -0.14461889685E+02  0.32693180619E+01  0.72461542230E+02  0.69999963441E+02 0.  0.
         12    1    1    2    0    0  0.11438772957E+02  0.14461889685E+02 -0.32693180619E+01  0.18726457770E+02  0.00000000000E+00 0. -1.
         11    1    3    3    0    0  0.21834964888E+01 -0.10551106927E+01 -0.19328438931E+01  0.31010967845E+01  0.51100000000E-03 0. -1.
        -11    1    3    3    0    0 -0.99571807605E+01 -0.62985785200E+01 -0.30540295072E+02  0.32734189518E+02  0.51100000000E-03 0.  1.
         12    1    3    3    0    0 -0.36650886853E+01 -0.71082004718E+01  0.35742457026E+02  0.36626255928E+02  0.00000000000E+00 0. -1.
</event>
<event>
 7    1  0.2976321E-013  0.7246157E+02  0.7816164E-02  0.1226708E+00
        -11   -1    0    0    0    0  0.00000000000E+00  0.00000000000E+00  0.45593999997E+02  0.45594000000E+02  0.51100000000E-03 0. -1.
         11   -1    0    0    0    0 -0.00000000000E+00 -0.00000000000E+00 -0.45593999997E+02  0.45594000000E+02  0.51100000000E-03 0.  1.
    9900012    2    1    2    0    0  0.11953228959E+02 -0.14240349041E+02 -0.22387258460E+01  0.72461571703E+02  0.70000001835E+02 0.  0.
         12    1    1    2    0    0 -0.11953228959E+02  0.14240349041E+02  0.22387258460E+01  0.18726428297E+02  0.00000000000E+00 0. -1.
         11    1    3    3    0    0  0.19637740593E+02 -0.19406287852E+01 -0.17343635534E+02  0.26271821206E+02  0.51100000000E-03 0. -1.
        -11    1    3    3    0    0 -0.21287478853E+01  0.44487367191E+01 -0.12493851415E+02  0.13432019558E+02  0.51100000000E-03 0.  1.
         12    1    3    3    0    0 -0.55557637484E+01 -0.16748456975E+02  0.27598761103E+02  0.32757730939E+02  0.00000000000E+00 0. -1.
</event>
<event>
 7    1  0.2976321E-013  0.7246155E+02  0.7816164E-02  0.1226708E+00
        -11   -1    0    0    0    0  0.00000000000E+00  0.00000000000E+00  0.45593999997E+02  0.45594000000E+02  0.51100000000E-03 0. -1.
         11   -1    0    0    0    0 -0.00000000000E+00 -0.00000000000E+00 -0.45593999997E+02  0.45594000000E+02  0.51100000000E-03 0.  1.
    9900012    2    1    2    0    0 -0.12256867410E+02 -0.18680210008E+01  0.14034236077E+02  0.72461545893E+02  0.69999968212E+02 0.  0.
         12    1    1    2    0    0  0.12256867410E+02  0.18680210008E+01 -0.14034236077E+02  0.18726454107E+02  0.00000000000E+00 0. -1.
         11    1    3    3    0    0  0.68632094508E+01 -0.39309835679E+01  0.13458524327E+02  0.15610514184E+02  0.51100000000E-03 0.  1.
        -11    1    3    3    0    0 -0.87279425042E+01 -0.56013725530E+01  0.26188596420E+02  0.28167267129E+02  0.51100000000E-03 0. -1.
        -12    1    3    3    0    0 -0.10392134357E+02  0.76643351202E+01 -0.25612884670E+02  0.28683764579E+02  0.00000000000E+00 0.  1.
</event>
<event>
 7    1  0.2976321E-013  0.7246152E+02  0.7816164E-02  0.1226708E+00
        -11   -1    0    0    0    0  0.00000000000E+00  0.00000000000E+00  0.45593999997E+02  0.45594000000E+02  0.51100000000E-03 0.  1.
         11   -1    0    0    0    0 -0.00000000000E+00 -0.00000000000E+00 -0.45593999997E+02  0.45594000000E+02  0.51100000000E-03 0. -1.
    9900012    2    1    2    0    0  0.15373960155E+01  0.23563925730E+01  0.18513913903E+02  0.72461516601E+02  0.69999930055E+02 0.  0.
         12    1    1    2    0    0 -0.15373960155E+01 -0.23563925730E+01 -0.18513913903E+02  0.18726483399E+02  0.00000000000E+00 0. -1.
         11    1    3    3    0    0 -0.23150154980E+01 -0.17753682066E+02  0.19276382808E+01  0.18007451604E+02  0.51100000000E-03 0.  1.
        -11    1    3    3    0    0 -0.16983922564E+02 -0.60022723182E+01  0.24487086445E+01  0.18179028382E+02  0.51100000000E-03 0. -1.
         12    1    3    3    0    0  0.20836334077E+02  0.26112346957E+02  0.14137566978E+02  0.36275036615E+02  0.00000000000E+00 0. -1.
</event>
<event>
 7    1  0.2976321E-013  0.7246166E+02  0.7816164E-02  0.1226708E+00
        -11   -1    0    0    0    0  0.00000000000E+00  0.00000000000E+00  0.45593999997E+02  0.45594000000E+02  0.51100000000E-03 0. -1.
         11   -1    0    0    0    0 -0.00000000000E+00 -0.00000000000E+00 -0.45593999997E+02  0.45594000000E+02  0.51100000000E-03 0.  1.
    9900012    2    1    2    0    0 -0.17348342867E+02 -0.67890460046E+01 -0.19025609880E+01  0.72461658013E+02  0.70000114270E+02 0.  0.
         12    1    1    2    0    0  0.17348342867E+02  0.67890460046E+01  0.19025609880E+01  0.18726341987E+02  0.00000000000E+00 0. -1.
         11    1    3    3    0    0  0.97459898659E+01 -0.13950010604E+01 -0.23747719119E+01  0.10127679316E+02  0.51100000000E-03 0. -1.
        -11    1    3    3    0    0 -0.30053839005E+02  0.11629887573E+02 -0.18104845492E+02  0.36963129662E+02  0.51100000000E-03 0.  1.
         12    1    3    3    0    0  0.29595062717E+01 -0.17023932517E+02  0.18577056416E+02  0.25370849036E+02  0.00000000000E+00 0. -1.
</event>
<event>
 7    1  0.2976321E-013  0.7246145E+02  0.7816164E-02  0.1226708E+00
        -11   -1    0    0    0    0  0.00000000000E+00  0.00000000000E+00  0.45593999997E+02  0.45594000000E+02  0.51100000000E-03 0.  1.
         11   -1    0    0    0    0 -0.00000000000E+00 -0.00000000000E+00 -0.45593999997E+02  0.45594000000E+02  0.51100000000E-03 0. -1.
    9900012    2    1    2    0    0  0.28431731208E+01 -0.17175705519E+02  0.68989332413E+01  0.72461447372E+02  0.69999839870E+02 0.  0.
         12    1    1    2    0    0 -0.28431731208E+01  0.17175705519E+02 -0.68989332413E+01  0.18726552628E+02  0.00000000000E+00 0. -1.
         11    1    3    3    0    0 -0.15766476394E+02 -0.14775777275E+02 -0.90380718089E+01  0.23422043340E+02  0.51100000000E-03 0. -1.
        -11    1    3    3    0    0 -0.61675382157E+01 -0.28469444001E+01 -0.10689483399E+02  0.12665254662E+02  0.51100000000E-03 0.  1.
        -12    1    3    3    0    0  0.24777187730E+02  0.44701615603E+00  0.26626488449E+02  0.36374149370E+02  0.00000000000E+00 0.  1.
</event>
<event>
 7    1  0.2976321E-013  0.7246153E+02  0.7816164E-02  0.1226708E+00
        -11   -1    0    0    0    0  0.00000000000E+00  0.00000000000E+00  0.45593999997E+02  0.45594000000E+02  0.51100000000E-03 0.  1.
         11   -1    0    0    0    0 -0.00000000000E+00 -0.00000000000E+00 -0.45593999997E+02  0.45594000000E+02  0.51100000000E-03 0. -1.
    9900012    2    1    2    0    0 -0.10421874662E+02 -0.39968968995E+01  0.15036290896E+02  0.72461529424E+02  0.69999946759E+02 0.  0.
         12    1    1    2    0    0  0.10421874662E+02  0.39968968995E+01 -0.15036290896E+02  0.18726470576E+02  0.00000000000E+00 0. -1.
         11    1    3    3    0    0  0.92031319542E+01  0.18871863006E+02 -0.59186293978E+01  0.21814559938E+02  0.51100000000E-03 0. -1.
        -11    1    3    3    0    0 -0.37920355515E+00 -0.13821304650E+02 -0.70199603502E+01  0.15506518021E+02  0.51100000000E-03 0.  1.
        -12    1    3    3    0    0 -0.19245803061E+02 -0.90474552559E+01  0.27974880644E+02  0.35140451465E+02  0.00000000000E+00 0.  1.
</event>
<event>
 7    1  0.2976321E-013  0.7246156E+02  0.7816164E-02  0.1226708E+00
        -11   -1    0    0    0    0  0.00000000000E+00  0.00000000000E+00  0.45593999997E+02  0.45594000000E+02  0.51100000000E-03 0. -1.
         11   -1    0    0    0    0 -0.00000000000E+00 -0.00000000000E+00 -0.45593999997E+02  0.45594000000E+02  0.51100000000E-03 0.  1.
    9900012    2    1    2    0    0  0.97600546465E+01  0.40613498086E+01 -0.15457243970E+02  0.72461558263E+02  0.69999984327E+02 0.  0.
         12    1    1    2    0    0 -0.97600546465E+01 -0.40613498086E+01  0.15457243970E+02  0.18726441737E+02  0.00000000000E+00 0. -1.
         11    1    3    3    0    0 -0.20947593588E+02  0.88666136506E+01  0.12791828668E+02  0.26096923108E+02  0.51100000000E-03 0. -1.
        -11    1    3    3    0    0  0.76374338361E+01  0.14914968844E+01  0.17740944403E+01  0.79813764415E+01  0.51100000000E-03 0.  1.
        -12    1    3    3    0    0  0.23070214399E+02 -0.62967607264E+01 -0.30023167079E+02  0.38383258714E+02  0.00000000000E+00 0.  1.
</event>
<event>
 7    1  0.2976321E-013  0.7246145E+02  0.7816164E-02  0.1226708E+00
        -11   -1    0    0    0    0  0.00000000000E+00  0.00000000000E+00  0.45593999997E+02  0.45594000000E+02  0.51100000000E-03 0.  1.
         11   -1    0    0    0    0 -0.00000000000E+00 -0.00000000000E+00 -0.45593999997E+02  0.45594000000E+02  0.51100000000E-03 0. -1.
    9900012    2    1    2    0    0 -0.85073242093E+01 -0.10122967765E+02  0.13260259601E+02  0.72461453968E+02  0.69999848464E+02 0.  0.
         12    1    1    2    0    0  0.85073242093E+01  0.10122967765E+02 -0.13260259601E+02  0.18726546032E+02  0.00000000000E+00 0. -1.
         11    1    3    3    0    0  0.14324614018E+02  0.17834930214E+02 -0.47238856454E+01  0.23357962205E+02  0.51100000000E-03 0. -1.
        -11    1    3    3    0    0  0.34582228998E+01  0.28665377385E+01 -0.59908841257E+00  0.45315837649E+01  0.51100000000E-03 0.  1.
        -12    1    3    3    0    0 -0.26290161127E+02 -0.30824435718E+02  0.18583233659E+02  0.44571907999E+02  0.00000000000E+00 0.  1.
</event>
<event>
 7    1  0.2976321E-013  0.7246162E+02  0.7816164E-02  0.1226708E+00
        -11   -1    0    0    0    0  0.00000000000E+00  0.00000000000E+00  0.45593999997E+02  0.45594000000E+02  0.51100000000E-03 0. -1.
         11   -1    0    0    0    0 -0.00000000000E+00 -0.00000000000E+00 -0.45593999997E+02  0.45594000000E+02  0.51100000000E-03 0.  1.
    9900012    2    1    2    0    0  0.70036631952E+01  0.10091220833E+02 -0.14134829643E+02  0.72461616337E+02  0.70000059979E+02 0.  0.
         12    1    1    2    0    0 -0.70036631952E+01 -0.10091220833E+02  0.14134829643E+02  0.18726383663E+02  0.00000000000E+00 0. -1.
         11    1    3    3    0    0 -0.63399550059E+01 -0.74809121770E+00 -0.11116397675E+01  0.64800010170E+01  0.51100000000E-03 0. -1.
        -11    1    3    3    0    0 -0.98515347802E+01 -0.18534215983E+02 -0.18717738422E+02  0.28123364513E+02  0.51100000000E-03 0.  1.
         12    1    3    3    0    0  0.23195152981E+02  0.29373528034E+02  0.56945485461E+01  0.37858250807E+02  0.00000000000E+00 0. -1.
</event>
<event>
 7    1  0.2976321E-013  0.7246154E+02  0.7816164E-02  0.1226708E+00
        -11   -1    0    0    0    0  0.00000000000E+00  0.00000000000E+00  0.45593999997E+02  0.45594000000E+02  0.51100000000E-03 0. -1.
         11   -1    0    0    0    0 -0.00000000000E+00 -0.00000000000E+00 -0.45593999997E+02  0.45594000000E+02  0.51100000000E-03 0.  1.
    9900012    2    1    2    0    0 -0.15669100828E+02 -0.10027232036E+02  0.21480325584E+01  0.72461544197E+02  0.69999966003E+02 0.  0.
         12    1    1    2    0    0  0.15669100828E+02  0.10027232036E+02 -0.21480325584E+01  0.18726455803E+02  0.00000000000E+00 0. -1.
         11    1    3    3    0    0 -0.17512363383E+02  0.14169504674E+02  0.17570061810E+02  0.28568598255E+02  0.51100000000E-03 0. -1.
        -11    1    3    3    0    0 -0.27534935985E+01  0.55464922485E+00 -0.18336325493E+02  0.18550207428E+02  0.51100000000E-03 0.  1.
        -12    1    3    3    0    0  0.45967561534E+01 -0.24751385935E+02  0.29142962412E+01  0.25342738514E+02  0.00000000000E+00 0.  1.
</event>
<event>
 7    1  0.2976321E-013  0.7246158E+02  0.7816164E-02  0.1226708E+00
        -11   -1    0    0    0    0  0.00000000000E+00  0.00000000000E+00  0.45593999997E+02  0.45594000000E+02  0.51100000000E-03 0.  1.
         11   -1    0    0    0    0 -0.00000000000E+00 -0.00000000000E+00 -0.45593999997E+02  0.45594000000E+02  0.51100000000E-03 0. -1.
    9900012    2    1    2    0    0 -0.11605133222E+02 -0.81597350953E+01  0.12223687772E+02  0.72461576512E+02  0.70000008099E+02 0.  0.
         12    1    1    2    0    0  0.11605133222E+02  0.81597350953E+01 -0.12223687772E+02  0.18726423488E+02  0.00000000000E+00 0. -1.
         11    1    3    3    0    0 -0.15971510507E+02  0.11401021215E+02 -0.81531734602E+01  0.21249627534E+02  0.51100000000E-03 0. -1.
        -11    1    3    3    0    0 -0.12150263065E+02 -0.19960506994E+02 -0.19365196138E+01  0.23447832319E+02  0.51100000000E-03 0.  1.
        -12    1    3    3    0    0  0.16516640350E+02  0.39975068391E+00  0.22313380846E+02  0.27764116658E+02  0.00000000000E+00 0.  1.
</event>
<event>
 7    1  0.2976321E-013  0.7246202E+02  0.7816164E-02  0.1226707E+00
        -11   -1    0    0    0    0  0.00000000000E+00  0.00000000000E+00  0.45593999997E+02  0.45594000000E+02  0.51100000000E-03 0.  1.
         11   -1    0    0    0    0 -0.00000000000E+00 -0.00000000000E+00 -0.45593999997E+02  0.45594000000E+02  0.51100000000E-03 0. -1.
    9900012    2    1    2    0    0  0.93751512348E+01  0.16191494376E+02  0.77742345713E+00  0.72462019704E+02  0.70000585438E+02 0.  0.
         12    1    1    2    0    0 -0.93751512348E+01 -0.16191494376E+02 -0.77742345713E+00  0.18725980296E+02  0.00000000000E+00 0. -1.
         11    1    3    3    0    0 -0.26389168954E+01  0.20315146312E+02  0.45346125328E+01  0.20981700673E+02  0.51100000000E-03 0. -1.
        -11    1    3    3    0    0 -0.19508895191E+02  0.22735432632E+00 -0.91128469053E+00  0.19531490512E+02  0.51100000000E-03 0.  1.
         12    1    3    3    0    0  0.31522963321E+02 -0.43510062621E+01 -0.28459043851E+01  0.31948828520E+02  0.00000000000E+00 0. -1.
</event>
<event>
 7    1  0.2976321E-013  0.7246156E+02  0.7816164E-02  0.1226708E+00
        -11   -1    0    0    0    0  0.00000000000E+00  0.00000000000E+00  0.45593999997E+02  0.45594000000E+02  0.51100000000E-03 0.  1.
         11   -1    0    0    0    0 -0.00000000000E+00 -0.00000000000E+00 -0.45593999997E+02  0.45594000000E+02  0.51100000000E-03 0. -1.
    9900012    2    1    2    0    0  0.13724360181E+02  0.46296732072E+01  0.11869608381E+02  0.72461560415E+02  0.69999987131E+02 0.  0.
         12    1    1    2    0    0 -0.13724360181E+02 -0.46296732072E+01 -0.11869608381E+02  0.18726439585E+02  0.00000000000E+00 0. -1.
         11    1    3    3    0    0  0.56545658773E+01  0.15043430287E+02  0.89619818737E+01  0.18400979034E+02  0.51100000000E-03 0. -1.
        -11    1    3    3    0    0  0.29903857810E+02 -0.49631355368E+00  0.32654958849E-01  0.29907994010E+02  0.51100000000E-03 0.  1.
         12    1    3    3    0    0 -0.21834063507E+02 -0.99174435261E+01  0.28749715488E+01  0.24152587371E+02  0.00000000000E+00 0. -1.
</event>
<event>
 7    1  0.2976321E-013  0.7246156E+02  0.7816164E-02  0.1226708E+00
        -11   -1    0    0    0    0  0.00000000000E+00  0.00000000000E+00  0.45593999997E+02  0.45594000000E+02  0.51100000000E-03 0.  1.
         11   -1    0    0    0    0 -0.00000000000E+00 -0.00000000000E+00 -0.45593999997E+02  0.45594000000E+02  0.51100000000E-03 0. -1.
    9900012    2    1    2    0    0 -0.52702088516E+01  0.47724080622E+01  0.17324218551E+02  0.72461560711E+02  0.69999987515E+02 0.  0.
         12    1    1    2    0    0  0.52702088516E+01 -0.47724080622E+01 -0.17324218551E+02  0.18726439289E+02  0.00000000000E+00 0. -1.
         11    1    3    3    0    0  0.26032930677E+01 -0.50543964209E+01 -0.77203040558E+00  0.57376030870E+01  0.51100000000E-03 0. -1.
        -11    1    3    3    0    0 -0.23266662864E+02 -0.11849744466E+02  0.28062781944E+02  0.38331107151E+02  0.51100000000E-03 0.  1.
         12    1    3    3    0    0  0.15393160944E+02  0.21676548949E+02 -0.99665329868E+01  0.28392850473E+02  0.00000000000E+00 0. -1.
</event>
<event>
 7    1  0.2976321E-013  0.7246157E+02  0.7816164E-02  0.1226708E+00
        -11   -1    0    0    0    0  0.00000000000E+00  0.00000000000E+00  0.45593999997E+02  0.45594000000E+02  0.51100000000E-03 0.  1.
         11   -1    0    0    0    0 -0.00000000000E+00 -0.00000000000E+00 -0.45593999997E+02  0.45594000000E+02  0.51100000000E-03 0. -1.
    9900012    2    1    2    0    0 -0.10293758103E+02 -0.15428370651E+02 -0.25851532885E+01  0.72461572301E+02  0.70000002615E+02 0.  0.
         12    1    1    2    0    0  0.10293758103E+02  0.15428370651E+02  0.25851532885E+01  0.18726427699E+02  0.00000000000E+00 0. -1.
         11    1    3    3    0    0  0.50831783862E+01  0.74862369085E+01  0.31690259629E+00  0.90544394124E+01  0.51100000000E-03 0. -1.
        -11    1    3    3    0    0 -0.52163643852E+01 -0.40282840605E+02 -0.10406995285E+02  0.41931172840E+02  0.51100000000E-03 0.  1.
         12    1    3    3    0    0 -0.10160572104E+02  0.17368233046E+02  0.75049394005E+01  0.21475960049E+02  0.00000000000E+00 0. -1.
</event>
<event>
 7    1  0.2976321E-013  0.7246146E+02  0.7816164E-02  0.1226708E+00
        -11   -1    0    0    0    0  0.00000000000E+00  0.00000000000E+00  0.45593999997E+02  0.45594000000E+02  0.51100000000E-03 0. -1.
         11   -1    0    0    0    0 -0.00000000000E+00 -0.00000000000E+00 -0.45593999997E+02  0.45594000000E+02  0.51100000000E-03 0.  1.
    9900012    2    1    2    0    0  0.11866399781E+02 -0.12657795404E+02 -0.70464144531E+01  0.72461463083E+02  0.69999860337E+02 0.  0.
         12    1    1    2    0    0 -0.11866399781E+02  0.12657795404E+02  0.70464144531E+01  0.18726536917E+02  0.00000000000E+00 0. -1.
         11    1    3    3    0    0  0.20307492747E+02 -0.78368581203E+00  0.15725547858E+02  0.25696328159E+02  0.51100000000E-03 0. -1.
        -11    1    3    3    0    0 -0.29137188165E+00 -0.16880922784E+02  0.48235809515E+01  0.17558968793E+02  0.51100000000E-03 0.  1.
        -12    1    3    3    0    0 -0.81497210850E+01  0.50068131923E+01 -0.27595543263E+02  0.29206166131E+02  0.00000000000E+00 0.  1.
</event>
<event>
 7    1  0.2976321E-013  0.7246158E+02  0.7816164E-02  0.1226708E+00
        -11   -1    0    0    0    0  0.00000000000E+00  0.00000000000E+00  0.45593999997E+02  0.45594000000E+02  0.51100000000E-03 0.  1.
         11   -1    0    0    0    0 -0.00000000000E+00 -0.00000000000E+00 -0.45593999997E+02  0.45594000000E+02  0.51100000000E-03 0. -1.
    9900012    2    1    2    0    0 -0.93634358023E+01  0.39588701434E-01 -0.16217377460E+02  0.72461579387E+02  0.70000011845E+02 0.  0.
         12    1    1    2    0    0  0.93634358023E+01 -0.39588701434E-01  0.16217377460E+02  0.18726420613E+02  0.00000000000E+00 0. -1.
         11    1    3    3    0    0 -0.15738743494E+02  0.14184552505E+02 -0.24449587636E+02  0.32352618323E+02  0.51100000000E-03 0. -1.
        -11    1    3    3    0    0 -0.14148866937E+02 -0.45605459081E+01 -0.24474773246E+01  0.15065827561E+02  0.51100000000E-03 0.  1.
        -12    1    3    3    0    0  0.20524174628E+02 -0.95844178949E+01  0.10679687501E+02  0.25043133504E+02  0.00000000000E+00 0.  1.
</event>
<event>
 7    1  0.2976321E-013  0.7246157E+02  0.7816164E-02  0.1226708E+00
        -11   -1    0    0    0    0  0.00000000000E+00  0.00000000000E+00  0.45593999997E+02  0.45594000000E+02  0.51100000000E-03 0.  1.
         11   -1    0    0    0    0 -0.00000000000E+00 -0.00000000000E+00 -0.45593999997E+02  0.45594000000E+02  0.51100000000E-03 0. -1.
    9900012    2    1    2    0    0  0.12116252021E+02  0.12185850894E+02  0.74418055137E+01  0.72461574972E+02  0.70000006093E+02 0.  0.
         12    1    1    2    0    0 -0.12116252021E+02 -0.12185850894E+02 -0.74418055137E+01  0.18726425028E+02  0.00000000000E+00 0. -1.
         11    1    3    3    0    0 -0.62986752086E+01  0.94841932118E+01 -0.18460096455E+02  0.21688669661E+02  0.51100000000E-03 0. -1.
        -11    1    3    3    0    0  0.10945476234E+01 -0.13419167614E+02 -0.26174379596E+01  0.13715796575E+02  0.51100000000E-03 0.  1.
        -12    1    3    3    0    0  0.17320379606E+02  0.16120825295E+02  0.28519339929E+02  0.37057108736E+02  0.00000000000E+00 0.  1.
</event>
<event>
 7    1  0.2976321E-013  0.7246158E+02  0.7816164E-02  0.1226708E+00
        -11   -1    0    0    0    0  0.00000000000E+00  0.00000000000E+00  0.45593999997E+02  0.45594000000E+02  0.51100000000E-03 0.  1.
         11   -1    0    0    0    0 -0.00000000000E+00 -0.00000000000E+00 -0.45593999997E+02  0.45594000000E+02  0.51100000000E-03 0. -1.
    9900012    2    1    2    0    0  0.22783922159E+01  0.47321189421E+01  0.17974837009E+02  0.72461580527E+02  0.70000013330E+02 0.  0.
         12    1    1    2    0    0 -0.22783922159E+01 -0.47321189421E+01 -0.17974837009E+02  0.18726419473E+02  0.00000000000E+00 0. -1.
         11    1    3    3    0    0 -0.39493974403E+00  0.20183011920E+02 -0.15366698030E+00  0.20187460498E+02  0.51100000000E-03 0. -1.
        -11    1    3    3    0    0 -0.58404924402E+01  0.13215040264E+02  0.17053778605E+02  0.22351286453E+02  0.51100000000E-03 0.  1.
         12    1    3    3    0    0  0.85138244002E+01 -0.28665933242E+02  0.10747253850E+01  0.29922833576E+02  0.00000000000E+00 0. -1.
</event>
<event>
 7    1  0.2976321E-013  0.7246159E+02  0.7816164E-02  0.1226708E+00
        -11   -1    0    0    0    0  0.00000000000E+00  0.00000000000E+00  0.45593999997E+02  0.45594000000E+02  0.51100000000E-03 0. -1.
         11   -1    0    0    0    0 -0.00000000000E+00 -0.00000000000E+00 -0.45593999997E+02  0.45594000000E+02  0.51100000000E-03 0.  1.
    9900012    2    1    2    0    0 -0.52028888823E+01  0.99424932019E+01 -0.14991840828E+02  0.72461587765E+02  0.70000022759E+02 0.  0.
         12    1    1    2    0    0  0.52028888823E+01 -0.99424932019E+01  0.14991840828E+02  0.18726412235E+02  0.00000000000E+00 0. -1.
         11    1    3    3    0    0 -0.29414516004E+01  0.25920726722E+02 -0.14938846901E+02  0.30061692539E+02  0.51100000000E-03 0. -1.
        -11    1    3    3    0    0 -0.10737242562E+01  0.95561245394E+01  0.10947668597E+02  0.14571336519E+02  0.51100000000E-03 0.  1.
        -12    1    3    3    0    0 -0.11877130257E+01 -0.25534358060E+02 -0.11000662523E+02  0.27828558707E+02  0.00000000000E+00 0.  1.
</event>
<event>
 7    1  0.2976321E-013  0.7246187E+02  0.7816164E-02  0.1226707E+00
        -11   -1    0    0    0    0  0.00000000000E+00  0.00000000000E+00  0.45593999997E+02  0.45594000000E+02  0.51100000000E-03 0.  1.
         11   -1    0    0    0    0 -0.00000000000E+00 -0.00000000000E+00 -0.45593999997E+02  0.45594000000E+02  0.51100000000E-03 0. -1.
    9900012    2    1    2    0    0 -0.10459714199E+02  0.15402567063E+02 -0.20057792330E+01  0.72461872702E+02  0.70000393941E+02 0.  0.
         12    1    1    2    0    0  0.10459714199E+02 -0.15402567063E+02  0.20057792330E+01  0.18726127298E+02  0.00000000000E+00 0. -1.
         11    1    3    3    0    0 -0.12457582246E+02 -0.74501783432E+01 -0.52216975682E+01  0.15426037681E+02  0.51100000000E-03 0. -1.
        -11    1    3    3    0    0  0.37395206506E+01 -0.52249249254E-01 -0.22353015653E+02  0.22663716680E+02  0.51100000000E-03 0.  1.
        -12    1    3    3    0    0 -0.17416526029E+01  0.22904994656E+02  0.25568933989E+02  0.34372118341E+02  0.00000000000E+00 0.  1.
</event>
<event>
 7    1  0.2976321E-013  0.7246155E+02  0.7816164E-02  0.1226708E+00
        -11   -1    0    0    0    0  0.00000000000E+00  0.00000000000E+00  0.45593999997E+02  0.45594000000E+02  0.51100000000E-03 0.  1.
         11   -1    0    0    0    0 -0.00000000000E+00 -0.00000000000E+00 -0.45593999997E+02  0.45594000000E+02  0.51100000000E-03 0. -1.
    9900012    2    1    2    0    0 -0.26322824263E+01  0.18411217139E+02  0.21858498452E+01  0.72461554346E+02  0.69999979224E+02 0.  0.
         12    1    1    2    0    0  0.26322824263E+01 -0.18411217139E+02 -0.21858498452E+01  0.18726445654E+02  0.00000000000E+00 0. -1.
         11    1    3    3    0    0  0.17245928659E+01  0.87058848901E+00 -0.62734219624E+01  0.65641426134E+01  0.51100000000E-03 0. -1.
        -11    1    3    3    0    0  0.16821557122E+02  0.22162610584E+02  0.25947942970E+02  0.38045260369E+02  0.51100000000E-03 0.  1.
         12    1    3    3    0    0 -0.21178432415E+02 -0.46219819342E+01 -0.17488671162E+02  0.27852151363E+02  0.00000000000E+00 0. -1.
</event>
<event>
 7    1  0.2976321E-013  0.7246150E+02  0.7816164E-02  0.1226708E+00
        -11   -1    0    0    0    0  0.00000000000E+00  0.00000000000E+00  0.45593999997E+02  0.45594000000E+02  0.51100000000E-03 0.  1.
         11   -1    0    0    0    0 -0.00000000000E+00 -0.00000000000E+00 -0.45593999997E+02  0.45594000000E+02  0.51100000000E-03 0. -1.
    9900012    2    1    2    0    0  0.40298345284E+01  0.18123963899E+02  0.24421724280E+01  0.72461498995E+02  0.69999907119E+02 0.  0.
         12    1    1    2    0    0 -0.40298345284E+01 -0.18123963899E+02 -0.24421724280E+01  0.18726501005E+02  0.00000000000E+00 0. -1.
         11    1    3    3    0    0 -0.62773374349E+01 -0.54219591975E+01  0.83211704488E+01  0.11749233367E+02  0.51100000000E-03 0. -1.
        -11    1    3    3    0    0  0.19983219107E+02  0.20758443662E+01  0.18144379419E+02  0.27071325798E+02  0.51100000000E-03 0.  1.
         12    1    3    3    0    0 -0.96760471438E+01  0.21470078730E+02 -0.24023377440E+02  0.33640939830E+02  0.00000000000E+00 0. -1.
</event>
<event>
 7    1  0.2976321E-013  0.7246157E+02  0.7816164E-02  0.1226708E+00
        -11   -1    0    0    0    0  0.00000000000E+00  0.00000000000E+00  0.45593999997E+02  0.45594000000E+02  0.51100000000E-03 0. -1.
         11   -1    0    0    0    0 -0.00000000000E+00 -0.00000000000E+00 -0.45593999997E+02  0.45594000000E+02  0.51100000000E-03 0.  1.
    9900012    2    1    2    0    0  0.74961068010E+01 -0.47945507199E+01 -0.16477251047E+02  0.72461571193E+02  0.70000001171E+02 0.  0.
         12    1    1    2    0    0 -0.74961068010E+01  0.47945507199E+01  0.16477251047E+02  0.18726428807E+02  0.00000000000E+00 0. -1.
         11    1    3    3    0    0  0.16117867884E+02 -0.12126803002E+02 -0.36764190380E+02  0.41933884995E+02  0.51100000000E-03 0. -1.
        -11    1    3    3    0    0 -0.46895683511E+01 -0.18080561749E+00 -0.31176696799E+01  0.56342352174E+01  0.51100000000E-03 0.  1.
         12    1    3    3    0    0 -0.39321927324E+01  0.75130578995E+01  0.23404609013E+02  0.24893450981E+02  0.00000000000E+00 0. -1.
</event>
<event>
 7    1  0.2976321E-013  0.7246158E+02  0.7816164E-02  0.1226708E+00
        -11   -1    0    0    0    0  0.00000000000E+00  0.00000000000E+00  0.45593999997E+02  0.45594000000E+02  0.51100000000E-03 0. -1.
         11   -1    0    0    0    0 -0.00000000000E+00 -0.00000000000E+00 -0.45593999997E+02  0.45594000000E+02  0.51100000000E-03 0.  1.
    9900012    2    1    2    0    0 -0.14878544513E+02 -0.28294621894E+01 -0.11013708438E+02  0.72461582386E+02  0.70000015751E+02 0.  0.
         12    1    1    2    0    0  0.14878544513E+02  0.28294621894E+01  0.11013708438E+02  0.18726417614E+02  0.00000000000E+00 0. -1.
         11    1    3    3    0    0  0.21674135836E+02  0.14531431433E+01 -0.54175687841E+01  0.22388162967E+02  0.51100000000E-03 0. -1.
        -11    1    3    3    0    0 -0.18319611934E+02 -0.78888084563E+01  0.12978488561E+02  0.23796694011E+02  0.51100000000E-03 0.  1.
        -12    1    3    3    0    0 -0.18233068416E+02  0.36062031236E+01 -0.18574628214E+02  0.26276725407E+02  0.00000000000E+00 0.  1.
</event>
<event>
 7    1  0.2976321E-013  0.7246167E+02  0.7816164E-02  0.1226708E+00
        -11   -1    0    0    0    0  0.00000000000E+00  0.00000000000E+00  0.45593999997E+02  0.45594000000E+02  0.51100000000E-03 0.  1.
         11   -1    0    0    0    0 -0.00000000000E+00 -0.00000000000E+00 -0.45593999997E+02  0.45594000000E+02  0.51100000000E-03 0. -1.
    9900012    2    1    2    0    0 -0.51782563057E+01  0.17150974709E+02  0.54502480528E+01  0.72461668922E+02  0.70000128480E+02 0.  0.
         12    1    1    2    0    0  0.51782563057E+01 -0.17150974709E+02 -0.54502480528E+01  0.18726331078E+02  0.00000000000E+00 0. -1.
         11    1    3    3    0    0  0.11010981472E+02  0.66729864004E+01  0.31266823754E+01  0.13249400115E+02  0.51100000000E-03 0. -1.
        -11    1    3    3    0    0 -0.26269004627E+02  0.19954464950E+02  0.18583710001E+02  0.37862851889E+02  0.51100000000E-03 0.  1.
         12    1    3    3    0    0  0.10079766850E+02 -0.94764766417E+01 -0.16260144323E+02  0.21349416917E+02  0.00000000000E+00 0. -1.
</event>
<event>
 7    1  0.2976321E-013  0.7246161E+02  0.7816164E-02  0.1226708E+00
        -11   -1    0    0    0    0  0.00000000000E+00  0.00000000000E+00  0.45593999997E+02  0.45594000000E+02  0.51100000000E-03 0. -1.
         11   -1    0    0    0    0 -0.00000000000E+00 -0.00000000000E+00 -0.45593999997E+02  0.45594000000E+02  0.51100000000E-03 0.  1.
    9900012    2    1    2    0    0 -0.15037608591E+02 -0.19962598981E+01 -0.10980123042E+02  0.72461606120E+02  0.70000046670E+02 0.  0.
         12    1    1    2    0    0  0.15037608591E+02  0.19962598981E+01  0.10980123042E+02  0.18726393880E+02  0.00000000000E+00 0. -1.
         11    1    3    3    0    0  0.19969972389E+01 -0.44043788063E+01  0.19286517228E+01  0.52063661387E+01  0.51100000000E-03 0. -1.
        -11    1    3    3    0    0 -0.23994521842E+01  0.11809703621E+02 -0.36218369427E+02  0.38170626856E+02  0.51100000000E-03 0.  1.
         12    1    3    3    0    0 -0.14635153646E+02 -0.94015847123E+01  0.23309594662E+02  0.29084613125E+02  0.00000000000E+00 0. -1.
</event>
<event>
 7    1  0.2976321E-013  0.7246159E+02  0.7816164E-02  0.1226708E+00
        -11   -1    0    0    0    0  0.00000000000E+00  0.00000000000E+00  0.45593999997E+02  0.45594000000E+02  0.51100000000E-03 0.  1.
         11   -1    0    0    0    0 -0.00000000000E+00 -0.00000000000E+00 -0.45593999997E+02  0.45594000000E+02  0.51100000000E-03 0. -1.
    9900012    2    1    2    0    0 -0.35270391035E+01 -0.46910014404E+01  0.17782943891E+02  0.72461585694E+02  0.70000020060E+02 0.  0.
         12    1    1    2    0    0  0.35270391035E+01  0.46910014404E+01 -0.17782943891E+02  0.18726414306E+02  0.00000000000E+00 0. -1.
         11    1    3    3    0    0 -0.16949784636E+02 -0.13728509842E+02 -0.36874937572E+01  0.22121591085E+02  0.51100000000E-03 0. -1.
        -11    1    3    3    0    0 -0.25115483947E+01 -0.10472444165E+02 -0.65946133601E+01  0.12628099135E+02  0.51100000000E-03 0.  1.
        -12    1    3    3    0    0  0.15934293927E+02  0.19509952567E+02  0.28065051008E+02  0.37711895473E+02  0.00000000000E+00 0.  1.
</event>
<event>
 7    1  0.3786678E-013  0.7246146E+02  0.7816164E-02  0.1226708E+00
        -11   -1    0    0    0    0  0.00000000000E+00  0.00000000000E+00  0.45593999997E+02  0.45594000000E+02  0.51100000000E-03 0.  1.
         11   -1    0    0    0    0 -0.00000000000E+00 -0.00000000000E+00 -0.45593999997E+02  0.45594000000E+02  0.51100000000E-03 0. -1.
    9900012    2    1    2    0    0 -0.11936862017E+02 -0.14101931365E+02  0.30545239902E+01  0.72461461082E+02  0.69999857731E+02 0.  0.
         12    1    1    2    0    0  0.11936862017E+02  0.14101931365E+02 -0.30545239902E+01  0.18726538918E+02  0.00000000000E+00 0. -1.
         11    1    3    3    0    0  0.13755498670E+02  0.14228537138E+02 -0.27857294252E+01  0.19985627371E+02  0.51100000000E-03 0. -1.
        -11    1    3    3    0    0 -0.20158167751E+02 -0.30144389539E+01  0.14654846579E+02  0.25103846275E+02  0.51100000000E-03 0.  1.
        -12    1    3    3    0    0 -0.55341929358E+01 -0.25316029549E+02 -0.88145931635E+01  0.27371987436E+02  0.00000000000E+00 0.  1.
</event>
<event>
 7    1  0.2976321E-013  0.7246155E+02  0.7816164E-02  0.1226708E+00
        -11   -1    0    0    0    0  0.00000000000E+00  0.00000000000E+00  0.45593999997E+02  0.45594000000E+02  0.51100000000E-03 0.  1.
         11   -1    0    0    0    0 -0.00000000000E+00 -0.00000000000E+00 -0.45593999997E+02  0.45594000000E+02  0.51100000000E-03 0. -1.
    9900012    2    1    2    0    0  0.17346691880E+01  0.16755274572E+02  0.81811658910E+01  0.72461554034E+02  0.69999978818E+02 0.  0.
         12    1    1    2    0    0 -0.17346691880E+01 -0.16755274572E+02 -0.81811658910E+01  0.18726445966E+02  0.00000000000E+00 0. -1.
         11    1    3    3    0    0  0.15494157832E+02 -0.90933960371E+01  0.11935470145E+01  0.18005091867E+02  0.51100000000E-03 0. -1.
        -11    1    3    3    0    0  0.23462656596E+01 -0.12292035759E+02  0.29596631671E+01  0.12859187843E+02  0.51100000000E-03 0.  1.
        -12    1    3    3    0    0 -0.16105754304E+02  0.38140706369E+02  0.40279557094E+01  0.41597274324E+02  0.00000000000E+00 0.  1.
</event>
<event>
 7    1  0.2976321E-013  0.7246152E+02  0.7816164E-02  0.1226708E+00
        -11   -1    0    0    0    0  0.00000000000E+00  0.00000000000E+00  0.45593999997E+02  0.45594000000E+02  0.51100000000E-03 0.  1.
         11   -1    0    0    0    0 -0.00000000000E+00 -0.00000000000E+00 -0.45593999997E+02  0.45594000000E+02  0.51100000000E-03 0. -1.
    9900012    2    1    2    0    0  0.23299562181E+01  0.83294925120E+01  0.16609394652E+02  0.72461517890E+02  0.69999931734E+02 0.  0.
         12    1    1    2    0    0 -0.23299562181E+01 -0.83294925120E+01 -0.16609394652E+02  0.18726482110E+02  0.00000000000E+00 0. -1.
         11    1    3    3    0    0  0.59152624659E+00 -0.24606427251E+01 -0.60982016407E-01  0.25314788146E+01  0.51100000000E-03 0. -1.
        -11    1    3    3    0    0 -0.28042303190E+02 -0.11873206000E+02  0.63144423871E+01  0.31100096010E+02  0.51100000000E-03 0.  1.
         12    1    3    3    0    0  0.29780733162E+02  0.22663341237E+02  0.10355934282E+02  0.38829943066E+02  0.00000000000E+00 0. -1.
</event>
<event>
 7    1  0.2976321E-013  0.7246158E+02  0.7816164E-02  0.1226708E+00
        -11   -1    0    0    0    0  0.00000000000E+00  0.00000000000E+00  0.45593999997E+02  0.45594000000E+02  0.51100000000E-03 0.  1.
         11   -1    0    0    0    0 -0.00000000000E+00 -0.00000000000E+00 -0.45593999997E+02  0.45594000000E+02  0.51100000000E-03 0. -1.
    9900012    2    1    2    0    0 -0.92586622553E+01  0.13885246832E+02  0.84944668846E+01  0.72461578185E+02  0.70000010279E+02 0.  0.
         12    1    1    2    0    0  0.92586622553E+01 -0.13885246832E+02 -0.84944668846E+01  0.18726421815E+02  0.00000000000E+00 0. -1.
         11    1    3    3    0    0  0.17904520060E+02  0.51656647498E+01  0.66763470842E+01  0.19794684679E+02  0.51100000000E-03 0. -1.
        -11    1    3    3    0    0 -0.30316407085E+01  0.22620889374E+02  0.79177721679E+01  0.24157537081E+02  0.51100000000E-03 0.  1.
         12    1    3    3    0    0 -0.24131541607E+02 -0.13901307292E+02 -0.60996523675E+01  0.28509356425E+02  0.00000000000E+00 0. -1.
</event>
<event>
 7    1  0.2976321E-013  0.7246160E+02  0.7816164E-02  0.1226708E+00
        -11   -1    0    0    0    0  0.00000000000E+00  0.00000000000E+00  0.45593999997E+02  0.45594000000E+02  0.51100000000E-03 0.  1.
         11   -1    0    0    0    0 -0.00000000000E+00 -0.00000000000E+00 -0.45593999997E+02  0.45594000000E+02  0.51100000000E-03 0. -1.
    9900012    2    1    2    0    0  0.12148917590E+02 -0.11460529906E+02  0.84698399708E+01  0.72461597957E+02  0.70000036036E+02 0.  0.
         12    1    1    2    0    0 -0.12148917590E+02  0.11460529906E+02 -0.84698399708E+01  0.18726402043E+02  0.00000000000E+00 0. -1.
         11    1    3    3    0    0 -0.14793098357E+02  0.42821581271E+01  0.13566821698E+02  0.20523919910E+02  0.51100000000E-03 0. -1.
        -11    1    3    3    0    0 -0.43248869953E+01  0.92050781423E+01 -0.62201927246E+01  0.11921782959E+02  0.51100000000E-03 0.  1.
        -12    1    3    3    0    0  0.31266902942E+02 -0.24947766175E+02  0.11232109970E+01  0.40015895088E+02  0.00000000000E+00 0.  1.
</event>
<event>
 7    1  0.2976321E-013  0.7246154E+02  0.7816164E-02  0.1226708E+00
        -11   -1    0    0    0    0  0.00000000000E+00  0.00000000000E+00  0.45593999997E+02  0.45594000000E+02  0.51100000000E-03 0.  1.
         11   -1    0    0    0    0 -0.00000000000E+00 -0.00000000000E+00 -0.45593999997E+02  0.45594000000E+02  0.51100000000E-03 0. -1.
    9900012    2    1    2    0    0  0.38234987013E+01  0.17212687945E+02  0.63074869129E+01  0.72461543854E+02  0.69999965557E+02 0.  0.
         12    1    1    2    0    0 -0.38234987013E+01 -0.17212687945E+02 -0.63074869129E+01  0.18726456146E+02  0.00000000000E+00 0. -1.
         11    1    3    3    0    0  0.12464862285E+02 -0.23335232545E+00  0.13244021445E+02  0.18188769870E+02  0.51100000000E-03 0. -1.
        -11    1    3    3    0    0 -0.16210239955E+01 -0.17108726118E+02  0.34205436690E+01  0.17522452666E+02  0.51100000000E-03 0.  1.
         12    1    3    3    0    0 -0.70203395886E+01  0.34554766389E+02 -0.10357078201E+02  0.36750321318E+02  0.00000000000E+00 0. -1.
</event>
<event>
 7    1  0.2976321E-013  0.7246158E+02  0.7816164E-02  0.1226708E+00
        -11   -1    0    0    0    0  0.00000000000E+00  0.00000000000E+00  0.45593999997E+02  0.45594000000E+02  0.51100000000E-03 0.  1.
         11   -1    0    0    0    0 -0.00000000000E+00 -0.00000000000E+00 -0.45593999997E+02  0.45594000000E+02  0.51100000000E-03 0. -1.
    9900012    2    1    2    0    0 -0.33066914271E+01 -0.15599797564E+02  0.98178849757E+01  0.72461581292E+02  0.70000014327E+02 0.  0.
         12    1    1    2    0    0  0.33066914271E+01  0.15599797564E+02 -0.98178849757E+01  0.18726418708E+02  0.00000000000E+00 0. -1.
         11    1    3    3    0    0  0.13302322859E+01  0.23608043903E+01 -0.54834445597E+00  0.27647056276E+01  0.51100000000E-03 0. -1.
        -11    1    3    3    0    0  0.11268065026E+02  0.12522817838E+02  0.26747747867E+02  0.31610635429E+02  0.51100000000E-03 0.  1.
         12    1    3    3    0    0 -0.15904988739E+02 -0.30483419792E+02 -0.16381518435E+02  0.38086240235E+02  0.00000000000E+00 0. -1.
</event>
<event>
 7    1  0.2976321E-013  0.7246163E+02  0.7816164E-02  0.1226708E+00
        -11   -1    0    0    0    0  0.00000000000E+00  0.00000000000E+00  0.45593999997E+02  0.45594000000E+02  0.51100000000E-03 0.  1.
         11   -1    0    0    0    0 -0.00000000000E+00 -0.00000000000E+00 -0.45593999997E+02  0.45594000000E+02  0.51100000000E-03 0. -1.
    9900012    2    1    2    0    0 -0.11768046162E+02  0.12133559793E+02  0.80601937864E+01  0.72461630689E+02  0.70000078675E+02 0.  0.
         12    1    1    2    0    0  0.11768046162E+02 -0.12133559793E+02 -0.80601937864E+01  0.18726369311E+02  0.00000000000E+00 0. -1.
         11    1    3    3    0    0  0.42682453568E+01  0.15848644157E+02 -0.10949155851E+02  0.19730216779E+02  0.51100000000E-03 0. -1.
        -11    1    3    3    0    0 -0.81755003980E+01  0.12795327139E+02 -0.10184480212E+02  0.18283403425E+02  0.51100000000E-03 0.  1.
        -12    1    3    3    0    0 -0.78607911209E+01 -0.16510411503E+02  0.29193829850E+02  0.34448010485E+02  0.00000000000E+00 0.  1.
</event>
<event>
 7    1  0.2976321E-013  0.7246166E+02  0.7816164E-02  0.1226708E+00
        -11   -1    0    0    0    0  0.00000000000E+00  0.00000000000E+00  0.45593999997E+02  0.45594000000E+02  0.51100000000E-03 0. -1.
         11   -1    0    0    0    0 -0.00000000000E+00 -0.00000000000E+00 -0.45593999997E+02  0.45594000000E+02  0.51100000000E-03 0.  1.
    9900012    2    1    2    0    0 -0.18052451000E+02  0.15624275696E+01 -0.47268970624E+01  0.72461662321E+02  0.70000119882E+02 0.  0.
         12    1    1    2    0    0  0.18052451000E+02 -0.15624275696E+01  0.47268970624E+01  0.18726337679E+02  0.00000000000E+00 0. -1.
         11    1    3    3    0    0 -0.78479811793E+01  0.21320406505E+02  0.53128104313E+01  0.23331877273E+02  0.51100000000E-03 0. -1.
        -11    1    3    3    0    0 -0.23172528722E+02  0.14518822920E+01 -0.54592184126E+01  0.23851144951E+02  0.51100000000E-03 0.  1.
         12    1    3    3    0    0  0.12968058901E+02 -0.21209861227E+02 -0.45804890812E+01  0.25278640097E+02  0.00000000000E+00 0. -1.
</event>
<event>
 7    1  0.2976321E-013  0.7246174E+02  0.7816164E-02  0.1226708E+00
        -11   -1    0    0    0    0  0.00000000000E+00  0.00000000000E+00  0.45593999997E+02  0.45594000000E+02  0.51100000000E-03 0. -1.
         11   -1    0    0    0    0 -0.00000000000E+00 -0.00000000000E+00 -0.45593999997E+02  0.45594000000E+02  0.51100000000E-03 0.  1.
    9900012    2    1    2    0    0 -0.14079080630E+01  0.18272223553E+02  0.38492065125E+01  0.72461741712E+02  0.70000223304E+02 0.  0.
         12    1    1    2    0    0  0.14079080630E+01 -0.18272223553E+02 -0.38492065125E+01  0.18726258288E+02  0.00000000000E+00 0. -1.
         11    1    3    3    0    0  0.19632085928E+02  0.53005689031E+01 -0.81897742344E+01  0.21922299853E+02  0.51100000000E-03 0. -1.
        -11    1    3    3    0    0 -0.25729641721E+01 -0.14622431304E+02  0.86011988071E+01  0.17158562383E+02  0.51100000000E-03 0.  1.
        -12    1    3    3    0    0 -0.18467029819E+02  0.27594085953E+02  0.34377819397E+01  0.33380879476E+02  0.00000000000E+00 0.  1.
</event>
<event>
 7    1  0.2976321E-013  0.7246156E+02  0.7816164E-02  0.1226708E+00
        -11   -1    0    0    0    0  0.00000000000E+00  0.00000000000E+00  0.45593999997E+02  0.45594000000E+02  0.51100000000E-03 0.  1.
         11   -1    0    0    0    0 -0.00000000000E+00 -0.00000000000E+00 -0.45593999997E+02  0.45594000000E+02  0.51100000000E-03 0. -1.
    9900012    2    1    2    0    0 -0.18489127988E+02 -0.28341996566E+01 -0.89391233101E+00  0.72461558247E+02  0.69999984307E+02 0.  0.
         12    1    1    2    0    0  0.18489127988E+02  0.28341996566E+01  0.89391233101E+00  0.18726441753E+02  0.00000000000E+00 0. -1.
         11    1    3    3    0    0  0.69154886662E+01  0.40953126088E+01 -0.49241384037E+01  0.94256409933E+01  0.51100000000E-03 0. -1.
        -11    1    3    3    0    0  0.75188634340E+01 -0.16630446312E+02  0.18317599843E+02  0.25858064818E+02  0.51100000000E-03 0.  1.
        -12    1    3    3    0    0 -0.32923480088E+02  0.97009340465E+01 -0.14287373770E+02  0.37177852436E+02  0.00000000000E+00 0.  1.
</event>
<event>
 7    1  0.2976321E-013  0.7246156E+02  0.7816164E-02  0.1226708E+00
        -11   -1    0    0    0    0  0.00000000000E+00  0.00000000000E+00  0.45593999997E+02  0.45594000000E+02  0.51100000000E-03 0.  1.
         11   -1    0    0    0    0 -0.00000000000E+00 -0.00000000000E+00 -0.45593999997E+02  0.45594000000E+02  0.51100000000E-03 0. -1.
    9900012    2    1    2    0    0 -0.12070661918E+02 -0.14241485059E+02 -0.14692783828E+01  0.72461560008E+02  0.69999986600E+02 0.  0.
         12    1    1    2    0    0  0.12070661918E+02  0.14241485059E+02  0.14692783828E+01  0.18726439992E+02  0.00000000000E+00 0. -1.
         11    1    3    3    0    0 -0.95369596018E+01  0.65066660810E+01  0.39770343559E+01  0.12210941997E+02  0.51100000000E-03 0. -1.
        -11    1    3    3    0    0 -0.62007046409E+01 -0.27726949957E+02  0.19254962206E+02  0.34321801552E+02  0.51100000000E-03 0.  1.
         12    1    3    3    0    0  0.36670023243E+01  0.69787988177E+01 -0.24701274945E+02  0.25928816458E+02  0.00000000000E+00 0. -1.
</event>
<event>
 7    1  0.2976321E-013  0.7246111E+02  0.7816164E-02  0.1226709E+00
        -11   -1    0    0    0    0  0.00000000000E+00  0.00000000000E+00  0.45593999997E+02  0.45594000000E+02  0.51100000000E-03 0.  1.
         11   -1    0    0    0    0 -0.00000000000E+00 -0.00000000000E+00 -0.45593999997E+02  0.45594000000E+02  0.51100000000E-03 0. -1.
    9900012    2    1    2    0    0  0.17676358935E+02  0.43163041342E+01  0.44285534047E+01  0.72461114732E+02  0.69999406543E+02 0.  0.
         12    1    1    2    0    0 -0.17676358935E+02 -0.43163041342E+01 -0.44285534047E+01  0.18726885268E+02  0.00000000000E+00 0. -1.
         11    1    3    3    0    0  0.20550517110E+02 -0.10242303613E+02  0.11720757486E+02  0.25779928105E+02  0.51100000000E-03 0. -1.
        -11    1    3    3    0    0  0.97888360622E+01  0.19133605902E+02  0.10860357780E+02  0.24080356260E+02  0.51100000000E-03 0.  1.
        -12    1    3    3    0    0 -0.12662994237E+02 -0.45749981543E+01 -0.18152561861E+02  0.22600830367E+02  0.00000000000E+00 0.  1.
</event>
<event>
 7    1  0.2976321E-013  0.7246158E+02  0.7816164E-02  0.1226708E+00
        -11   -1    0    0    0    0  0.00000000000E+00  0.00000000000E+00  0.45593999997E+02  0.45594000000E+02  0.51100000000E-03 0. -1.
         11   -1    0    0    0    0 -0.00000000000E+00 -0.00000000000E+00 -0.45593999997E+02  0.45594000000E+02  0.51100000000E-03 0.  1.
    9900012    2    1    2    0    0  0.75006297135E+01 -0.86489342827E+01 -0.14819417159E+02  0.72461584559E+02  0.70000018583E+02 0.  0.
         12    1    1    2    0    0 -0.75006297135E+01  0.86489342827E+01  0.14819417159E+02  0.18726415441E+02  0.00000000000E+00 0. -1.
         11    1    3    3    0    0  0.21350906553E+02  0.53357183771E+01 -0.16217551168E+02  0.27337521237E+02  0.51100000000E-03 0. -1.
        -11    1    3    3    0    0  0.12332740062E+02 -0.12869428453E+02 -0.42301552772E+01  0.18319740175E+02  0.51100000000E-03 0.  1.
        -12    1    3    3    0    0 -0.26183016902E+02 -0.11152242067E+01  0.56282892862E+01  0.26804323147E+02  0.00000000000E+00 0.  1.
</event>
<event>
 7    1  0.2976321E-013  0.7246159E+02  0.7816164E-02  0.1226708E+00
        -11   -1    0    0    0    0  0.00000000000E+00  0.00000000000E+00  0.45593999997E+02  0.45594000000E+02  0.51100000000E-03 0. -1.
         11   -1    0    0    0    0 -0.00000000000E+00 -0.00000000000E+00 -0.45593999997E+02  0.45594000000E+02  0.51100000000E-03 0.  1.
    9900012    2    1    2    0    0  0.14522432270E+01  0.18603872711E+02  0.15701822793E+01  0.72461586498E+02  0.70000021109E+02 0.  0.
         12    1    1    2    0    0 -0.14522432270E+01 -0.18603872711E+02 -0.15701822793E+01  0.18726413502E+02  0.00000000000E+00 0. -1.
         11    1    3    3    0    0  0.14100888757E+02 -0.90240144506E+00  0.27471067095E+01  0.14394304000E+02  0.51100000000E-03 0. -1.
        -11    1    3    3    0    0  0.62271242590E+01 -0.16247869815E+02 -0.26959424220E+01  0.17607908901E+02  0.51100000000E-03 0.  1.
         12    1    3    3    0    0 -0.18875769789E+02  0.35754143971E+02  0.15190179918E+01  0.40459373597E+02  0.00000000000E+00 0. -1.
</event>
<event>
 7    1  0.2976321E-013  0.7246158E+02  0.7816164E-02  0.1226708E+00
        -11   -1    0    0    0    0  0.00000000000E+00  0.00000000000E+00  0.45593999997E+02  0.45594000000E+02  0.51100000000E-03 0.  1.
         11   -1    0    0    0    0 -0.00000000000E+00 -0.00000000000E+00 -0.45593999997E+02  0.45594000000E+02  0.51100000000E-03 0. -1.
    9900012    2    1    2    0    0  0.12043866748E+02  0.40962583428E+01  0.13742084668E+02  0.72461576164E+02  0.70000007646E+02 0.  0.
         12    1    1    2    0    0 -0.12043866748E+02 -0.40962583428E+01 -0.13742084668E+02  0.18726423836E+02  0.00000000000E+00 0. -1.
         11    1    3    3    0    0 -0.46892437600E+01  0.46665674164E+01 -0.16911962904E+02  0.18159855397E+02  0.51100000000E-03 0. -1.
        -11    1    3    3    0    0  0.22353964590E+02  0.15781681664E+02  0.16474376747E+02  0.31940042243E+02  0.51100000000E-03 0.  1.
        -12    1    3    3    0    0 -0.56208540814E+01 -0.16351990737E+02  0.14179670826E+02  0.22361678524E+02  0.00000000000E+00 0.  1.
</event>
<event>
 7    1  0.2976321E-013  0.7246158E+02  0.7816164E-02  0.1226708E+00
        -11   -1    0    0    0    0  0.00000000000E+00  0.00000000000E+00  0.45593999997E+02  0.45594000000E+02  0.51100000000E-03 0.  1.
         11   -1    0    0    0    0 -0.00000000000E+00 -0.00000000000E+00 -0.45593999997E+02  0.45594000000E+02  0.51100000000E-03 0. -1.
    9900012    2    1    2    0    0 -0.84952857868E+01 -0.15335140207E+02 -0.65835084882E+01  0.72461575093E+02  0.70000006251E+02 0.  0.
         12    1    1    2    0    0  0.84952857868E+01  0.15335140207E+02  0.65835084882E+01  0.18726424907E+02  0.00000000000E+00 0. -1.
         11    1    3    3    0    0 -0.14580894057E+02 -0.17090086446E+02  0.95173951123E+01  0.24397834662E+02  0.51100000000E-03 0. -1.
        -11    1    3    3    0    0 -0.18356414099E+02 -0.20601819267E+00  0.64782568837E+00  0.18368997263E+02  0.51100000000E-03 0.  1.
         12    1    3    3    0    0  0.24442022369E+02  0.19609644313E+01 -0.16748729289E+02  0.29694743168E+02  0.00000000000E+00 0. -1.
</event>
<event>
 7    1  0.2976321E-013  0.7246159E+02  0.7816164E-02  0.1226708E+00
        -11   -1    0    0    0    0  0.00000000000E+00  0.00000000000E+00  0.45593999997E+02  0.45594000000E+02  0.51100000000E-03 0.  1.
         11   -1    0    0    0    0 -0.00000000000E+00 -0.00000000000E+00 -0.45593999997E+02  0.45594000000E+02  0.51100000000E-03 0. -1.
    9900012    2    1    2    0    0  0.88340005704E+01 -0.68637533997E+01  0.15017576473E+02  0.72461594047E+02  0.70000030942E+02 0.  0.
         12    1    1    2    0    0 -0.88340005704E+01  0.68637533997E+01 -0.15017576473E+02  0.18726405953E+02  0.00000000000E+00 0. -1.
         11    1    3    3    0    0 -0.64346152957E+00 -0.28748131989E+02  0.16474255027E+02  0.33140160147E+02  0.51100000000E-03 0. -1.
        -11    1    3    3    0    0  0.32301821566E+01  0.13229137398E+02  0.14648126357E+02  0.20000293975E+02  0.51100000000E-03 0.  1.
        -12    1    3    3    0    0  0.62472799434E+01  0.86552411915E+01 -0.16104804911E+02  0.19321139925E+02  0.00000000000E+00 0.  1.
</event>
<event>
 7    1  0.2976321E-013  0.7246157E+02  0.7816164E-02  0.1226708E+00
        -11   -1    0    0    0    0  0.00000000000E+00  0.00000000000E+00  0.45593999997E+02  0.45594000000E+02  0.51100000000E-03 0.  1.
         11   -1    0    0    0    0 -0.00000000000E+00 -0.00000000000E+00 -0.45593999997E+02  0.45594000000E+02  0.51100000000E-03 0. -1.
    9900012    2    1    2    0    0  0.88422232551E+00  0.18181113566E+02 -0.43982162787E+01  0.72461573590E+02  0.70000004294E+02 0.  0.
         12    1    1    2    0    0 -0.88422232551E+00 -0.18181113566E+02  0.43982162787E+01  0.18726426410E+02  0.00000000000E+00 0. -1.
         11    1    3    3    0    0 -0.71647963274E+01 -0.16844555056E+02 -0.50210403035E+01  0.18981153480E+02  0.51100000000E-03 0. -1.
        -11    1    3    3    0    0 -0.76391952929E+01 -0.10169909030E+01  0.10428334953E+02  0.12966948190E+02  0.51100000000E-03 0.  1.
        -12    1    3    3    0    0  0.15688213946E+02  0.36042659525E+02 -0.98055109282E+01  0.40513471920E+02  0.00000000000E+00 0.  1.
</event>
<event>
 7    1  0.2976321E-013  0.7246157E+02  0.7816164E-02  0.1226708E+00
        -11   -1    0    0    0    0  0.00000000000E+00  0.00000000000E+00  0.45593999997E+02  0.45594000000E+02  0.51100000000E-03 0.  1.
         11   -1    0    0    0    0 -0.00000000000E+00 -0.00000000000E+00 -0.45593999997E+02  0.45594000000E+02  0.51100000000E-03 0. -1.
    9900012    2    1    2    0    0  0.65362010371E+00  0.16509080545E+02  0.88148845010E+01  0.72461570857E+02  0.70000000732E+02 0.  0.
         12    1    1    2    0    0 -0.65362010371E+00 -0.16509080545E+02 -0.88148845010E+01  0.18726429143E+02  0.00000000000E+00 0. -1.
         11    1    3    3    0    0 -0.18016680836E+02  0.71696483238E+01  0.25051269281E+02  0.31679184621E+02  0.51100000000E-03 0. -1.
        -11    1    3    3    0    0  0.85804090969E+01  0.13075531592E+02  0.54596048817E+01  0.16565030408E+02  0.51100000000E-03 0.  1.
        -12    1    3    3    0    0  0.10089891843E+02 -0.37360993706E+01 -0.21695989661E+02  0.24217355828E+02  0.00000000000E+00 0.  1.
</event>
<event>
 7    1  0.2976321E-013  0.7246166E+02  0.7816164E-02  0.1226708E+00
        -11   -1    0    0    0    0  0.00000000000E+00  0.00000000000E+00  0.45593999997E+02  0.45594000000E+02  0.51100000000E-03 0.  1.
         11   -1    0    0    0    0 -0.00000000000E+00 -0.00000000000E+00 -0.45593999997E+02  0.45594000000E+02  0.51100000000E-03 0. -1.
    9900012    2    1    2    0    0 -0.32140823658E+01  0.17896754544E+02 -0.44779029589E+01  0.72461661235E+02  0.70000118467E+02 0.  0.
         12    1    1    2    0    0  0.32140823658E+01 -0.17896754544E+02  0.44779029589E+01  0.18726338765E+02  0.00000000000E+00 0. -1.
         11    1    3    3    0    0 -0.13958757829E+02  0.60586404680E+00 -0.46983314674E+01  0.14740702500E+02  0.51100000000E-03 0. -1.
        -11    1    3    3    0    0  0.22964782972E+02 -0.99578079859E+01 -0.87876657832E+01  0.26528517995E+02  0.51100000000E-03 0.  1.
         12    1    3    3    0    0 -0.12220107509E+02  0.27248698483E+02  0.90080942917E+01  0.31192440740E+02  0.00000000000E+00 0. -1.
</event>
<event>
 7    1  0.2976321E-013  0.7246159E+02  0.7816164E-02  0.1226708E+00
        -11   -1    0    0    0    0  0.00000000000E+00  0.00000000000E+00  0.45593999997E+02  0.45594000000E+02  0.51100000000E-03 0. -1.
         11   -1    0    0    0    0 -0.00000000000E+00 -0.00000000000E+00 -0.45593999997E+02  0.45594000000E+02  0.51100000000E-03 0.  1.
    9900012    2    1    2    0    0  0.64381255168E+01 -0.16781505862E+02  0.52545101237E+01  0.72461594157E+02  0.70000031086E+02 0.  0.
         12    1    1    2    0    0 -0.64381255168E+01  0.16781505862E+02 -0.52545101237E+01  0.18726405843E+02  0.00000000000E+00 0. -1.
         11    1    3    3    0    0 -0.97207750771E+01  0.12506748230E+01 -0.16328731352E+02  0.19044293724E+02  0.51100000000E-03 0. -1.
        -11    1    3    3    0    0  0.33426767442E+01 -0.90868329170E+01 -0.12564808484E+02  0.15862485076E+02  0.51100000000E-03 0.  1.
        -12    1    3    3    0    0  0.12816223850E+02 -0.89453477676E+01  0.34148049960E+02  0.37554815357E+02  0.00000000000E+00 0.  1.
</event>
<event>
 7    1  0.2976321E-013  0.7246159E+02  0.7816164E-02  0.1226708E+00
        -11   -1    0    0    0    0  0.00000000000E+00  0.00000000000E+00  0.45593999997E+02  0.45594000000E+02  0.51100000000E-03 0. -1.
         11   -1    0    0    0    0 -0.00000000000E+00 -0.00000000000E+00 -0.45593999997E+02  0.45594000000E+02  0.51100000000E-03 0.  1.
    9900012    2    1    2    0    0 -0.13220126479E+02 -0.44362370034E+01 -0.12499058818E+02  0.72461590462E+02  0.70000026272E+02 0.  0.
         12    1    1    2    0    0  0.13220126479E+02  0.44362370034E+01  0.12499058818E+02  0.18726409538E+02  0.00000000000E+00 0. -1.
         11    1    3    3    0    0 -0.23255730949E+00  0.24232234387E+01  0.66591383083E+01  0.70901493642E+01  0.51100000000E-03 0. -1.
        -11    1    3    3    0    0 -0.30254431948E+02  0.10646337378E+02 -0.24315039778E+02  0.40247935497E+02  0.51100000000E-03 0.  1.
        -12    1    3    3    0    0  0.17266862779E+02 -0.17505797820E+02  0.51568426519E+01  0.25123505601E+02  0.00000000000E+00 0.  1.
</event>
<event>
 7    1  0.2976321E-013  0.7246135E+02  0.7816164E-02  0.1226709E+00
        -11   -1    0    0    0    0  0.00000000000E+00  0.00000000000E+00  0.45593999997E+02  0.45594000000E+02  0.51100000000E-03 0.  1.
         11   -1    0    0    0    0 -0.00000000000E+00 -0.00000000000E+00 -0.45593999997E+02  0.45594000000E+02  0.51100000000E-03 0. -1.
    9900012    2    1    2    0    0 -0.11459604889E+02 -0.72122817036E+01  0.12936304958E+02  0.72461346868E+02  0.69999708945E+02 0.  0.
         12    1    1    2    0    0  0.11459604889E+02  0.72122817036E+01 -0.12936304958E+02  0.18726653132E+02  0.00000000000E+00 0. -1.
         11    1    3    3    0    0 -0.16645645537E+02  0.48636579978E+00 -0.13543914115E+01  0.16707736034E+02  0.51100000000E-03 0. -1.
        -11    1    3    3    0    0 -0.76719850268E+01  0.20700678048E+02  0.10174956419E+02  0.24308582112E+02  0.51100000000E-03 0.  1.
         12    1    3    3    0    0  0.12858025675E+02 -0.28399325551E+02  0.41157399499E+01  0.31445028722E+02  0.00000000000E+00 0. -1.
</event>
<event>
 7    1  0.2976321E-013  0.7246159E+02  0.7816164E-02  0.1226708E+00
        -11   -1    0    0    0    0  0.00000000000E+00  0.00000000000E+00  0.45593999997E+02  0.45594000000E+02  0.51100000000E-03 0.  1.
         11   -1    0    0    0    0 -0.00000000000E+00 -0.00000000000E+00 -0.45593999997E+02  0.45594000000E+02  0.51100000000E-03 0. -1.
    9900012    2    1    2    0    0  0.12954079320E+02  0.63734684570E+01  0.11926818871E+02  0.72461594056E+02  0.70000030953E+02 0.  0.
         12    1    1    2    0    0 -0.12954079320E+02 -0.63734684570E+01 -0.11926818871E+02  0.18726405944E+02  0.00000000000E+00 0. -1.
         11    1    3    3    0    0 -0.11110536969E+02 -0.59861289929E+01  0.59984828149E+01  0.13973530992E+02  0.51100000000E-03 0. -1.
        -11    1    3    3    0    0  0.41494460043E+01  0.25791436788E+02  0.17881514138E+02  0.31656984409E+02  0.51100000000E-03 0.  1.
         12    1    3    3    0    0  0.19915170285E+02 -0.13431839338E+02 -0.11953178082E+02  0.26831078654E+02  0.00000000000E+00 0. -1.
</event>
<event>
 7    1  0.2976321E-013  0.7246156E+02  0.7816164E-02  0.1226708E+00
        -11   -1    0    0    0    0  0.00000000000E+00  0.00000000000E+00  0.45593999997E+02  0.45594000000E+02  0.51100000000E-03 0.  1.
         11   -1    0    0    0    0 -0.00000000000E+00 -0.00000000000E+00 -0.45593999997E+02  0.45594000000E+02  0.51100000000E-03 0. -1.
    9900012    2    1    2    0    0  0.17512210361E+02  0.40304870877E+01  0.52685073427E+01  0.72461561270E+02  0.69999988244E+02 0.  0.
         12    1    1    2    0    0 -0.17512210361E+02 -0.40304870877E+01 -0.52685073427E+01  0.18726438730E+02  0.00000000000E+00 0. -1.
         11    1    3    3    0    0  0.29082529219E+02  0.57219169015E+01 -0.15231087764E+02  0.33324463590E+02  0.51100000000E-03 0. -1.
        -11    1    3    3    0    0  0.56385701374E+01  0.55499780490E+01  0.18791026076E+02  0.20388682910E+02  0.51100000000E-03 0.  1.
        -12    1    3    3    0    0 -0.17208888995E+02 -0.72414078627E+01  0.17085690310E+01  0.18748414771E+02  0.00000000000E+00 0.  1.
</event>
<event>
 7    1  0.2976321E-013  0.7246151E+02  0.7816164E-02  0.1226708E+00
        -11   -1    0    0    0    0  0.00000000000E+00  0.00000000000E+00  0.45593999997E+02  0.45594000000E+02  0.51100000000E-03 0.  1.
         11   -1    0    0    0    0 -0.00000000000E+00 -0.00000000000E+00 -0.45593999997E+02  0.45594000000E+02  0.51100000000E-03 0. -1.
    9900012    2    1    2    0    0  0.79673090703E+00 -0.78470667355E+01  0.16984406713E+02  0.72461513200E+02  0.69999925623E+02 0.  0.
         12    1    1    2    0    0 -0.79673090703E+00  0.78470667355E+01 -0.16984406713E+02  0.18726486800E+02  0.00000000000E+00 0. -1.
         11    1    3    3    0    0 -0.10801600738E+02  0.86145862283E+01  0.12653843894E+02  0.18735139176E+02  0.51100000000E-03 0. -1.
        -11    1    3    3    0    0 -0.12956109735E+02 -0.24147636797E+02 -0.11176692435E+01  0.27426598899E+02  0.51100000000E-03 0.  1.
         12    1    3    3    0    0  0.24554441381E+02  0.76859838331E+01  0.54482320621E+01  0.26299775124E+02  0.00000000000E+00 0. -1.
</event>
<event>
 7    1  0.2976321E-013  0.7246158E+02  0.7816164E-02  0.1226708E+00
        -11   -1    0    0    0    0  0.00000000000E+00  0.00000000000E+00  0.45593999997E+02  0.45594000000E+02  0.51100000000E-03 0. -1.
         11   -1    0    0    0    0 -0.00000000000E+00 -0.00000000000E+00 -0.45593999997E+02  0.45594000000E+02  0.51100000000E-03 0.  1.
    9900012    2    1    2    0    0  0.89503747015E+01  0.16437022070E+02  0.62764380580E+00  0.72461579131E+02  0.70000011511E+02 0.  0.
         12    1    1    2    0    0 -0.89503747015E+01 -0.16437022070E+02 -0.62764380580E+00  0.18726420869E+02  0.00000000000E+00 0. -1.
         11    1    3    3    0    0 -0.15411109712E+02 -0.31652805852E+01  0.78488648694E+01  0.17581978948E+02  0.51100000000E-03 0. -1.
        -11    1    3    3    0    0 -0.87098569726E+01  0.19315105688E+02 -0.47556962847E+01  0.21715238051E+02  0.51100000000E-03 0.  1.
        -12    1    3    3    0    0  0.33071341386E+02  0.28719696727E+00 -0.24655247789E+01  0.33164362131E+02  0.00000000000E+00 0.  1.
</event>
<event>
 7    1  0.2976321E-013  0.7246150E+02  0.7816164E-02  0.1226708E+00
        -11   -1    0    0    0    0  0.00000000000E+00  0.00000000000E+00  0.45593999997E+02  0.45594000000E+02  0.51100000000E-03 0. -1.
         11   -1    0    0    0    0 -0.00000000000E+00 -0.00000000000E+00 -0.45593999997E+02  0.45594000000E+02  0.51100000000E-03 0.  1.
    9900012    2    1    2    0    0  0.15436742435E+02 -0.10392589441E+02 -0.20935354049E+01  0.72461499451E+02  0.69999907714E+02 0.  0.
         12    1    1    2    0    0 -0.15436742435E+02  0.10392589441E+02  0.20935354049E+01  0.18726500549E+02  0.00000000000E+00 0. -1.
         11    1    3    3    0    0 -0.19950389109E+02  0.10040833171E+02  0.72115036739E+01  0.23470026456E+02  0.51100000000E-03 0. -1.
        -11    1    3    3    0    0 -0.25258119028E+01 -0.30099471423E+01 -0.59520246011E+01  0.71320477201E+01  0.51100000000E-03 0.  1.
        -12    1    3    3    0    0  0.37912943447E+02 -0.17423475470E+02 -0.33530144777E+01  0.41859425275E+02  0.00000000000E+00 0.  1.
</event>
<event>
 7    1  0.2976321E-013  0.7246151E+02  0.7816164E-02  0.1226708E+00
        -11   -1    0    0    0    0  0.00000000000E+00  0.00000000000E+00  0.45593999997E+02  0.45594000000E+02  0.51100000000E-03 0.  1.
         11   -1    0    0    0    0 -0.00000000000E+00 -0.00000000000E+00 -0.45593999997E+02  0.45594000000E+02  0.51100000000E-03 0. -1.
    9900012    2    1    2    0    0  0.22368084469E+01  0.14830287854E+02 -0.11213407775E+02  0.72461514377E+02  0.69999927158E+02 0.  0.
         12    1    1    2    0    0 -0.22368084469E+01 -0.14830287854E+02  0.11213407775E+02  0.18726485623E+02  0.00000000000E+00 0. -1.
         11    1    3    3    0    0 -0.10841840695E+02  0.12912540881E+02 -0.10773991068E+01  0.16894969984E+02  0.51100000000E-03 0.  1.
        -11    1    3    3    0    0  0.25836885340E+02 -0.16386569474E+02  0.10384885839E+01  0.30612787557E+02  0.51100000000E-03 0. -1.
         12    1    3    3    0    0 -0.12758236198E+02  0.18304316446E+02 -0.11174497252E+02  0.24953756837E+02  0.00000000000E+00 0. -1.
</event>
<event>
 7    1  0.2976321E-013  0.7246162E+02  0.7816164E-02  0.1226708E+00
        -11   -1    0    0    0    0  0.00000000000E+00  0.00000000000E+00  0.45593999997E+02  0.45594000000E+02  0.51100000000E-03 0.  1.
         11   -1    0    0    0    0 -0.00000000000E+00 -0.00000000000E+00 -0.45593999997E+02  0.45594000000E+02  0.51100000000E-03 0. -1.
    9900012    2    1    2    0    0  0.50801485671E+01  0.17998740986E+02  0.95645779890E+00  0.72461617593E+02  0.70000061615E+02 0.  0.
         12    1    1    2    0    0 -0.50801485671E+01 -0.17998740986E+02 -0.95645779890E+00  0.18726382407E+02  0.00000000000E+00 0. -1.
         11    1    3    3    0    0  0.23267844136E+01 -0.16209195583E+02 -0.18401783428E+02  0.24632855717E+02  0.51100000000E-03 0. -1.
        -11    1    3    3    0    0 -0.86942292011E+00  0.99908861943E+00 -0.58378876170E+01  0.59862347409E+01  0.51100000000E-03 0.  1.
        -12    1    3    3    0    0  0.36227870736E+01  0.33208847949E+02  0.25196128844E+02  0.41842527135E+02  0.00000000000E+00 0.  1.
</event>
<event>
 7    1  0.2976321E-013  0.7246169E+02  0.7816164E-02  0.1226708E+00
        -11   -1    0    0    0    0  0.00000000000E+00  0.00000000000E+00  0.45593999997E+02  0.45594000000E+02  0.51100000000E-03 0. -1.
         11   -1    0    0    0    0 -0.00000000000E+00 -0.00000000000E+00 -0.45593999997E+02  0.45594000000E+02  0.51100000000E-03 0.  1.
    9900012    2    1    2    0    0  0.14472093522E+02 -0.11479336994E+02 -0.30754157460E+01  0.72461685607E+02  0.70000150216E+02 0.  0.
         12    1    1    2    0    0 -0.14472093522E+02  0.11479336994E+02  0.30754157460E+01  0.18726314393E+02  0.00000000000E+00 0. -1.
         11    1    3    3    0    0  0.84593384779E+01 -0.15721937269E+02  0.26141821582E+02  0.31656508886E+02  0.51100000000E-03 0. -1.
        -11    1    3    3    0    0 -0.92350264629E+01  0.48874227664E+01 -0.37228795595E+01  0.11091999258E+02  0.51100000000E-03 0.  1.
        -12    1    3    3    0    0  0.15247781507E+02 -0.64482249179E+00 -0.25494357768E+02  0.29713177463E+02  0.00000000000E+00 0.  1.
</event>
<event>
 7    1  0.2976321E-013  0.7246157E+02  0.7816164E-02  0.1226708E+00
        -11   -1    0    0    0    0  0.00000000000E+00  0.00000000000E+00  0.45593999997E+02  0.45594000000E+02  0.51100000000E-03 0.  1.
         11   -1    0    0    0    0 -0.00000000000E+00 -0.00000000000E+00 -0.45593999997E+02  0.45594000000E+02  0.51100000000E-03 0. -1.
    9900012    2    1    2    0    0  0.17972905790E+02 -0.46282808250E+01  0.24965932457E+01  0.72461566710E+02  0.69999995331E+02 0.  0.
         12    1    1    2    0    0 -0.17972905790E+02  0.46282808250E+01 -0.24965932457E+01  0.18726433290E+02  0.00000000000E+00 0. -1.
         11    1    3    3    0    0 -0.97183219829E+01  0.57354922075E+01 -0.76372942697E+00  0.11310390618E+02  0.51100000000E-03 0. -1.
        -11    1    3    3    0    0 -0.40996452164E+01  0.17917328082E+02  0.28461820910E+01  0.18599421745E+02  0.51100000000E-03 0.  1.
         12    1    3    3    0    0  0.31790872989E+02 -0.28281101114E+02  0.41414058173E+00  0.42551754348E+02  0.00000000000E+00 0. -1.
</event>
<event>
 7    1  0.2976321E-013  0.7246166E+02  0.7816164E-02  0.1226708E+00
        -11   -1    0    0    0    0  0.00000000000E+00  0.00000000000E+00  0.45593999997E+02  0.45594000000E+02  0.51100000000E-03 0. -1.
         11   -1    0    0    0    0 -0.00000000000E+00 -0.00000000000E+00 -0.45593999997E+02  0.45594000000E+02  0.51100000000E-03 0.  1.
    9900012    2    1    2    0    0  0.12669073168E+02 -0.13755374082E+02  0.97984065634E+00  0.72461659760E+02  0.70000116546E+02 0.  0.
         12    1    1    2    0    0 -0.12669073168E+02  0.13755374082E+02 -0.97984065634E+00  0.18726340240E+02  0.00000000000E+00 0. -1.
         11    1    3    3    0    0  0.18345143748E+02 -0.64486791622E+01  0.11394156975E+02  0.22537891994E+02  0.51100000000E-03 0. -1.
        -11    1    3    3    0    0  0.12621015766E+02  0.14187618370E+02 -0.10495079028E+02  0.21696203309E+02  0.51100000000E-03 0.  1.
         12    1    3    3    0    0 -0.18297086346E+02 -0.21494313289E+02  0.80762708950E-01  0.28227564457E+02  0.00000000000E+00 0. -1.
</event>
<event>
 7    1  0.2976321E-013  0.7246153E+02  0.7816164E-02  0.1226708E+00
        -11   -1    0    0    0    0  0.00000000000E+00  0.00000000000E+00  0.45593999997E+02  0.45594000000E+02  0.51100000000E-03 0.  1.
         11   -1    0    0    0    0 -0.00000000000E+00 -0.00000000000E+00 -0.45593999997E+02  0.45594000000E+02  0.51100000000E-03 0. -1.
    9900012    2    1    2    0    0 -0.16603164872E+02 -0.23830192791E-01  0.86611195565E+01  0.72461530936E+02  0.69999948728E+02 0.  0.
         12    1    1    2    0    0  0.16603164872E+02  0.23830192791E-01 -0.86611195565E+01  0.18726469064E+02  0.00000000000E+00 0. -1.
         11    1    3    3    0    0  0.75384841178E+01  0.15179764401E+02  0.17424949881E+01  0.17037907122E+02  0.51100000000E-03 0. -1.
        -11    1    3    3    0    0  0.95761559661E+01  0.70347211376E+01  0.91107633122E+01  0.14973178452E+02  0.51100000000E-03 0.  1.
         12    1    3    3    0    0 -0.33717804956E+02 -0.22238315731E+02 -0.21921387438E+01  0.40450445361E+02  0.00000000000E+00 0. -1.
</event>
<event>
 7    1  0.2976321E-013  0.7246164E+02  0.7816164E-02  0.1226708E+00
        -11   -1    0    0    0    0  0.00000000000E+00  0.00000000000E+00  0.45593999997E+02  0.45594000000E+02  0.51100000000E-03 0. -1.
         11   -1    0    0    0    0 -0.00000000000E+00 -0.00000000000E+00 -0.45593999997E+02  0.45594000000E+02  0.51100000000E-03 0.  1.
    9900012    2    1    2    0    0  0.11753286938E+02 -0.10548908475E+02 -0.10062674771E+02  0.72461637636E+02  0.70000087725E+02 0.  0.
         12    1    1    2    0    0 -0.11753286938E+02  0.10548908475E+02  0.10062674771E+02  0.18726362364E+02  0.00000000000E+00 0. -1.
         11    1    3    3    0    0  0.69692420612E+01  0.96221224909E+01 -0.13674652793E+02  0.18114958057E+02  0.51100000000E-03 0. -1.
        -11    1    3    3    0    0  0.21326480129E+01  0.16052199540E+02 -0.51353679120E+01  0.16988034067E+02  0.51100000000E-03 0.  1.
         12    1    3    3    0    0  0.26513968642E+01 -0.36223230505E+02  0.87473459341E+01  0.37358645512E+02  0.00000000000E+00 0. -1.
</event>
<event>
 7    1  0.2976321E-013  0.7246150E+02  0.7816164E-02  0.1226708E+00
        -11   -1    0    0    0    0  0.00000000000E+00  0.00000000000E+00  0.45593999997E+02  0.45594000000E+02  0.51100000000E-03 0.  1.
         11   -1    0    0    0    0 -0.00000000000E+00 -0.00000000000E+00 -0.45593999997E+02  0.45594000000E+02  0.51100000000E-03 0. -1.
    9900012    2    1    2    0    0 -0.37964929581E+01 -0.17801064901E+02 -0.44034847016E+01  0.72461496111E+02  0.69999903362E+02 0.  0.
         12    1    1    2    0    0  0.37964929581E+01  0.17801064901E+02  0.44034847016E+01  0.18726503889E+02  0.00000000000E+00 0. -1.
         11    1    3    3    0    0 -0.85690461523E+01 -0.20360847250E+02 -0.10224216579E+02  0.24341882786E+02  0.51100000000E-03 0. -1.
        -11    1    3    3    0    0 -0.20802844726E+02 -0.33795399291E+01  0.58171107152E+01  0.21863632273E+02  0.51100000000E-03 0.  1.
         12    1    3    3    0    0  0.25575397920E+02  0.59393222773E+01  0.36211617495E-02  0.26255981052E+02  0.00000000000E+00 0. -1.
</event>
<event>
 7    1  0.2976321E-013  0.7246184E+02  0.7816164E-02  0.1226707E+00
        -11   -1    0    0    0    0  0.00000000000E+00  0.00000000000E+00  0.45593999997E+02  0.45594000000E+02  0.51100000000E-03 0. -1.
         11   -1    0    0    0    0 -0.00000000000E+00 -0.00000000000E+00 -0.45593999997E+02  0.45594000000E+02  0.51100000000E-03 0.  1.
    9900012    2    1    2    0    0 -0.33753026922E+01  0.17043610353E+02  0.69850997231E+01  0.72461843420E+02  0.70000355796E+02 0.  0.
         12    1    1    2    0    0  0.33753026922E+01 -0.17043610353E+02 -0.69850997231E+01  0.18726156580E+02  0.00000000000E+00 0. -1.
         11    1    3    3    0    0  0.25397990079E+02  0.85589941593E+00  0.10710923402E+02  0.27577424539E+02  0.51100000000E-03 0. -1.
        -11    1    3    3    0    0 -0.61347511803E+01  0.13716176232E+02 -0.13408451915E+02  0.20138402258E+02  0.51100000000E-03 0.  1.
        -12    1    3    3    0    0 -0.22638541591E+02  0.24715347047E+01  0.96826282356E+01  0.24746016623E+02  0.00000000000E+00 0.  1.
</event>
<event>
 7    1  0.2976321E-013  0.7246152E+02  0.7816164E-02  0.1226708E+00
        -11   -1    0    0    0    0  0.00000000000E+00  0.00000000000E+00  0.45593999997E+02  0.45594000000E+02  0.51100000000E-03 0.  1.
         11   -1    0    0    0    0 -0.00000000000E+00 -0.00000000000E+00 -0.45593999997E+02  0.45594000000E+02  0.51100000000E-03 0. -1.
    9900012    2    1    2    0    0 -0.65481075116E+01  0.12725478888E+02  0.12077476164E+02  0.72461522611E+02  0.69999937883E+02 0.  0.
         12    1    1    2    0    0  0.65481075116E+01 -0.12725478888E+02 -0.12077476164E+02  0.18726477389E+02  0.00000000000E+00 0. -1.
         11    1    3    3    0    0 -0.15050701907E+02  0.53816031761E+01 -0.17368289266E+02  0.23603871566E+02  0.51100000000E-03 0. -1.
        -11    1    3    3    0    0  0.51600855299E+00  0.10629819814E+02 -0.61076368697E+01  0.12270393739E+02  0.51100000000E-03 0.  1.
        -12    1    3    3    0    0  0.79865858423E+01 -0.32859441019E+01  0.35553402300E+02  0.36587257306E+02  0.00000000000E+00 0.  1.
</event>
<event>
 7    1  0.2976321E-013  0.7246155E+02  0.7816164E-02  0.1226708E+00
        -11   -1    0    0    0    0  0.00000000000E+00  0.00000000000E+00  0.45593999997E+02  0.45594000000E+02  0.51100000000E-03 0.  1.
         11   -1    0    0    0    0 -0.00000000000E+00 -0.00000000000E+00 -0.45593999997E+02  0.45594000000E+02  0.51100000000E-03 0. -1.
    9900012    2    1    2    0    0  0.16147912267E+02  0.15883910605E+01  0.93489001095E+01  0.72461548387E+02  0.69999971462E+02 0.  0.
         12    1    1    2    0    0 -0.16147912267E+02 -0.15883910605E+01 -0.93489001095E+01  0.18726451613E+02  0.00000000000E+00 0. -1.
         11    1    3    3    0    0  0.19330413254E+02 -0.29774026670E+02  0.15401116645E+02  0.38695631987E+02  0.51100000000E-03 0. -1.
        -11    1    3    3    0    0  0.16902710044E+01  0.25584162590E+01  0.17475076477E+01  0.35293473989E+01  0.51100000000E-03 0.  1.
        -12    1    3    3    0    0 -0.48727719909E+01  0.28804001471E+02 -0.77997241829E+01  0.30236569001E+02  0.00000000000E+00 0.  1.
</event>
<event>
 7    1  0.2976321E-013  0.7246158E+02  0.7816164E-02  0.1226708E+00
        -11   -1    0    0    0    0  0.00000000000E+00  0.00000000000E+00  0.45593999997E+02  0.45594000000E+02  0.51100000000E-03 0.  1.
         11   -1    0    0    0    0 -0.00000000000E+00 -0.00000000000E+00 -0.45593999997E+02  0.45594000000E+02  0.51100000000E-03 0. -1.
    9900012    2    1    2    0    0 -0.13474492366E+02  0.85485524026E+01  0.97999595552E+01  0.72461577491E+02  0.70000009375E+02 0.  0.
         12    1    1    2    0    0  0.13474492366E+02 -0.85485524026E+01 -0.97999595552E+01  0.18726422509E+02  0.00000000000E+00 0. -1.
         11    1    3    3    0    0 -0.10033499622E+01 -0.21290408240E+02  0.65942167837E+01  0.22310802079E+02  0.51100000000E-03 0. -1.
        -11    1    3    3    0    0 -0.13984312695E+02 -0.17475322078E+00  0.12434456254E+02  0.18713824912E+02  0.51100000000E-03 0.  1.
         12    1    3    3    0    0  0.15131702914E+01  0.30013713863E+02 -0.92287134825E+01  0.31436950500E+02  0.00000000000E+00 0. -1.
</event>
<event>
 7    1  0.2976321E-013  0.7246153E+02  0.7816164E-02  0.1226708E+00
        -11   -1    0    0    0    0  0.00000000000E+00  0.00000000000E+00  0.45593999997E+02  0.45594000000E+02  0.51100000000E-03 0. -1.
         11   -1    0    0    0    0 -0.00000000000E+00 -0.00000000000E+00 -0.45593999997E+02  0.45594000000E+02  0.51100000000E-03 0.  1.
    9900012    2    1    2    0    0  0.11801746751E+02  0.98230140915E+01 -0.10719513966E+02  0.72461526443E+02  0.69999942875E+02 0.  0.
         12    1    1    2    0    0 -0.11801746751E+02 -0.98230140915E+01  0.10719513966E+02  0.18726473557E+02  0.00000000000E+00 0. -1.
         11    1    3    3    0    0 -0.16029210549E+02  0.28671153095E+01 -0.42914518950E+01  0.16839611060E+02  0.51100000000E-03 0. -1.
        -11    1    3    3    0    0 -0.36237676865E+01  0.13330431299E+02 -0.16932234463E+02  0.21852520564E+02  0.51100000000E-03 0.  1.
         12    1    3    3    0    0  0.31454724986E+02 -0.63745325170E+01  0.10504172391E+02  0.33769394818E+02  0.00000000000E+00 0. -1.
</event>
<event>
 7    1  0.2976321E-013  0.7246147E+02  0.7816164E-02  0.1226708E+00
        -11   -1    0    0    0    0  0.00000000000E+00  0.00000000000E+00  0.45593999997E+02  0.45594000000E+02  0.51100000000E-03 0.  1.
         11   -1    0    0    0    0 -0.00000000000E+00 -0.00000000000E+00 -0.45593999997E+02  0.45594000000E+02  0.51100000000E-03 0. -1.
    9900012    2    1    2    0    0  0.95614752304E+01 -0.12557515368E+02 -0.10078182196E+02  0.72461474503E+02  0.69999875214E+02 0.  0.
         12    1    1    2    0    0 -0.95614752304E+01  0.12557515368E+02  0.10078182196E+02  0.18726525497E+02  0.00000000000E+00 0. -1.
         11    1    3    3    0    0 -0.64275407792E+01  0.60378162732E+01 -0.27362207826E+01  0.92333856331E+01  0.51100000000E-03 0.  1.
        -11    1    3    3    0    0  0.20203367120E+02 -0.36134047211E+02 -0.14438729383E+02  0.43844296292E+02  0.51100000000E-03 0. -1.
         12    1    3    3    0    0 -0.42143511109E+01  0.17538715569E+02  0.70967679691E+01  0.19383792578E+02  0.00000000000E+00 0. -1.
</event>
<event>
 7    1  0.2976321E-013  0.7246160E+02  0.7816164E-02  0.1226708E+00
        -11   -1    0    0    0    0  0.00000000000E+00  0.00000000000E+00  0.45593999997E+02  0.45594000000E+02  0.51100000000E-03 0. -1.
         11   -1    0    0    0    0 -0.00000000000E+00 -0.00000000000E+00 -0.45593999997E+02  0.45594000000E+02  0.51100000000E-03 0.  1.
    9900012    2    1    2    0    0  0.36396265615E+01 -0.14239140352E+02  0.11605086291E+02  0.72461600792E+02  0.70000039729E+02 0.  0.
         12    1    1    2    0    0 -0.36396265615E+01  0.14239140352E+02 -0.11605086291E+02  0.18726399208E+02  0.00000000000E+00 0. -1.
         11    1    3    3    0    0 -0.14588803155E+02 -0.85955586441E+01  0.29723987746E+02  0.34208657584E+02  0.51100000000E-03 0. -1.
        -11    1    3    3    0    0  0.41760136732E+01 -0.70851641968E-02  0.74482019443E+01  0.85390194321E+01  0.51100000000E-03 0.  1.
        -12    1    3    3    0    0  0.14052416044E+02 -0.56364965436E+01 -0.25567103400E+02  0.29713923776E+02  0.00000000000E+00 0.  1.
</event>
<event>
 7    1  0.2976321E-013  0.7246171E+02  0.7816164E-02  0.1226708E+00
        -11   -1    0    0    0    0  0.00000000000E+00  0.00000000000E+00  0.45593999997E+02  0.45594000000E+02  0.51100000000E-03 0.  1.
         11   -1    0    0    0    0 -0.00000000000E+00 -0.00000000000E+00 -0.45593999997E+02  0.45594000000E+02  0.51100000000E-03 0. -1.
    9900012    2    1    2    0    0  0.17128446420E+02 -0.32381767706E+01  0.68413795399E+01  0.72461709936E+02  0.70000181909E+02 0.  0.
         12    1    1    2    0    0 -0.17128446420E+02  0.32381767706E+01 -0.68413795399E+01  0.18726290064E+02  0.00000000000E+00 0. -1.
         11    1    3    3    0    0  0.10821210914E+02  0.10652170479E+01 -0.28361302223E+02  0.30374277885E+02  0.51100000000E-03 0. -1.
        -11    1    3    3    0    0 -0.77923096304E-01 -0.18638451674E+01 -0.28606914937E+01  0.34151935378E+01  0.51100000000E-03 0.  1.
        -12    1    3    3    0    0  0.63851586017E+01 -0.24395486510E+01  0.38063373256E+02  0.38672238513E+02  0.00000000000E+00 0.  1.
</event>
<event>
 7    1  0.2976321E-013  0.7246161E+02  0.7816164E-02  0.1226708E+00
        -11   -1    0    0    0    0  0.00000000000E+00  0.00000000000E+00  0.45593999997E+02  0.45594000000E+02  0.51100000000E-03 0.  1.
         11   -1    0    0    0    0 -0.00000000000E+00 -0.00000000000E+00 -0.45593999997E+02  0.45594000000E+02  0.51100000000E-03 0. -1.
    9900012    2    1    2    0    0  0.56880526515E+01  0.14289499776E+02  0.10683356790E+02  0.72461605282E+02  0.70000045578E+02 0.  0.
         12    1    1    2    0    0 -0.56880526515E+01 -0.14289499776E+02 -0.10683356790E+02  0.18726394718E+02  0.00000000000E+00 0. -1.
         11    1    3    3    0    0  0.62948317191E+01  0.52664527600E+01  0.10131458857E+02  0.13038669022E+02  0.51100000000E-03 0. -1.
        -11    1    3    3    0    0  0.27006625689E+02 -0.21103568950E+01 -0.83510376231E+01  0.28346979856E+02  0.51100000000E-03 0.  1.
         12    1    3    3    0    0 -0.27613404756E+02  0.11133403911E+02  0.89029355563E+01  0.31075956404E+02  0.00000000000E+00 0. -1.
</event>
<event>
 7    1  0.2976321E-013  0.7246156E+02  0.7816164E-02  0.1226708E+00
        -11   -1    0    0    0    0  0.00000000000E+00  0.00000000000E+00  0.45593999997E+02  0.45594000000E+02  0.51100000000E-03 0. -1.
         11   -1    0    0    0    0 -0.00000000000E+00 -0.00000000000E+00 -0.45593999997E+02  0.45594000000E+02  0.51100000000E-03 0.  1.
    9900012    2    1    2    0    0  0.83831021478E+01  0.89040146326E+01 -0.14181740253E+02  0.72461557871E+02  0.69999983817E+02 0.  0.
         12    1    1    2    0    0 -0.83831021478E+01 -0.89040146326E+01  0.14181740253E+02  0.18726442129E+02  0.00000000000E+00 0. -1.
         11    1    3    3    0    0  0.61573902436E+01 -0.39804043645E+01 -0.37301357611E+01  0.82262376925E+01  0.51100000000E-03 0. -1.
        -11    1    3    3    0    0  0.11287100261E+01  0.22600259413E+02 -0.32796178764E+02  0.39845138394E+02  0.51100000000E-03 0.  1.
         12    1    3    3    0    0  0.10970018781E+01 -0.97158404162E+01  0.22344574272E+02  0.24390181785E+02  0.00000000000E+00 0. -1.
</event>
<event>
 7    1  0.2976321E-013  0.7246145E+02  0.7816164E-02  0.1226708E+00
        -11   -1    0    0    0    0  0.00000000000E+00  0.00000000000E+00  0.45593999997E+02  0.45594000000E+02  0.51100000000E-03 0. -1.
         11   -1    0    0    0    0 -0.00000000000E+00 -0.00000000000E+00 -0.45593999997E+02  0.45594000000E+02  0.51100000000E-03 0.  1.
    9900012    2    1    2    0    0 -0.15055968032E+02 -0.80899547779E+01 -0.76520617358E+01  0.72461452254E+02  0.69999846230E+02 0.  0.
         12    1    1    2    0    0  0.15055968032E+02  0.80899547779E+01  0.76520617358E+01  0.18726547746E+02  0.00000000000E+00 0. -1.
         11    1    3    3    0    0 -0.17142930054E+02 -0.49563863069E+01 -0.54641763186E+01  0.18662878640E+02  0.51100000000E-03 0. -1.
        -11    1    3    3    0    0 -0.17153877252E+01  0.24987948141E+02 -0.39964342476E+01  0.25363587962E+02  0.51100000000E-03 0.  1.
        -12    1    3    3    0    0  0.38023497472E+01 -0.28121516612E+02  0.18085488305E+01  0.28434985652E+02  0.00000000000E+00 0.  1.
</event>
<event>
 7    1  0.2976321E-013  0.7246179E+02  0.7816164E-02  0.1226707E+00
        -11   -1    0    0    0    0  0.00000000000E+00  0.00000000000E+00  0.45593999997E+02  0.45594000000E+02  0.51100000000E-03 0. -1.
         11   -1    0    0    0    0 -0.00000000000E+00 -0.00000000000E+00 -0.45593999997E+02  0.45594000000E+02  0.51100000000E-03 0.  1.
    9900012    2    1    2    0    0  0.14628089186E+02 -0.14963012793E+01  0.11595297085E+02  0.72461793090E+02  0.70000290232E+02 0.  0.
         12    1    1    2    0    0 -0.14628089186E+02  0.14963012793E+01 -0.11595297085E+02  0.18726206910E+02  0.00000000000E+00 0. -1.
         11    1    3    3    0    0 -0.95669007023E+01  0.34128886489E+01  0.35501443595E+01  0.10759968551E+02  0.51100000000E-03 0. -1.
        -11    1    3    3    0    0  0.37553092570E+02  0.67369933893E+01 -0.65904296379E+01  0.38717639450E+02  0.51100000000E-03 0.  1.
         12    1    3    3    0    0 -0.13358102681E+02 -0.11646183318E+02  0.14635582363E+02  0.22984185089E+02  0.00000000000E+00 0. -1.
</event>
<event>
 7    1  0.2976321E-013  0.7246177E+02  0.7816164E-02  0.1226707E+00
        -11   -1    0    0    0    0  0.00000000000E+00  0.00000000000E+00  0.45593999997E+02  0.45594000000E+02  0.51100000000E-03 0.  1.
         11   -1    0    0    0    0 -0.00000000000E+00 -0.00000000000E+00 -0.45593999997E+02  0.45594000000E+02  0.51100000000E-03 0. -1.
    9900012    2    1    2    0    0 -0.18261482409E+01 -0.17553868243E+02  0.62608786059E+01  0.72461769504E+02  0.70000259507E+02 0.  0.
         12    1    1    2    0    0  0.18261482409E+01  0.17553868243E+02 -0.62608786059E+01  0.18726230496E+02  0.00000000000E+00 0. -1.
         11    1    3    3    0    0 -0.76520381296E+01 -0.12692891064E+02 -0.80263441551E+01  0.16854832300E+02  0.51100000000E-03 0. -1.
        -11    1    3    3    0    0 -0.18324718078E+02  0.96634329742E+01 -0.51809796150E+01  0.21354619630E+02  0.51100000000E-03 0.  1.
        -12    1    3    3    0    0  0.24150607967E+02 -0.14524410153E+02  0.19468202376E+02  0.34252317575E+02  0.00000000000E+00 0.  1.
</event>
<event>
 7    1  0.2976321E-013  0.7246185E+02  0.7816164E-02  0.1226707E+00
        -11   -1    0    0    0    0  0.00000000000E+00  0.00000000000E+00  0.45593999997E+02  0.45594000000E+02  0.51100000000E-03 0.  1.
         11   -1    0    0    0    0 -0.00000000000E+00 -0.00000000000E+00 -0.45593999997E+02  0.45594000000E+02  0.51100000000E-03 0. -1.
    9900012    2    1    2    0    0 -0.11637360751E+02  0.10706968993E+02  0.10030029780E+02  0.72461845892E+02  0.70000359016E+02 0.  0.
         12    1    1    2    0    0  0.11637360751E+02 -0.10706968993E+02 -0.10030029780E+02  0.18726154108E+02  0.00000000000E+00 0. -1.
         11    1    3    3    0    0  0.42680341159E+01  0.64390286065E+01  0.39545831451E+01  0.86784752533E+01  0.51100000000E-03 0. -1.
        -11    1    3    3    0    0 -0.15952686643E+02  0.30290547844E+02  0.13377798951E+02  0.36755557469E+02  0.51100000000E-03 0.  1.
        -12    1    3    3    0    0  0.47291776157E-01 -0.26022607457E+02 -0.73023523159E+01  0.27027813170E+02  0.00000000000E+00 0.  1.
</event>
<event>
 7    1  0.2976321E-013  0.7246155E+02  0.7816164E-02  0.1226708E+00
        -11   -1    0    0    0    0  0.00000000000E+00  0.00000000000E+00  0.45593999997E+02  0.45594000000E+02  0.51100000000E-03 0. -1.
         11   -1    0    0    0    0 -0.00000000000E+00 -0.00000000000E+00 -0.45593999997E+02  0.45594000000E+02  0.51100000000E-03 0.  1.
    9900012    2    1    2    0    0 -0.15138861865E+02 -0.90710159547E+01  0.62618979280E+01  0.72461552535E+02  0.69999976865E+02 0.  0.
         12    1    1    2    0    0  0.15138861865E+02  0.90710159547E+01 -0.62618979280E+01  0.18726447465E+02  0.00000000000E+00 0. -1.
         11    1    3    3    0    0  0.24094387412E+02 -0.72088422347E+01  0.55179478839E+01  0.25747905938E+02  0.51100000000E-03 0. -1.
        -11    1    3    3    0    0 -0.23887386016E+01 -0.57644247578E+01  0.67356632656E+01  0.91817114301E+01  0.51100000000E-03 0.  1.
        -12    1    3    3    0    0 -0.36844510674E+02  0.39022510378E+01 -0.59917132215E+01  0.37531935166E+02  0.00000000000E+00 0.  1.
</event>
<event>
 7    1  0.2976321E-013  0.7246158E+02  0.7816164E-02  0.1226708E+00
        -11   -1    0    0    0    0  0.00000000000E+00  0.00000000000E+00  0.45593999997E+02  0.45594000000E+02  0.51100000000E-03 0.  1.
         11   -1    0    0    0    0 -0.00000000000E+00 -0.00000000000E+00 -0.45593999997E+02  0.45594000000E+02  0.51100000000E-03 0. -1.
    9900012    2    1    2    0    0 -0.52347183108E+01  0.17963101666E+02  0.77674069012E+00  0.72461584877E+02  0.70000018997E+02 0.  0.
         12    1    1    2    0    0  0.52347183108E+01 -0.17963101666E+02 -0.77674069012E+00  0.18726415123E+02  0.00000000000E+00 0. -1.
         11    1    3    3    0    0  0.73594618793E+01 -0.33499382088E+01 -0.19644676219E+02  0.21243753651E+02  0.51100000000E-03 0. -1.
        -11    1    3    3    0    0  0.88196589835E+01 -0.61062024479E+01 -0.28647756710E+00  0.10730990755E+02  0.51100000000E-03 0.  1.
         12    1    3    3    0    0 -0.21413839174E+02  0.27419242323E+02  0.20707894477E+02  0.40486840471E+02  0.00000000000E+00 0. -1.
</event>
<event>
 7    1  0.2976321E-013  0.7246154E+02  0.7816164E-02  0.1226708E+00
        -11   -1    0    0    0    0  0.00000000000E+00  0.00000000000E+00  0.45593999997E+02  0.45594000000E+02  0.51100000000E-03 0. -1.
         11   -1    0    0    0    0 -0.00000000000E+00 -0.00000000000E+00 -0.45593999997E+02  0.45594000000E+02  0.51100000000E-03 0.  1.
    9900012    2    1    2    0    0  0.17646980435E+02 -0.58529485100E+01 -0.22376814581E+01  0.72461544301E+02  0.69999966139E+02 0.  0.
         12    1    1    2    0    0 -0.17646980435E+02  0.58529485100E+01  0.22376814581E+01  0.18726455699E+02  0.00000000000E+00 0. -1.
         11    1    3    3    0    0  0.33061383634E+01  0.89284915227E+01  0.81084548299E+01  0.12505820714E+02  0.51100000000E-03 0. -1.
        -11    1    3    3    0    0  0.12834102382E+02  0.17326241164E+02  0.79375437521E+01  0.22976453554E+02  0.51100000000E-03 0.  1.
        -12    1    3    3    0    0  0.15067396896E+01 -0.32107681197E+02 -0.18283680040E+02  0.36979270033E+02  0.00000000000E+00 0.  1.
</event>
<event>
 7    1  0.2976321E-013  0.7246150E+02  0.7816164E-02  0.1226708E+00
        -11   -1    0    0    0    0  0.00000000000E+00  0.00000000000E+00  0.45593999997E+02  0.45594000000E+02  0.51100000000E-03 0. -1.
         11   -1    0    0    0    0 -0.00000000000E+00 -0.00000000000E+00 -0.45593999997E+02  0.45594000000E+02  0.51100000000E-03 0.  1.
    9900012    2    1    2    0    0 -0.32755238941E+01  0.18225638991E+02 -0.27890564335E+01  0.72461499815E+02  0.69999908187E+02 0.  0.
         12    1    1    2    0    0  0.32755238941E+01 -0.18225638991E+02  0.27890564335E+01  0.18726500185E+02  0.00000000000E+00 0. -1.
         11    1    3    3    0    0 -0.68159206867E+01  0.73801528481E+01 -0.67356994108E+01  0.12095167534E+02  0.51100000000E-03 0. -1.
        -11    1    3    3    0    0 -0.19837387715E+02  0.14119642117E+01 -0.18089136821E+02  0.26883684001E+02  0.51100000000E-03 0.  1.
         12    1    3    3    0    0  0.23377784507E+02  0.94335219309E+01  0.22035779798E+02  0.33482648279E+02  0.00000000000E+00 0. -1.
</event>
<event>
 7    1  0.2976321E-013  0.7246158E+02  0.7816164E-02  0.1226708E+00
        -11   -1    0    0    0    0  0.00000000000E+00  0.00000000000E+00  0.45593999997E+02  0.45594000000E+02  0.51100000000E-03 0. -1.
         11   -1    0    0    0    0 -0.00000000000E+00 -0.00000000000E+00 -0.45593999997E+02  0.45594000000E+02  0.51100000000E-03 0.  1.
    9900012    2    1    2    0    0 -0.64392007498E+01  0.95021872043E+01 -0.14796076626E+02  0.72461581456E+02  0.70000014540E+02 0.  0.
         12    1    1    2    0    0  0.64392007498E+01 -0.95021872043E+01  0.14796076626E+02  0.18726418544E+02  0.00000000000E+00 0. -1.
         11    1    3    3    0    0  0.10788934443E+02 -0.86831406436E+01 -0.26085447854E+02  0.29533855622E+02  0.51100000000E-03 0. -1.
        -11    1    3    3    0    0  0.39756047565E+01 -0.64913595001E+01 -0.18596807061E+01  0.78359169169E+01  0.51100000000E-03 0.  1.
         12    1    3    3    0    0 -0.21203739950E+02  0.24676687348E+02  0.13149051934E+02  0.35091808917E+02  0.00000000000E+00 0. -1.
</event>
<event>
 7    1  0.2976321E-013  0.7246122E+02  0.7816164E-02  0.1226709E+00
        -11   -1    0    0    0    0  0.00000000000E+00  0.00000000000E+00  0.45593999997E+02  0.45594000000E+02  0.51100000000E-03 0.  1.
         11   -1    0    0    0    0 -0.00000000000E+00 -0.00000000000E+00 -0.45593999997E+02  0.45594000000E+02  0.51100000000E-03 0. -1.
    9900012    2    1    2    0    0 -0.10039639476E+01  0.18020489814E+02  0.49946088283E+01  0.72461224674E+02  0.69999549764E+02 0.  0.
         12    1    1    2    0    0  0.10039639476E+01 -0.18020489814E+02 -0.49946088283E+01  0.18726775326E+02  0.00000000000E+00 0. -1.
         11    1    3    3    0    0 -0.35641978482E+01 -0.37607042087E+01 -0.10943908992E+02  0.12108490687E+02  0.51100000000E-03 0. -1.
        -11    1    3    3    0    0 -0.20935241948E+02  0.78092163900E+01 -0.82825026288E+01  0.23829982503E+02  0.51100000000E-03 0.  1.
         12    1    3    3    0    0  0.23495475849E+02  0.13971977633E+02  0.24221020449E+02  0.36522751483E+02  0.00000000000E+00 0. -1.
</event>
<event>
 7    1  0.2976321E-013  0.7246155E+02  0.7816164E-02  0.1226708E+00
        -11   -1    0    0    0    0  0.00000000000E+00  0.00000000000E+00  0.45593999997E+02  0.45594000000E+02  0.51100000000E-03 0.  1.
         11   -1    0    0    0    0 -0.00000000000E+00 -0.00000000000E+00 -0.45593999997E+02  0.45594000000E+02  0.51100000000E-03 0. -1.
    9900012    2    1    2    0    0 -0.10048657732E+02  0.11361456634E+02  0.10982799122E+02  0.72461545568E+02  0.69999967789E+02 0.  0.
         12    1    1    2    0    0  0.10048657732E+02 -0.11361456634E+02 -0.10982799122E+02  0.18726454432E+02  0.00000000000E+00 0. -1.
         11    1    3    3    0    0 -0.93275272119E+01  0.11086300789E+01 -0.10866017108E+02  0.14363222222E+02  0.51100000000E-03 0. -1.
        -11    1    3    3    0    0 -0.22065984346E+02  0.14233013660E+02 -0.13894883775E+01  0.26294809777E+02  0.51100000000E-03 0.  1.
        -12    1    3    3    0    0  0.21344853827E+02 -0.39801871045E+01  0.23238304607E+02  0.31803513568E+02  0.00000000000E+00 0.  1.
</event>
<event>
 7    1  0.2976321E-013  0.7246158E+02  0.7816164E-02  0.1226708E+00
        -11   -1    0    0    0    0  0.00000000000E+00  0.00000000000E+00  0.45593999997E+02  0.45594000000E+02  0.51100000000E-03 0. -1.
         11   -1    0    0    0    0 -0.00000000000E+00 -0.00000000000E+00 -0.45593999997E+02  0.45594000000E+02  0.51100000000E-03 0.  1.
    9900012    2    1    2    0    0 -0.24791504912E+01 -0.17007040036E+02  0.74359331113E+01  0.72461582852E+02  0.70000016359E+02 0.  0.
         12    1    1    2    0    0  0.24791504912E+01  0.17007040036E+02 -0.74359331113E+01  0.18726417148E+02  0.00000000000E+00 0. -1.
         11    1    3    3    0    0  0.16355129099E+02  0.33456164751E+01  0.94328221609E+01  0.19174502122E+02  0.51100000000E-03 0. -1.
        -11    1    3    3    0    0  0.12981830679E+02 -0.73718438622E+01 -0.10046490044E+02  0.17994553959E+02  0.51100000000E-03 0.  1.
        -12    1    3    3    0    0 -0.31816110270E+02 -0.12980812649E+02  0.80496009942E+01  0.35292526771E+02  0.00000000000E+00 0.  1.
</event>
<event>
 7    1  0.2976321E-013  0.7246164E+02  0.7816164E-02  0.1226708E+00
        -11   -1    0    0    0    0  0.00000000000E+00  0.00000000000E+00  0.45593999997E+02  0.45594000000E+02  0.51100000000E-03 0.  1.
         11   -1    0    0    0    0 -0.00000000000E+00 -0.00000000000E+00 -0.45593999997E+02  0.45594000000E+02  0.51100000000E-03 0. -1.
    9900012    2    1    2    0    0 -0.18674113510E+02 -0.13525076234E+01  0.35348066945E+00  0.72461635141E+02  0.70000084475E+02 0.  0.
         12    1    1    2    0    0  0.18674113510E+02  0.13525076234E+01 -0.35348066945E+00  0.18726364859E+02  0.00000000000E+00 0. -1.
         11    1    3    3    0    0 -0.21135019207E+01  0.49760333208E+01  0.24726135132E+02  0.25310265839E+02  0.51100000000E-03 0. -1.
        -11    1    3    3    0    0  0.11310203197E+02  0.10483272814E+01 -0.89078042182E+01  0.14434980523E+02  0.51100000000E-03 0.  1.
         12    1    3    3    0    0 -0.27870814786E+02 -0.73768682256E+01 -0.15464850245E+02  0.32716388779E+02  0.00000000000E+00 0. -1.
</event>
<event>
 7    1  0.2976321E-013  0.7246156E+02  0.7816164E-02  0.1226708E+00
        -11   -1    0    0    0    0  0.00000000000E+00  0.00000000000E+00  0.45593999997E+02  0.45594000000E+02  0.51100000000E-03 0. -1.
         11   -1    0    0    0    0 -0.00000000000E+00 -0.00000000000E+00 -0.45593999997E+02  0.45594000000E+02  0.51100000000E-03 0.  1.
    9900012    2    1    2    0    0  0.11774555642E+02  0.11578645396E+02  0.88303054009E+01  0.72461561917E+02  0.69999989087E+02 0.  0.
         12    1    1    2    0    0 -0.11774555642E+02 -0.11578645396E+02 -0.88303054009E+01  0.18726438083E+02  0.00000000000E+00 0. -1.
         11    1    3    3    0    0  0.29252135896E+02 -0.59206735592E+01 -0.94874178732E+01  0.31316975078E+02  0.51100000000E-03 0. -1.
        -11    1    3    3    0    0  0.29638976051E+01 -0.22684367281E+01  0.11236196892E+02  0.11839873946E+02  0.51100000000E-03 0.  1.
        -12    1    3    3    0    0 -0.20441477859E+02  0.19767755684E+02  0.70815263825E+01  0.29304712893E+02  0.00000000000E+00 0.  1.
</event>
<event>
 7    1  0.2976321E-013  0.7246160E+02  0.7816164E-02  0.1226708E+00
        -11   -1    0    0    0    0  0.00000000000E+00  0.00000000000E+00  0.45593999997E+02  0.45594000000E+02  0.51100000000E-03 0.  1.
         11   -1    0    0    0    0 -0.00000000000E+00 -0.00000000000E+00 -0.45593999997E+02  0.45594000000E+02  0.51100000000E-03 0. -1.
    9900012    2    1    2    0    0  0.85301595006E+01  0.12330248633E+02  0.11219595663E+02  0.72461602073E+02  0.70000041398E+02 0.  0.
         12    1    1    2    0    0 -0.85301595006E+01 -0.12330248633E+02 -0.11219595663E+02  0.18726397927E+02  0.00000000000E+00 0. -1.
         11    1    3    3    0    0 -0.63494566496E+01 -0.23179245130E+01 -0.23681158405E+02  0.24626929112E+02  0.51100000000E-03 0. -1.
        -11    1    3    3    0    0 -0.45386987386E+01  0.55304257759E+01  0.34647082250E+00  0.71627814286E+01  0.51100000000E-03 0.  1.
        -12    1    3    3    0    0  0.19418314889E+02  0.91177473702E+01  0.34554283246E+02  0.40671891533E+02  0.00000000000E+00 0.  1.
</event>
<event>
 7    1  0.2976321E-013  0.7246153E+02  0.7816164E-02  0.1226708E+00
        -11   -1    0    0    0    0  0.00000000000E+00  0.00000000000E+00  0.45593999997E+02  0.45594000000E+02  0.51100000000E-03 0.  1.
         11   -1    0    0    0    0 -0.00000000000E+00 -0.00000000000E+00 -0.45593999997E+02  0.45594000000E+02  0.51100000000E-03 0. -1.
    9900012    2    1    2    0    0 -0.74623532805E+01  0.13492174523E+02 -0.10628030651E+02  0.72461534093E+02  0.69999952841E+02 0.  0.
         12    1    1    2    0    0  0.74623532805E+01 -0.13492174523E+02  0.10628030651E+02  0.18726465907E+02  0.00000000000E+00 0. -1.
         11    1    3    3    0    0 -0.24656147137E+02  0.67885815907E+01 -0.56972741494E+00  0.25579973050E+02  0.51100000000E-03 0. -1.
        -11    1    3    3    0    0 -0.47187709090E+01  0.12037752925E+02  0.10275795627E+02  0.16515637148E+02  0.51100000000E-03 0.  1.
         12    1    3    3    0    0  0.21912564765E+02 -0.53341599931E+01 -0.20334098863E+02  0.30365923895E+02  0.00000000000E+00 0. -1.
</event>
<event>
 7    1  0.2976321E-013  0.7246155E+02  0.7816164E-02  0.1226708E+00
        -11   -1    0    0    0    0  0.00000000000E+00  0.00000000000E+00  0.45593999997E+02  0.45594000000E+02  0.51100000000E-03 0. -1.
         11   -1    0    0    0    0 -0.00000000000E+00 -0.00000000000E+00 -0.45593999997E+02  0.45594000000E+02  0.51100000000E-03 0.  1.
    9900012    2    1    2    0    0  0.11618228421E+02  0.14682974142E+02 -0.32697051243E+00  0.72461551564E+02  0.69999975601E+02 0.  0.
         12    1    1    2    0    0 -0.11618228421E+02 -0.14682974142E+02  0.32697051243E+00  0.18726448436E+02  0.00000000000E+00 0. -1.
         11    1    3    3    0    0  0.85349160716E+00 -0.20870727540E+01  0.22056520230E+01  0.31542386897E+01  0.51100000000E-03 0. -1.
        -11    1    3    3    0    0 -0.18769588013E+02  0.31128127716E+02 -0.29129280721E+01  0.36465640260E+02  0.51100000000E-03 0.  1.
         12    1    3    3    0    0  0.29534324827E+02 -0.14358080820E+02  0.38030553668E+00  0.32841672615E+02  0.00000000000E+00 0. -1.
</event>
<event>
 7    1  0.2976321E-013  0.7246157E+02  0.7816164E-02  0.1226708E+00
        -11   -1    0    0    0    0  0.00000000000E+00  0.00000000000E+00  0.45593999997E+02  0.45594000000E+02  0.51100000000E-03 0.  1.
         11   -1    0    0    0    0 -0.00000000000E+00 -0.00000000000E+00 -0.45593999997E+02  0.45594000000E+02  0.51100000000E-03 0. -1.
    9900012    2    1    2    0    0  0.92089477092E+01 -0.16274194675E+02 -0.10125175138E+01  0.72461566224E+02  0.69999994698E+02 0.  0.
         12    1    1    2    0    0 -0.92089477092E+01  0.16274194675E+02  0.10125175138E+01  0.18726433776E+02  0.00000000000E+00 0. -1.
         11    1    3    3    0    0  0.11410079251E+01 -0.15089594287E+02 -0.16284338453E+02  0.22230101978E+02  0.51100000000E-03 0. -1.
        -11    1    3    3    0    0  0.82145570811E+01 -0.21198072006E+02 -0.32462373525E+01  0.22964652447E+02  0.51100000000E-03 0.  1.
         12    1    3    3    0    0 -0.14661729702E+00  0.20013471618E+02  0.18518058292E+02  0.27266811800E+02  0.00000000000E+00 0. -1.
</event>
<event>
 7    1  0.3868854E-013  0.7246157E+02  0.7816164E-02  0.1226708E+00
        -11   -1    0    0    0    0  0.00000000000E+00  0.00000000000E+00  0.45593999997E+02  0.45594000000E+02  0.51100000000E-03 0. -1.
         11   -1    0    0    0    0 -0.00000000000E+00 -0.00000000000E+00 -0.45593999997E+02  0.45594000000E+02  0.51100000000E-03 0.  1.
    9900012    2    1    2    0    0  0.74277759717E+01 -0.52617246669E+01 -0.16365258314E+02  0.72461567290E+02  0.69999996086E+02 0.  0.
         12    1    1    2    0    0 -0.74277759717E+01  0.52617246669E+01  0.16365258314E+02  0.18726432710E+02  0.00000000000E+00 0. -1.
         11    1    3    3    0    0  0.20446933412E+02 -0.13613489250E+01  0.10539303458E+02  0.23043595086E+02  0.51100000000E-03 0. -1.
        -11    1    3    3    0    0 -0.15821128973E+02  0.96613793574E+01  0.68233848636E+00  0.18550362776E+02  0.51100000000E-03 0.  1.
        -12    1    3    3    0    0  0.28019715324E+01 -0.13561755099E+02 -0.27586900259E+02  0.30867609427E+02  0.00000000000E+00 0.  1.
</event>
<event>
 7    1  0.2976321E-013  0.7246152E+02  0.7816164E-02  0.1226708E+00
        -11   -1    0    0    0    0  0.00000000000E+00  0.00000000000E+00  0.45593999997E+02  0.45594000000E+02  0.51100000000E-03 0.  1.
         11   -1    0    0    0    0 -0.00000000000E+00 -0.00000000000E+00 -0.45593999997E+02  0.45594000000E+02  0.51100000000E-03 0. -1.
    9900012    2    1    2    0    0  0.14915051897E+02 -0.11321290191E+02 -0.22505964153E+00  0.72461520445E+02  0.69999935062E+02 0.  0.
         12    1    1    2    0    0 -0.14915051897E+02  0.11321290191E+02  0.22505964153E+00  0.18726479555E+02  0.00000000000E+00 0. -1.
         11    1    3    3    0    0  0.16751144149E+01 -0.42562876062E+01 -0.26191380606E+02  0.26587786873E+02  0.51100000000E-03 0. -1.
        -11    1    3    3    0    0 -0.79875740111E+01  0.64301540889E+01  0.78966281667E+00  0.10284541206E+02  0.51100000000E-03 0.  1.
        -12    1    3    3    0    0  0.21227511493E+02 -0.13495156673E+02  0.25176658148E+02  0.35589192367E+02  0.00000000000E+00 0.  1.
</event>
<event>
 7    1  0.2976321E-013  0.7246157E+02  0.7816164E-02  0.1226708E+00
        -11   -1    0    0    0    0  0.00000000000E+00  0.00000000000E+00  0.45593999997E+02  0.45594000000E+02  0.51100000000E-03 0.  1.
         11   -1    0    0    0    0 -0.00000000000E+00 -0.00000000000E+00 -0.45593999997E+02  0.45594000000E+02  0.51100000000E-03 0. -1.
    9900012    2    1    2    0    0  0.42491911482E+01 -0.17991472943E+02  0.29883645881E+01  0.72461573566E+02  0.70000004262E+02 0.  0.
         12    1    1    2    0    0 -0.42491911482E+01  0.17991472943E+02 -0.29883645881E+01  0.18726426434E+02  0.00000000000E+00 0. -1.
         11    1    3    3    0    0  0.74047219017E+01 -0.20280621542E+01 -0.69928544244E+01  0.10384746304E+02  0.51100000000E-03 0. -1.
        -11    1    3    3    0    0 -0.14367054427E+02 -0.32597398364E+02  0.18666812855E+02  0.40217565011E+02  0.51100000000E-03 0.  1.
         12    1    3    3    0    0  0.11211523674E+02  0.16633987575E+02 -0.86855938422E+01  0.21859262250E+02  0.00000000000E+00 0. -1.
</event>
<event>
 7    1  0.2976321E-013  0.7246165E+02  0.7816164E-02  0.1226708E+00
        -11   -1    0    0    0    0  0.00000000000E+00  0.00000000000E+00  0.45593999997E+02  0.45594000000E+02  0.51100000000E-03 0. -1.
         11   -1    0    0    0    0 -0.00000000000E+00 -0.00000000000E+00 -0.45593999997E+02  0.45594000000E+02  0.51100000000E-03 0.  1.
    9900012    2    1    2    0    0 -0.16627711297E+02 -0.66578248337E+01  0.54652294329E+01  0.72461650990E+02  0.70000105121E+02 0.  0.
         12    1    1    2    0    0  0.16627711297E+02  0.66578248337E+01 -0.54652294329E+01  0.18726349010E+02  0.00000000000E+00 0. -1.
         11    1    3    3    0    0 -0.95357326107E+01  0.79404997812E+01  0.55064607812E+01  0.13575818347E+02  0.51100000000E-03 0. -1.
        -11    1    3    3    0    0 -0.22887382733E+02 -0.13890048025E+02 -0.20003683278E+02  0.33420249363E+02  0.51100000000E-03 0.  1.
         12    1    3    3    0    0  0.15795404047E+02 -0.70827658951E+00  0.19962451930E+02  0.25465583280E+02  0.00000000000E+00 0. -1.
</event>
<event>
 7    1  0.2976321E-013  0.7246155E+02  0.7816164E-02  0.1226708E+00
        -11   -1    0    0    0    0  0.00000000000E+00  0.00000000000E+00  0.45593999997E+02  0.45594000000E+02  0.51100000000E-03 0.  1.
         11   -1    0    0    0    0 -0.00000000000E+00 -0.00000000000E+00 -0.45593999997E+02  0.45594000000E+02  0.51100000000E-03 0. -1.
    9900012    2    1    2    0    0  0.10973014834E+02  0.10118540845E+02  0.11308749941E+02  0.72461554833E+02  0.69999979859E+02 0.  0.
         12    1    1    2    0    0 -0.10973014834E+02 -0.10118540845E+02 -0.11308749941E+02  0.18726445167E+02  0.00000000000E+00 0. -1.
         11    1    3    3    0    0  0.76018360167E+00  0.12340790974E+02  0.21399891659E+02  0.24714942125E+02  0.51100000000E-03 0. -1.
        -11    1    3    3    0    0  0.72913674594E+01 -0.39159030306E-01  0.17999460442E+02  0.19420251011E+02  0.51100000000E-03 0.  1.
         12    1    3    3    0    0  0.29214637725E+01 -0.21830910993E+01 -0.28090602160E+02  0.28326361697E+02  0.00000000000E+00 0. -1.
</event>
<event>
 7    1  0.2976321E-013  0.7246154E+02  0.7816164E-02  0.1226708E+00
        -11   -1    0    0    0    0  0.00000000000E+00  0.00000000000E+00  0.45593999997E+02  0.45594000000E+02  0.51100000000E-03 0.  1.
         11   -1    0    0    0    0 -0.00000000000E+00 -0.00000000000E+00 -0.45593999997E+02  0.45594000000E+02  0.51100000000E-03 0. -1.
    9900012    2    1    2    0    0  0.71608349900E+01  0.31687464842E+01  0.17010642420E+02  0.72461535636E+02  0.69999954851E+02 0.  0.
         12    1    1    2    0    0 -0.71608349900E+01 -0.31687464842E+01 -0.17010642420E+02  0.18726464364E+02  0.00000000000E+00 0. -1.
         11    1    3    3    0    0  0.19882982987E+02  0.20319684932E+02  0.14446456244E+01  0.28465937705E+02  0.51100000000E-03 0. -1.
        -11    1    3    3    0    0  0.23333712045E+01 -0.18579842210E+02 -0.41175875224E+01  0.19173150106E+02  0.51100000000E-03 0.  1.
        -12    1    3    3    0    0 -0.15055519201E+02  0.14289037626E+01  0.19683584318E+02  0.24822447825E+02  0.00000000000E+00 0.  1.
</event>
<event>
 7    1  0.2976321E-013  0.7246170E+02  0.7816164E-02  0.1226708E+00
        -11   -1    0    0    0    0  0.00000000000E+00  0.00000000000E+00  0.45593999997E+02  0.45594000000E+02  0.51100000000E-03 0.  1.
         11   -1    0    0    0    0 -0.00000000000E+00 -0.00000000000E+00 -0.45593999997E+02  0.45594000000E+02  0.51100000000E-03 0. -1.
    9900012    2    1    2    0    0  0.32221862352E+01 -0.13170508121E+02  0.12916250803E+02  0.72461700229E+02  0.70000169264E+02 0.  0.
         12    1    1    2    0    0 -0.32221862352E+01  0.13170508121E+02 -0.12916250803E+02  0.18726299771E+02  0.00000000000E+00 0. -1.
         11    1    3    3    0    0  0.29344448026E+01 -0.77779692723E+01 -0.47998550480E+01  0.95992906531E+01  0.51100000000E-03 0. -1.
        -11    1    3    3    0    0 -0.16014201995E+02 -0.16299362066E+02  0.31481494540E+02  0.38899979024E+02  0.51100000000E-03 0.  1.
         12    1    3    3    0    0  0.16301943427E+02  0.10906823218E+02 -0.13765388690E+02  0.23962430553E+02  0.00000000000E+00 0. -1.
</event>
<event>
 7    1  0.2976321E-013  0.7246157E+02  0.7816164E-02  0.1226708E+00
        -11   -1    0    0    0    0  0.00000000000E+00  0.00000000000E+00  0.45593999997E+02  0.45594000000E+02  0.51100000000E-03 0.  1.
         11   -1    0    0    0    0 -0.00000000000E+00 -0.00000000000E+00 -0.45593999997E+02  0.45594000000E+02  0.51100000000E-03 0. -1.
    9900012    2    1    2    0    0  0.45947103599E+01 -0.17280199511E+02 -0.55643865230E+01  0.72461573331E+02  0.70000003956E+02 0.  0.
         12    1    1    2    0    0 -0.45947103599E+01  0.17280199511E+02  0.55643865230E+01  0.18726426669E+02  0.00000000000E+00 0. -1.
         11    1    3    3    0    0 -0.26611296988E+01 -0.75197093105E+01 -0.40429103652E+01  0.89427492344E+01  0.51100000000E-03 0. -1.
        -11    1    3    3    0    0  0.13523002830E+01  0.22412820552E+02 -0.16178159599E+02  0.27674827722E+02  0.51100000000E-03 0.  1.
         12    1    3    3    0    0  0.59035397757E+01 -0.32173310752E+02  0.14656683441E+02  0.35843996375E+02  0.00000000000E+00 0. -1.
</event>
<event>
 7    1  0.2976321E-013  0.7246157E+02  0.7816164E-02  0.1226708E+00
        -11   -1    0    0    0    0  0.00000000000E+00  0.00000000000E+00  0.45593999997E+02  0.45594000000E+02  0.51100000000E-03 0.  1.
         11   -1    0    0    0    0 -0.00000000000E+00 -0.00000000000E+00 -0.45593999997E+02  0.45594000000E+02  0.51100000000E-03 0. -1.
    9900012    2    1    2    0    0  0.18259975667E+02  0.39988391204E+01  0.11232318743E+01  0.72461572805E+02  0.70000003270E+02 0.  0.
         12    1    1    2    0    0 -0.18259975667E+02 -0.39988391204E+01 -0.11232318743E+01  0.18726427195E+02  0.00000000000E+00 0. -1.
         11    1    3    3    0    0 -0.91528563612E+01 -0.18305919787E+02 -0.90641445600E+01  0.22383927173E+02  0.51100000000E-03 0. -1.
        -11    1    3    3    0    0  0.52706116200E+01 -0.46980862523E+01 -0.80286960211E+01  0.10691647270E+02  0.51100000000E-03 0.  1.
        -12    1    3    3    0    0  0.22142220408E+02  0.27002845159E+02  0.18216072455E+02  0.39385998362E+02  0.00000000000E+00 0.  1.
</event>
<event>
 7    1  0.2976321E-013  0.7246156E+02  0.7816164E-02  0.1226708E+00
        -11   -1    0    0    0    0  0.00000000000E+00  0.00000000000E+00  0.45593999997E+02  0.45594000000E+02  0.51100000000E-03 0.  1.
         11   -1    0    0    0    0 -0.00000000000E+00 -0.00000000000E+00 -0.45593999997E+02  0.45594000000E+02  0.51100000000E-03 0. -1.
    9900012    2    1    2    0    0  0.76863107805E+01 -0.53998788199E+01  0.16200051202E+02  0.72461555499E+02  0.69999980726E+02 0.  0.
         12    1    1    2    0    0 -0.76863107805E+01  0.53998788199E+01 -0.16200051202E+02  0.18726444501E+02  0.00000000000E+00 0. -1.
         11    1    3    3    0    0 -0.63548346020E+01 -0.16446412761E+02  0.75130986049E+01  0.19165465464E+02  0.51100000000E-03 0. -1.
        -11    1    3    3    0    0 -0.29487458958E+01  0.21517653181E+02  0.20698980533E+02  0.30002538161E+02  0.51100000000E-03 0.  1.
        -12    1    3    3    0    0  0.16989891278E+02 -0.10471119239E+02 -0.12012027935E+02  0.23293551874E+02  0.00000000000E+00 0.  1.
</event>
<event>
 7    1  0.2976321E-013  0.7246168E+02  0.7816164E-02  0.1226708E+00
        -11   -1    0    0    0    0  0.00000000000E+00  0.00000000000E+00  0.45593999997E+02  0.45594000000E+02  0.51100000000E-03 0. -1.
         11   -1    0    0    0    0 -0.00000000000E+00 -0.00000000000E+00 -0.45593999997E+02  0.45594000000E+02  0.51100000000E-03 0.  1.
    9900012    2    1    2    0    0  0.16345223208E+01 -0.10715641959E+01 -0.18624045164E+02  0.72461682387E+02  0.70000146022E+02 0.  0.
         12    1    1    2    0    0 -0.16345223208E+01  0.10715641959E+01  0.18624045164E+02  0.18726317613E+02  0.00000000000E+00 0. -1.
         11    1    3    3    0    0  0.14922984363E+02  0.26648613904E+01 -0.29521853098E+01  0.15443844952E+02  0.51100000000E-03 0. -1.
        -11    1    3    3    0    0  0.46883167994E+01  0.22456319291E+02 -0.47712849238E+01  0.23431426559E+02  0.51100000000E-03 0.  1.
         12    1    3    3    0    0 -0.17976778842E+02 -0.26192744877E+02 -0.10900574931E+02  0.33586410876E+02  0.00000000000E+00 0. -1.
</event>
<event>
 7    1  0.2976321E-013  0.7246168E+02  0.7816164E-02  0.1226708E+00
        -11   -1    0    0    0    0  0.00000000000E+00  0.00000000000E+00  0.45593999997E+02  0.45594000000E+02  0.51100000000E-03 0.  1.
         11   -1    0    0    0    0 -0.00000000000E+00 -0.00000000000E+00 -0.45593999997E+02  0.45594000000E+02  0.51100000000E-03 0. -1.
    9900012    2    1    2    0    0  0.39270308083E+01 -0.15647367736E+02  0.95085888035E+01  0.72461682982E+02  0.70000146796E+02 0.  0.
         12    1    1    2    0    0 -0.39270308083E+01  0.15647367736E+02 -0.95085888035E+01  0.18726317018E+02  0.00000000000E+00 0. -1.
         11    1    3    3    0    0  0.13432166122E+02 -0.25272078352E+01 -0.20488988202E+02  0.24629423541E+02  0.51100000000E-03 0. -1.
        -11    1    3    3    0    0 -0.12693089287E+02 -0.14087975003E+02  0.13707550929E+01  0.19012220415E+02  0.51100000000E-03 0.  1.
        -12    1    3    3    0    0  0.31879539732E+01  0.96781510234E+00  0.28626821913E+02  0.28820039026E+02  0.00000000000E+00 0.  1.
</event>
<event>
 7    1  0.2976321E-013  0.7246157E+02  0.7816164E-02  0.1226708E+00
        -11   -1    0    0    0    0  0.00000000000E+00  0.00000000000E+00  0.45593999997E+02  0.45594000000E+02  0.51100000000E-03 0. -1.
         11   -1    0    0    0    0 -0.00000000000E+00 -0.00000000000E+00 -0.45593999997E+02  0.45594000000E+02  0.51100000000E-03 0.  1.
    9900012    2    1    2    0    0 -0.87094418674E+01 -0.15109433065E+02 -0.68212849038E+01  0.72461567533E+02  0.69999996403E+02 0.  0.
         12    1    1    2    0    0  0.87094418674E+01  0.15109433065E+02  0.68212849038E+01  0.18726432467E+02  0.00000000000E+00 0. -1.
         11    1    3    3    0    0 -0.73782667464E+01 -0.11388999635E+02  0.82292429452E+01  0.15870367752E+02  0.51100000000E-03 0. -1.
        -11    1    3    3    0    0 -0.26194620870E+02 -0.41138837474E+01 -0.17241454464E+02  0.31628309382E+02  0.51100000000E-03 0.  1.
         12    1    3    3    0    0  0.24863445749E+02  0.39345031741E+00  0.21909266153E+01  0.24962890400E+02  0.00000000000E+00 0. -1.
</event>
<event>
 7    1  0.2976321E-013  0.7246161E+02  0.7816164E-02  0.1226708E+00
        -11   -1    0    0    0    0  0.00000000000E+00  0.00000000000E+00  0.45593999997E+02  0.45594000000E+02  0.51100000000E-03 0.  1.
         11   -1    0    0    0    0 -0.00000000000E+00 -0.00000000000E+00 -0.45593999997E+02  0.45594000000E+02  0.51100000000E-03 0. -1.
    9900012    2    1    2    0    0  0.12766721458E+02  0.54631401457E+01  0.12563541693E+02  0.72461610682E+02  0.70000052612E+02 0.  0.
         12    1    1    2    0    0 -0.12766721458E+02 -0.54631401457E+01 -0.12563541693E+02  0.18726389318E+02  0.00000000000E+00 0. -1.
         11    1    3    3    0    0  0.13211451751E+01 -0.21832655220E+02 -0.60704156925E+01  0.22699343723E+02  0.51100000000E-03 0. -1.
        -11    1    3    3    0    0  0.57536961354E+01 -0.78881013230E+01  0.78418701155E+01  0.12522862647E+02  0.51100000000E-03 0.  1.
        -12    1    3    3    0    0  0.56918801472E+01  0.35183896689E+02  0.10792087270E+02  0.37239404311E+02  0.00000000000E+00 0.  1.
</event>
<event>
 7    1  0.2976321E-013  0.7246159E+02  0.7816164E-02  0.1226708E+00
        -11   -1    0    0    0    0  0.00000000000E+00  0.00000000000E+00  0.45593999997E+02  0.45594000000E+02  0.51100000000E-03 0. -1.
         11   -1    0    0    0    0 -0.00000000000E+00 -0.00000000000E+00 -0.45593999997E+02  0.45594000000E+02  0.51100000000E-03 0.  1.
    9900012    2    1    2    0    0 -0.68850927072E+01  0.75889500408E+01 -0.15674237550E+02  0.72461591186E+02  0.70000027215E+02 0.  0.
         12    1    1    2    0    0  0.68850927072E+01 -0.75889500408E+01  0.15674237550E+02  0.18726408814E+02  0.00000000000E+00 0. -1.
         11    1    3    3    0    0 -0.11749143339E+02  0.26247159306E+01 -0.20937005099E+02  0.24151390968E+02  0.51100000000E-03 0. -1.
        -11    1    3    3    0    0  0.21253331199E+02  0.23707898470E+01 -0.11870593614E+02  0.24458857794E+02  0.51100000000E-03 0.  1.
         12    1    3    3    0    0 -0.16389280568E+02  0.25934442633E+01  0.17133361163E+02  0.23851342424E+02  0.00000000000E+00 0. -1.
</event>
<event>
 7    1  0.2976321E-013  0.7246172E+02  0.7816164E-02  0.1226708E+00
        -11   -1    0    0    0    0  0.00000000000E+00  0.00000000000E+00  0.45593999997E+02  0.45594000000E+02  0.51100000000E-03 0. -1.
         11   -1    0    0    0    0 -0.00000000000E+00 -0.00000000000E+00 -0.45593999997E+02  0.45594000000E+02  0.51100000000E-03 0.  1.
    9900012    2    1    2    0    0 -0.10592854471E+02 -0.13292587997E+02 -0.78595298447E+01  0.72461717110E+02  0.70000191254E+02 0.  0.
         12    1    1    2    0    0  0.10592854471E+02  0.13292587997E+02  0.78595298447E+01  0.18726282890E+02  0.00000000000E+00 0. -1.
         11    1    3    3    0    0  0.14466603943E+02 -0.11005997193E+02  0.82858562230E+01  0.19976736907E+02  0.51100000000E-03 0. -1.
        -11    1    3    3    0    0  0.46651085189E+01 -0.20131260088E+01  0.11071266206E+02  0.12181496192E+02  0.51100000000E-03 0.  1.
        -12    1    3    3    0    0 -0.29724566933E+02 -0.27346479573E+00 -0.27216652273E+02  0.40303484010E+02  0.00000000000E+00 0.  1.
</event>
<event>
 7    1  0.2976321E-013  0.7246156E+02  0.7816164E-02  0.1226708E+00
        -11   -1    0    0    0    0  0.00000000000E+00  0.00000000000E+00  0.45593999997E+02  0.45594000000E+02  0.51100000000E-03 0.  1.
         11   -1    0    0    0    0 -0.00000000000E+00 -0.00000000000E+00 -0.45593999997E+02  0.45594000000E+02  0.51100000000E-03 0. -1.
    9900012    2    1    2    0    0  0.12722230918E+02  0.12192831082E+02 -0.63371395256E+01  0.72461558088E+02  0.69999984098E+02 0.  0.
         12    1    1    2    0    0 -0.12722230918E+02 -0.12192831082E+02  0.63371395256E+01  0.18726441912E+02  0.00000000000E+00 0. -1.
         11    1    3    3    0    0  0.13158314239E+02 -0.25548711511E+01  0.10649578220E+02  0.17119641256E+02  0.51100000000E-03 0. -1.
        -11    1    3    3    0    0  0.15987607217E+02  0.21725786698E+02  0.45688038030E+01  0.27358497046E+02  0.51100000000E-03 0.  1.
         12    1    3    3    0    0 -0.16423690538E+02 -0.69780844645E+01 -0.21555521549E+02  0.27983419786E+02  0.00000000000E+00 0. -1.
</event>
<event>
 7    1  0.2976321E-013  0.7246160E+02  0.7816164E-02  0.1226708E+00
        -11   -1    0    0    0    0  0.00000000000E+00  0.00000000000E+00  0.45593999997E+02  0.45594000000E+02  0.51100000000E-03 0. -1.
         11   -1    0    0    0    0 -0.00000000000E+00 -0.00000000000E+00 -0.45593999997E+02  0.45594000000E+02  0.51100000000E-03 0.  1.
    9900012    2    1    2    0    0 -0.15319800318E+02  0.67782062950E+01  0.83688566812E+01  0.72461598196E+02  0.70000036347E+02 0.  0.
         12    1    1    2    0    0  0.15319800318E+02 -0.67782062950E+01 -0.83688566812E+01  0.18726401804E+02  0.00000000000E+00 0. -1.
         11    1    3    3    0    0 -0.18953044336E+02  0.26989388684E+02  0.15239717634E+02  0.36330345236E+02  0.51100000000E-03 0. -1.
        -11    1    3    3    0    0  0.88317268964E+01  0.12198441789E+01  0.58588708937E+01  0.10668354522E+02  0.51100000000E-03 0.  1.
        -12    1    3    3    0    0 -0.51984828789E+01 -0.21431026568E+02 -0.12729731847E+02  0.25462898438E+02  0.00000000000E+00 0.  1.
</event>
<event>
 7    1  0.2976321E-013  0.7246157E+02  0.7816164E-02  0.1226708E+00
        -11   -1    0    0    0    0  0.00000000000E+00  0.00000000000E+00  0.45593999997E+02  0.45594000000E+02  0.51100000000E-03 0.  1.
         11   -1    0    0    0    0 -0.00000000000E+00 -0.00000000000E+00 -0.45593999997E+02  0.45594000000E+02  0.51100000000E-03 0. -1.
    9900012    2    1    2    0    0 -0.41963732139E+01 -0.18143424730E+02 -0.19712434305E+01  0.72461569220E+02  0.69999998600E+02 0.  0.
         12    1    1    2    0    0  0.41963732139E+01  0.18143424730E+02  0.19712434305E+01  0.18726430780E+02  0.00000000000E+00 0. -1.
         11    1    3    3    0    0 -0.56992283397E+01 -0.26783198999E+02 -0.43214551843E+01  0.27721759098E+02  0.51100000000E-03 0. -1.
        -11    1    3    3    0    0 -0.15690145067E+01 -0.11809682302E+02  0.16010300109E+02  0.19956455407E+02  0.51100000000E-03 0.  1.
         12    1    3    3    0    0  0.30718696326E+01  0.20449456570E+02 -0.13660088355E+02  0.24783354715E+02  0.00000000000E+00 0. -1.
</event>
<event>
 7    1  0.2976321E-013  0.7246159E+02  0.7816164E-02  0.1226708E+00
        -11   -1    0    0    0    0  0.00000000000E+00  0.00000000000E+00  0.45593999997E+02  0.45594000000E+02  0.51100000000E-03 0.  1.
         11   -1    0    0    0    0 -0.00000000000E+00 -0.00000000000E+00 -0.45593999997E+02  0.45594000000E+02  0.51100000000E-03 0. -1.
    9900012    2    1    2    0    0 -0.31837274537E+01  0.14021456372E+02  0.11997546824E+02  0.72461588462E+02  0.70000023667E+02 0.  0.
         12    1    1    2    0    0  0.31837274537E+01 -0.14021456372E+02 -0.11997546824E+02  0.18726411538E+02  0.00000000000E+00 0. -1.
         11    1    3    3    0    0  0.15364422015E+02  0.94972848817E+01 -0.13534631673E+02  0.22571002165E+02  0.51100000000E-03 0. -1.
        -11    1    3    3    0    0 -0.53568098238E+01 -0.15077132875E+02  0.13105371203E+01  0.16054060391E+02  0.51100000000E-03 0.  1.
        -12    1    3    3    0    0 -0.13191339645E+02  0.19601304365E+02  0.24221641377E+02  0.33836525906E+02  0.00000000000E+00 0.  1.
</event>
<event>
 7    1  0.2976321E-013  0.7246151E+02  0.7816164E-02  0.1226708E+00
        -11   -1    0    0    0    0  0.00000000000E+00  0.00000000000E+00  0.45593999997E+02  0.45594000000E+02  0.51100000000E-03 0.  1.
         11   -1    0    0    0    0 -0.00000000000E+00 -0.00000000000E+00 -0.45593999997E+02  0.45594000000E+02  0.51100000000E-03 0. -1.
    9900012    2    1    2    0    0 -0.16905854646E+02 -0.52453303931E+01  0.61122745450E+01  0.72461513080E+02  0.69999925467E+02 0.  0.
         12    1    1    2    0    0  0.16905854646E+02  0.52453303931E+01 -0.61122745450E+01  0.18726486920E+02  0.00000000000E+00 0. -1.
         11    1    3    3    0    0  0.55433444602E+01  0.28045588620E+01 -0.69305228627E+01  0.93073285978E+01  0.51100000000E-03 0. -1.
        -11    1    3    3    0    0 -0.70022619249E+01  0.18398774481E+02 -0.12459794301E+02  0.23297919409E+02  0.51100000000E-03 0.  1.
        -12    1    3    3    0    0 -0.15446937182E+02 -0.26448663737E+02  0.25502591709E+02  0.39856265073E+02  0.00000000000E+00 0.  1.
</event>
<event>
 7    1  0.2976321E-013  0.7246137E+02  0.7816164E-02  0.1226709E+00
        -11   -1    0    0    0    0  0.00000000000E+00  0.00000000000E+00  0.45593999997E+02  0.45594000000E+02  0.51100000000E-03 0.  1.
         11   -1    0    0    0    0 -0.00000000000E+00 -0.00000000000E+00 -0.45593999997E+02  0.45594000000E+02  0.51100000000E-03 0. -1.
    9900012    2    1    2    0    0 -0.25347529364E+01 -0.37392660940E+00  0.18550525135E+02  0.72461367192E+02  0.69999735421E+02 0.  0.
         12    1    1    2    0    0  0.25347529364E+01  0.37392660940E+00 -0.18550525135E+02  0.18726632808E+02  0.00000000000E+00 0. -1.
         11    1    3    3    0    0  0.40818629638E+01 -0.21173370814E+02  0.22138525139E+02  0.30904490490E+02  0.51100000000E-03 0. -1.
        -11    1    3    3    0    0 -0.14742251262E+01 -0.10027272655E+02 -0.41552223751E+00  0.10143579034E+02  0.51100000000E-03 0.  1.
        -12    1    3    3    0    0 -0.51423907740E+01  0.30826716859E+02 -0.31724777668E+01  0.31413297668E+02  0.00000000000E+00 0.  1.
</event>
<event>
 7    1  0.2976321E-013  0.7246169E+02  0.7816164E-02  0.1226708E+00
        -11   -1    0    0    0    0  0.00000000000E+00  0.00000000000E+00  0.45593999997E+02  0.45594000000E+02  0.51100000000E-03 0.  1.
         11   -1    0    0    0    0 -0.00000000000E+00 -0.00000000000E+00 -0.45593999997E+02  0.45594000000E+02  0.51100000000E-03 0. -1.
    9900012    2    1    2    0    0 -0.15740053742E+02 -0.40482624438E+01  0.93025243233E+01  0.72461690182E+02  0.70000156175E+02 0.  0.
         12    1    1    2    0    0  0.15740053742E+02  0.40482624438E+01 -0.93025243233E+01  0.18726309818E+02  0.00000000000E+00 0. -1.
         11    1    3    3    0    0  0.38553672586E+01 -0.81009831453E+01  0.18366784729E+02  0.20440855319E+02  0.51100000000E-03 0. -1.
        -11    1    3    3    0    0 -0.58062402814E+01  0.72101804687E+01  0.18696944899E+02  0.20863242256E+02  0.51100000000E-03 0.  1.
         12    1    3    3    0    0 -0.13789180719E+02 -0.31574597672E+01 -0.27761205305E+02  0.31157592607E+02  0.00000000000E+00 0. -1.
</event>
<event>
 7    1  0.2976321E-013  0.7246158E+02  0.7816164E-02  0.1226708E+00
        -11   -1    0    0    0    0  0.00000000000E+00  0.00000000000E+00  0.45593999997E+02  0.45594000000E+02  0.51100000000E-03 0.  1.
         11   -1    0    0    0    0 -0.00000000000E+00 -0.00000000000E+00 -0.45593999997E+02  0.45594000000E+02  0.51100000000E-03 0. -1.
    9900012    2    1    2    0    0  0.10849507508E+02 -0.69531606607E+00  0.15247414378E+02  0.72461576881E+02  0.70000008581E+02 0.  0.
         12    1    1    2    0    0 -0.10849507508E+02  0.69531606607E+00 -0.15247414378E+02  0.18726423119E+02  0.00000000000E+00 0. -1.
         11    1    3    3    0    0 -0.67061241190E+01 -0.10999915541E+02 -0.98944844073E+01  0.16244108611E+02  0.51100000000E-03 0. -1.
        -11    1    3    3    0    0 -0.84824707443E+01 -0.12857006011E+02  0.86098445873E+01  0.17646085616E+02  0.51100000000E-03 0.  1.
        -12    1    3    3    0    0  0.26038102372E+02  0.23161605486E+02  0.16532054198E+02  0.38571382654E+02  0.00000000000E+00 0.  1.
</event>
<event>
 7    1  0.2976321E-013  0.7246158E+02  0.7816164E-02  0.1226708E+00
        -11   -1    0    0    0    0  0.00000000000E+00  0.00000000000E+00  0.45593999997E+02  0.45594000000E+02  0.51100000000E-03 0. -1.
         11   -1    0    0    0    0 -0.00000000000E+00 -0.00000000000E+00 -0.45593999997E+02  0.45594000000E+02  0.51100000000E-03 0.  1.
    9900012    2    1    2    0    0 -0.42817238462E+01  0.18116695397E+02 -0.20324815177E+01  0.72461580366E+02  0.70000013120E+02 0.  0.
         12    1    1    2    0    0  0.42817238462E+01 -0.18116695397E+02  0.20324815177E+01  0.18726419634E+02  0.00000000000E+00 0. -1.
         11    1    3    3    0    0 -0.10734680095E+02  0.26425731096E+02  0.44004940836E+01  0.28860300919E+02  0.51100000000E-03 0. -1.
        -11    1    3    3    0    0 -0.14023446690E+02  0.86625104109E+01 -0.14900412818E+01  0.16550418937E+02  0.51100000000E-03 0.  1.
        -12    1    3    3    0    0  0.20476402939E+02 -0.16971546109E+02 -0.49429343195E+01  0.27050860510E+02  0.00000000000E+00 0.  1.
</event>
<event>
 7    1  0.2976321E-013  0.7246156E+02  0.7816164E-02  0.1226708E+00
        -11   -1    0    0    0    0  0.00000000000E+00  0.00000000000E+00  0.45593999997E+02  0.45594000000E+02  0.51100000000E-03 0. -1.
         11   -1    0    0    0    0 -0.00000000000E+00 -0.00000000000E+00 -0.45593999997E+02  0.45594000000E+02  0.51100000000E-03 0.  1.
    9900012    2    1    2    0    0 -0.75378171780E+01 -0.12565204603E+02 -0.11660898432E+02  0.72461558620E+02  0.69999984792E+02 0.  0.
         12    1    1    2    0    0  0.75378171780E+01  0.12565204603E+02  0.11660898432E+02  0.18726441380E+02  0.00000000000E+00 0. -1.
         11    1    3    3    0    0  0.19134150080E+02  0.97102463574E+00  0.15861672139E+02  0.24872700525E+02  0.51100000000E-03 0. -1.
        -11    1    3    3    0    0 -0.18218173249E+02 -0.14727702564E+02 -0.56344539551E+01  0.24094690929E+02  0.51100000000E-03 0.  1.
        -12    1    3    3    0    0 -0.84537940088E+01  0.11914733254E+01 -0.21888116615E+02  0.23494167166E+02  0.00000000000E+00 0.  1.
</event>
<event>
 7    1  0.2976321E-013  0.7246157E+02  0.7816164E-02  0.1226708E+00
        -11   -1    0    0    0    0  0.00000000000E+00  0.00000000000E+00  0.45593999997E+02  0.45594000000E+02  0.51100000000E-03 0.  1.
         11   -1    0    0    0    0 -0.00000000000E+00 -0.00000000000E+00 -0.45593999997E+02  0.45594000000E+02  0.51100000000E-03 0. -1.
    9900012    2    1    2    0    0 -0.11372372860E+02 -0.54667897409E+01  0.13837000943E+02  0.72461568155E+02  0.69999997213E+02 0.  0.
         12    1    1    2    0    0  0.11372372860E+02  0.54667897409E+01 -0.13837000943E+02  0.18726431845E+02  0.00000000000E+00 0. -1.
         11    1    3    3    0    0 -0.24603297681E+02 -0.14336070343E+02 -0.10672608789E+02  0.30409698260E+02  0.51100000000E-03 0. -1.
        -11    1    3    3    0    0 -0.20441688302E+01 -0.37779328328E+00  0.24101726239E+02  0.24191208360E+02  0.51100000000E-03 0.  1.
        -12    1    3    3    0    0  0.15275093651E+02  0.92470738856E+01  0.40788349279E+00  0.17860661534E+02  0.00000000000E+00 0.  1.
</event>
<event>
 7    1  0.2976321E-013  0.7246173E+02  0.7816164E-02  0.1226708E+00
        -11   -1    0    0    0    0  0.00000000000E+00  0.00000000000E+00  0.45593999997E+02  0.45594000000E+02  0.51100000000E-03 0.  1.
         11   -1    0    0    0    0 -0.00000000000E+00 -0.00000000000E+00 -0.45593999997E+02  0.45594000000E+02  0.51100000000E-03 0. -1.
    9900012    2    1    2    0    0  0.14506582721E+02 -0.11060097119E+02 -0.42315920422E+01  0.72461733374E+02  0.70000212442E+02 0.  0.
         12    1    1    2    0    0 -0.14506582721E+02  0.11060097119E+02  0.42315920422E+01  0.18726266626E+02  0.00000000000E+00 0. -1.
         11    1    3    3    0    0  0.10732265806E+01  0.31259514653E+01 -0.24465088846E+02  0.24687323880E+02  0.51100000000E-03 0. -1.
        -11    1    3    3    0    0 -0.89945954435E+01  0.76653863647E+01  0.73339519532E+01  0.13908549415E+02  0.51100000000E-03 0.  1.
        -12    1    3    3    0    0  0.22427951584E+02 -0.21851434949E+02  0.12899544850E+02  0.33865860080E+02  0.00000000000E+00 0.  1.
</event>
<event>
 7    1  0.2976321E-013  0.7246160E+02  0.7816164E-02  0.1226708E+00
        -11   -1    0    0    0    0  0.00000000000E+00  0.00000000000E+00  0.45593999997E+02  0.45594000000E+02  0.51100000000E-03 0.  1.
         11   -1    0    0    0    0 -0.00000000000E+00 -0.00000000000E+00 -0.45593999997E+02  0.45594000000E+02  0.51100000000E-03 0. -1.
    9900012    2    1    2    0    0  0.15184518031E+02 -0.10187842315E+02 -0.40393508531E+01  0.72461599540E+02  0.70000038098E+02 0.  0.
         12    1    1    2    0    0 -0.15184518031E+02  0.10187842315E+02  0.40393508531E+01  0.18726400460E+02  0.00000000000E+00 0. -1.
         11    1    3    3    0    0  0.93179425273E+01  0.10589781824E+02 -0.13585953867E+02  0.19584322168E+02  0.51100000000E-03 0. -1.
        -11    1    3    3    0    0  0.78824338665E+01  0.69292900458E-01  0.25409361083E+02  0.26604007143E+02  0.51100000000E-03 0.  1.
        -12    1    3    3    0    0 -0.20158583630E+01 -0.20846917040E+02 -0.15862758069E+02  0.26273270229E+02  0.00000000000E+00 0.  1.
</event>
<event>
 7    1  0.2976321E-013  0.7246155E+02  0.7816164E-02  0.1226708E+00
        -11   -1    0    0    0    0  0.00000000000E+00  0.00000000000E+00  0.45593999997E+02  0.45594000000E+02  0.51100000000E-03 0.  1.
         11   -1    0    0    0    0 -0.00000000000E+00 -0.00000000000E+00 -0.45593999997E+02  0.45594000000E+02  0.51100000000E-03 0. -1.
    9900012    2    1    2    0    0  0.54960013719E+00 -0.18641594572E+02  0.16937529877E+01  0.72461550586E+02  0.69999974326E+02 0.  0.
         12    1    1    2    0    0 -0.54960013719E+00  0.18641594572E+02 -0.16937529877E+01  0.18726449414E+02  0.00000000000E+00 0. -1.
         11    1    3    3    0    0 -0.20570883836E+02 -0.37879781622E+01  0.17163456356E+02  0.27057240708E+02  0.51100000000E-03 0. -1.
        -11    1    3    3    0    0 -0.36372474066E+01  0.77337335081E+01 -0.13014423364E+00  0.85473469834E+01  0.51100000000E-03 0.  1.
        -12    1    3    3    0    0  0.24757731380E+02 -0.22587349918E+02 -0.15339559135E+02  0.36856962895E+02  0.00000000000E+00 0.  1.
</event>
<event>
 7    1  0.2976321E-013  0.7246159E+02  0.7816164E-02  0.1226708E+00
        -11   -1    0    0    0    0  0.00000000000E+00  0.00000000000E+00  0.45593999997E+02  0.45594000000E+02  0.51100000000E-03 0.  1.
         11   -1    0    0    0    0 -0.00000000000E+00 -0.00000000000E+00 -0.45593999997E+02  0.45594000000E+02  0.51100000000E-03 0. -1.
    9900012    2    1    2    0    0  0.10816522680E+02  0.13432052787E+02 -0.72980371362E+01  0.72461586809E+02  0.70000021514E+02 0.  0.
         12    1    1    2    0    0 -0.10816522680E+02 -0.13432052787E+02  0.72980371362E+01  0.18726413191E+02  0.00000000000E+00 0. -1.
         11    1    3    3    0    0  0.23414266845E+00  0.15531107509E+02 -0.16860673159E+02  0.22924930161E+02  0.51100000000E-03 0. -1.
        -11    1    3    3    0    0 -0.52851883569E+01  0.18881865343E+02  0.12209614837E+02  0.23098327851E+02  0.51100000000E-03 0.  1.
         12    1    3    3    0    0  0.15867568368E+02 -0.20980920066E+02 -0.26469788134E+01  0.26438328797E+02  0.00000000000E+00 0. -1.
</event>
<event>
 7    1  0.2976321E-013  0.7246157E+02  0.7816164E-02  0.1226708E+00
        -11   -1    0    0    0    0  0.00000000000E+00  0.00000000000E+00  0.45593999997E+02  0.45594000000E+02  0.51100000000E-03 0.  1.
         11   -1    0    0    0    0 -0.00000000000E+00 -0.00000000000E+00 -0.45593999997E+02  0.45594000000E+02  0.51100000000E-03 0. -1.
    9900012    2    1    2    0    0 -0.15157476490E+02  0.16193505347E+01 -0.10876941462E+02  0.72461568272E+02  0.69999997365E+02 0.  0.
         12    1    1    2    0    0  0.15157476490E+02 -0.16193505347E+01  0.10876941462E+02  0.18726431728E+02  0.00000000000E+00 0. -1.
         11    1    3    3    0    0  0.29899224653E+01  0.52986183643E+01 -0.11805392063E+02  0.13280898875E+02  0.51100000000E-03 0. -1.
        -11    1    3    3    0    0  0.12432621728E+02 -0.20696214483E+02 -0.60793173222E+00  0.24151044661E+02  0.51100000000E-03 0.  1.
        -12    1    3    3    0    0 -0.30580020684E+02  0.17016946654E+02  0.15363823331E+01  0.35029624735E+02  0.00000000000E+00 0.  1.
</event>
<event>
 7    1  0.2976321E-013  0.7246154E+02  0.7816164E-02  0.1226708E+00
        -11   -1    0    0    0    0  0.00000000000E+00  0.00000000000E+00  0.45593999997E+02  0.45594000000E+02  0.51100000000E-03 0.  1.
         11   -1    0    0    0    0 -0.00000000000E+00 -0.00000000000E+00 -0.45593999997E+02  0.45594000000E+02  0.51100000000E-03 0. -1.
    9900012    2    1    2    0    0  0.74187123023E+01 -0.73009254750E+00  0.17178769285E+02  0.72461536332E+02  0.69999955758E+02 0.  0.
         12    1    1    2    0    0 -0.74187123023E+01  0.73009254750E+00 -0.17178769285E+02  0.18726463668E+02  0.00000000000E+00 0. -1.
         11    1    3    3    0    0  0.79233836319E+01 -0.49960691211E+01  0.42335493160E+00  0.93765635763E+01  0.51100000000E-03 0. -1.
        -11    1    3    3    0    0  0.20320517396E+02  0.52705139889E+01  0.31282591018E+02  0.37673627991E+02  0.51100000000E-03 0.  1.
         12    1    3    3    0    0 -0.20825188726E+02 -0.10045374153E+01 -0.14527176665E+02  0.25411344764E+02  0.00000000000E+00 0. -1.
</event>
<event>
 7    1  0.2976321E-013  0.7246166E+02  0.7816164E-02  0.1226708E+00
        -11   -1    0    0    0    0  0.00000000000E+00  0.00000000000E+00  0.45593999997E+02  0.45594000000E+02  0.51100000000E-03 0.  1.
         11   -1    0    0    0    0 -0.00000000000E+00 -0.00000000000E+00 -0.45593999997E+02  0.45594000000E+02  0.51100000000E-03 0. -1.
    9900012    2    1    2    0    0 -0.77597606634E+01  0.11114688177E+02  0.12919963144E+02  0.72461664895E+02  0.70000123235E+02 0.  0.
         12    1    1    2    0    0  0.77597606634E+01 -0.11114688177E+02 -0.12919963144E+02  0.18726335105E+02  0.00000000000E+00 0. -1.
         11    1    3    3    0    0 -0.21519224433E+02  0.16259411906E+02 -0.28498738482E+01  0.27121343568E+02  0.51100000000E-03 0. -1.
        -11    1    3    3    0    0 -0.74786506161E+01  0.78270868532E+01  0.17299062264E+02  0.20407132555E+02  0.51100000000E-03 0.  1.
         12    1    3    3    0    0  0.21238114386E+02 -0.12971810582E+02 -0.15292252720E+01  0.24933188772E+02  0.00000000000E+00 0. -1.
</event>
<event>
 7    1  0.2976321E-013  0.7246153E+02  0.7816164E-02  0.1226708E+00
        -11   -1    0    0    0    0  0.00000000000E+00  0.00000000000E+00  0.45593999997E+02  0.45594000000E+02  0.51100000000E-03 0. -1.
         11   -1    0    0    0    0 -0.00000000000E+00 -0.00000000000E+00 -0.45593999997E+02  0.45594000000E+02  0.51100000000E-03 0.  1.
    9900012    2    1    2    0    0 -0.14652841857E+02 -0.35493289189E+01 -0.11107535930E+02  0.72461525032E+02  0.69999941038E+02 0.  0.
         12    1    1    2    0    0  0.14652841857E+02  0.35493289189E+01  0.11107535930E+02  0.18726474968E+02  0.00000000000E+00 0. -1.
         11    1    3    3    0    0  0.16306579359E+02 -0.20171950967E+02 -0.51549352846E+01  0.26445897494E+02  0.51100000000E-03 0. -1.
        -11    1    3    3    0    0 -0.28941357832E+01 -0.57923272859E+01 -0.76934274191E+01  0.10055640359E+02  0.51100000000E-03 0.  1.
        -12    1    3    3    0    0 -0.28065285433E+02  0.22414949334E+02  0.17408267732E+01  0.35959987179E+02  0.00000000000E+00 0.  1.
</event>
<event>
 7    1  0.2976321E-013  0.7246159E+02  0.7816164E-02  0.1226708E+00
        -11   -1    0    0    0    0  0.00000000000E+00  0.00000000000E+00  0.45593999997E+02  0.45594000000E+02  0.51100000000E-03 0.  1.
         11   -1    0    0    0    0 -0.00000000000E+00 -0.00000000000E+00 -0.45593999997E+02  0.45594000000E+02  0.51100000000E-03 0. -1.
    9900012    2    1    2    0    0  0.17582052251E+02 -0.53717181835E+01  0.35629181681E+01  0.72461593418E+02  0.70000030123E+02 0.  0.
         12    1    1    2    0    0 -0.17582052251E+02  0.53717181835E+01 -0.35629181681E+01  0.18726406582E+02  0.00000000000E+00 0. -1.
         11    1    3    3    0    0 -0.46148266643E+01  0.39345828284E+01  0.37127822828E+01  0.71107186497E+01  0.51100000000E-03 0. -1.
        -11    1    3    3    0    0  0.44254410853E+01 -0.14760403274E+01  0.29522280089E+02  0.29888597253E+02  0.51100000000E-03 0.  1.
         12    1    3    3    0    0  0.17771437830E+02 -0.78302606845E+01 -0.29672144204E+02  0.35462277515E+02  0.00000000000E+00 0. -1.
</event>
<event>
 7    1  0.2976321E-013  0.7246154E+02  0.7816164E-02  0.1226708E+00
        -11   -1    0    0    0    0  0.00000000000E+00  0.00000000000E+00  0.45593999997E+02  0.45594000000E+02  0.51100000000E-03 0. -1.
         11   -1    0    0    0    0 -0.00000000000E+00 -0.00000000000E+00 -0.45593999997E+02  0.45594000000E+02  0.51100000000E-03 0.  1.
    9900012    2    1    2    0    0 -0.16018571828E+02 -0.64058538511E+01  0.72835801195E+01  0.72461544213E+02  0.69999966025E+02 0.  0.
         12    1    1    2    0    0  0.16018571828E+02  0.64058538511E+01 -0.72835801195E+01  0.18726455787E+02  0.00000000000E+00 0. -1.
         11    1    3    3    0    0 -0.87415363927E+01  0.55351853415E+01  0.45123696915E+01  0.11287790562E+02  0.51100000000E-03 0. -1.
        -11    1    3    3    0    0 -0.26830512282E+02 -0.33703378984E+00 -0.16387292218E+02  0.31440949852E+02  0.51100000000E-03 0.  1.
         12    1    3    3    0    0  0.19553476847E+02 -0.11604005403E+02  0.19158502646E+02  0.29732803800E+02  0.00000000000E+00 0. -1.
</event>
<event>
 7    1  0.2976321E-013  0.7246155E+02  0.7816164E-02  0.1226708E+00
        -11   -1    0    0    0    0  0.00000000000E+00  0.00000000000E+00  0.45593999997E+02  0.45594000000E+02  0.51100000000E-03 0.  1.
         11   -1    0    0    0    0 -0.00000000000E+00 -0.00000000000E+00 -0.45593999997E+02  0.45594000000E+02  0.51100000000E-03 0. -1.
    9900012    2    1    2    0    0 -0.59772254058E+01 -0.17652744500E+02 -0.18256982966E+01  0.72461553829E+02  0.69999978551E+02 0.  0.
         12    1    1    2    0    0  0.59772254058E+01  0.17652744500E+02  0.18256982966E+01  0.18726446171E+02  0.00000000000E+00 0. -1.
         11    1    3    3    0    0 -0.65418624025E+01  0.73441299795E+01  0.33854547357E+01  0.10401611071E+02  0.51100000000E-03 0. -1.
        -11    1    3    3    0    0  0.10711844963E+02  0.11995875901E+02  0.11950768240E+02  0.20036604576E+02  0.51100000000E-03 0.  1.
         12    1    3    3    0    0 -0.10147207966E+02 -0.36992750380E+02 -0.17161921272E+02  0.42023338182E+02  0.00000000000E+00 0. -1.
</event>
<event>
 7    1  0.2976321E-013  0.7246164E+02  0.7816164E-02  0.1226708E+00
        -11   -1    0    0    0    0  0.00000000000E+00  0.00000000000E+00  0.45593999997E+02  0.45594000000E+02  0.51100000000E-03 0.  1.
         11   -1    0    0    0    0 -0.00000000000E+00 -0.00000000000E+00 -0.45593999997E+02  0.45594000000E+02  0.51100000000E-03 0. -1.
    9900012    2    1    2    0    0 -0.11294778606E+02 -0.39849301669E+01 -0.14395307915E+02  0.72461639378E+02  0.70000089994E+02 0.  0.
         12    1    1    2    0    0  0.11294778606E+02  0.39849301669E+01  0.14395307915E+02  0.18726360622E+02  0.00000000000E+00 0. -1.
         11    1    3    3    0    0  0.65260858836E+01  0.14100790248E+02 -0.19996202897E+02  0.25323313629E+02  0.51100000000E-03 0. -1.
        -11    1    3    3    0    0 -0.10613727789E+02 -0.11363907804E+02 -0.16662614393E+02  0.22791058265E+02  0.51100000000E-03 0.  1.
        -12    1    3    3    0    0 -0.72071367005E+01 -0.67218126118E+01  0.22263509376E+02  0.24347267484E+02  0.00000000000E+00 0.  1.
</event>
<event>
 7    1  0.2976321E-013  0.7246161E+02  0.7816164E-02  0.1226708E+00
        -11   -1    0    0    0    0  0.00000000000E+00  0.00000000000E+00  0.45593999997E+02  0.45594000000E+02  0.51100000000E-03 0. -1.
         11   -1    0    0    0    0 -0.00000000000E+00 -0.00000000000E+00 -0.45593999997E+02  0.45594000000E+02  0.51100000000E-03 0.  1.
    9900012    2    1    2    0    0  0.12242037963E+02  0.12553905172E+02  0.65733921651E+01  0.72461614521E+02  0.70000057613E+02 0.  0.
         12    1    1    2    0    0 -0.12242037963E+02 -0.12553905172E+02 -0.65733921651E+01  0.18726385479E+02  0.00000000000E+00 0. -1.
         11    1    3    3    0    0  0.21277966326E+02  0.55633221313E+01 -0.15068124622E+01  0.22044792767E+02  0.51100000000E-03 0. -1.
        -11    1    3    3    0    0  0.57312722029E+01  0.25447095442E+02  0.52908638964E+01  0.26615698160E+02  0.51100000000E-03 0.  1.
         12    1    3    3    0    0 -0.14767200565E+02 -0.18456512402E+02  0.27893407308E+01  0.23801123593E+02  0.00000000000E+00 0. -1.
</event>
<event>
 7    1  0.2976321E-013  0.7246162E+02  0.7816164E-02  0.1226708E+00
        -11   -1    0    0    0    0  0.00000000000E+00  0.00000000000E+00  0.45593999997E+02  0.45594000000E+02  0.51100000000E-03 0.  1.
         11   -1    0    0    0    0 -0.00000000000E+00 -0.00000000000E+00 -0.45593999997E+02  0.45594000000E+02  0.51100000000E-03 0. -1.
    9900012    2    1    2    0    0  0.13451789733E+02  0.44883299388E+01 -0.12230350848E+02  0.72461621959E+02  0.70000067303E+02 0.  0.
         12    1    1    2    0    0 -0.13451789733E+02 -0.44883299388E+01  0.12230350848E+02  0.18726378041E+02  0.00000000000E+00 0. -1.
         11    1    3    3    0    0  0.37904676674E+01 -0.50600369609E+01 -0.56989866390E+01  0.85117605791E+01  0.51100000000E-03 0. -1.
        -11    1    3    3    0    0  0.19615929506E+02 -0.21114982823E+02  0.58625664405E+01  0.29410829222E+02  0.51100000000E-03 0.  1.
         12    1    3    3    0    0 -0.99546074410E+01  0.30663349722E+02 -0.12393930650E+02  0.34539032158E+02  0.00000000000E+00 0. -1.
</event>
<event>
 7    1  0.2976321E-013  0.7246160E+02  0.7816164E-02  0.1226708E+00
        -11   -1    0    0    0    0  0.00000000000E+00  0.00000000000E+00  0.45593999997E+02  0.45594000000E+02  0.51100000000E-03 0.  1.
         11   -1    0    0    0    0 -0.00000000000E+00 -0.00000000000E+00 -0.45593999997E+02  0.45594000000E+02  0.51100000000E-03 0. -1.
    9900012    2    1    2    0    0 -0.10523601555E+02  0.12253430214E+02 -0.94755171245E+01  0.72461597075E+02  0.70000034887E+02 0.  0.
         12    1    1    2    0    0  0.10523601555E+02 -0.12253430214E+02  0.94755171245E+01  0.18726402925E+02  0.00000000000E+00 0. -1.
         11    1    3    3    0    0  0.27135534439E+01  0.19716583413E+02  0.18486408544E+02  0.27163474279E+02  0.51100000000E-03 0. -1.
        -11    1    3    3    0    0 -0.10356882496E+02 -0.22765684844E+01  0.50585683879E+01  0.11748910311E+02  0.51100000000E-03 0.  1.
         12    1    3    3    0    0 -0.28802725034E+01 -0.51865847138E+01 -0.33020494057E+02  0.33549212486E+02  0.00000000000E+00 0. -1.
</event>
<event>
 7    1  0.2976321E-013  0.7246158E+02  0.7816164E-02  0.1226708E+00
        -11   -1    0    0    0    0  0.00000000000E+00  0.00000000000E+00  0.45593999997E+02  0.45594000000E+02  0.51100000000E-03 0.  1.
         11   -1    0    0    0    0 -0.00000000000E+00 -0.00000000000E+00 -0.45593999997E+02  0.45594000000E+02  0.51100000000E-03 0. -1.
    9900012    2    1    2    0    0  0.80256223736E+01 -0.10602411631E+02  0.13185488781E+02  0.72461578525E+02  0.70000010722E+02 0.  0.
         12    1    1    2    0    0 -0.80256223736E+01  0.10602411631E+02 -0.13185488781E+02  0.18726421475E+02  0.00000000000E+00 0. -1.
         11    1    3    3    0    0  0.71942760032E+01 -0.20943261971E+02  0.27004954102E+02  0.34923421589E+02  0.51100000000E-03 0.  1.
        -11    1    3    3    0    0 -0.69212354789E+01  0.17605087046E+02  0.14099322197E+01  0.18969198706E+02  0.51100000000E-03 0. -1.
        -12    1    3    3    0    0  0.77525818493E+01 -0.72642367066E+01 -0.15229397541E+02  0.18568958229E+02  0.00000000000E+00 0.  1.
</event>
<event>
 7    1  0.5637584E-013  0.7246155E+02  0.7816164E-02  0.1226708E+00
        -11   -1    0    0    0    0  0.00000000000E+00  0.00000000000E+00  0.45593999997E+02  0.45594000000E+02  0.51100000000E-03 0. -1.
         11   -1    0    0    0    0 -0.00000000000E+00 -0.00000000000E+00 -0.45593999997E+02  0.45594000000E+02  0.51100000000E-03 0.  1.
    9900012    2    1    2    0    0  0.58592255210E+01  0.89187171299E+01 -0.15388501799E+02  0.72461547411E+02  0.69999970191E+02 0.  0.
         12    1    1    2    0    0 -0.58592255210E+01 -0.89187171299E+01  0.15388501799E+02  0.18726452589E+02  0.00000000000E+00 0. -1.
         11    1    3    3    0    0  0.60538657722E+00 -0.21432001246E+02  0.98642720645E+01  0.23600869347E+02  0.51100000000E-03 0. -1.
        -11    1    3    3    0    0  0.61525786598E+01  0.78424589792E+00 -0.17081462532E+02  0.18172661563E+02  0.51100000000E-03 0.  1.
        -12    1    3    3    0    0 -0.89873971604E+00  0.29566472478E+02 -0.81713113309E+01  0.30688016501E+02  0.00000000000E+00 0.  1.
</event>
<event>
 7    1  0.2976321E-013  0.7246150E+02  0.7816164E-02  0.1226708E+00
        -11   -1    0    0    0    0  0.00000000000E+00  0.00000000000E+00  0.45593999997E+02  0.45594000000E+02  0.51100000000E-03 0.  1.
         11   -1    0    0    0    0 -0.00000000000E+00 -0.00000000000E+00 -0.45593999997E+02  0.45594000000E+02  0.51100000000E-03 0. -1.
    9900012    2    1    2    0    0  0.68359799727E+01  0.14581113595E+02  0.95573097885E+01  0.72461503631E+02  0.69999913158E+02 0.  0.
         12    1    1    2    0    0 -0.68359799727E+01 -0.14581113595E+02 -0.95573097885E+01  0.18726496369E+02  0.00000000000E+00 0. -1.
         11    1    3    3    0    0  0.18554367174E+01 -0.13425047785E+02  0.81374738910E+01  0.15808005410E+02  0.51100000000E-03 0. -1.
        -11    1    3    3    0    0  0.61054773305E+01 -0.11505293838E+02  0.97349155045E+01  0.16260910794E+02  0.51100000000E-03 0.  1.
         12    1    3    3    0    0 -0.11249340753E+01  0.39511455218E+02 -0.83150796071E+01  0.40392587427E+02  0.00000000000E+00 0. -1.
</event>
<event>
 7    1  0.2976321E-013  0.7246153E+02  0.7816164E-02  0.1226708E+00
        -11   -1    0    0    0    0  0.00000000000E+00  0.00000000000E+00  0.45593999997E+02  0.45594000000E+02  0.51100000000E-03 0. -1.
         11   -1    0    0    0    0 -0.00000000000E+00 -0.00000000000E+00 -0.45593999997E+02  0.45594000000E+02  0.51100000000E-03 0.  1.
    9900012    2    1    2    0    0  0.13660822010E+02  0.27602907138E+01 -0.12507727673E+02  0.72461534387E+02  0.69999953224E+02 0.  0.
         12    1    1    2    0    0 -0.13660822010E+02 -0.27602907138E+01  0.12507727673E+02  0.18726465613E+02  0.00000000000E+00 0. -1.
         11    1    3    3    0    0  0.64496913239E+01 -0.55483436759E+01 -0.39654065787E+01  0.93865374508E+01  0.51100000000E-03 0.  1.
        -11    1    3    3    0    0 -0.63530068039E+01  0.32986846301E+02  0.18439845252E+00  0.33593551872E+02  0.51100000000E-03 0. -1.
         12    1    3    3    0    0  0.13564137490E+02 -0.24678211912E+02 -0.87267195470E+01  0.29481445064E+02  0.00000000000E+00 0. -1.
</event>
<event>
 7    1  0.2976321E-013  0.7246136E+02  0.7816164E-02  0.1226709E+00
        -11   -1    0    0    0    0  0.00000000000E+00  0.00000000000E+00  0.45593999997E+02  0.45594000000E+02  0.51100000000E-03 0. -1.
         11   -1    0    0    0    0 -0.00000000000E+00 -0.00000000000E+00 -0.45593999997E+02  0.45594000000E+02  0.51100000000E-03 0.  1.
    9900012    2    1    2    0    0  0.12421059203E+02 -0.45444849250E+01 -0.13257145953E+02  0.72461361920E+02  0.69999728553E+02 0.  0.
         12    1    1    2    0    0 -0.12421059203E+02  0.45444849250E+01  0.13257145953E+02  0.18726638080E+02  0.00000000000E+00 0. -1.
         11    1    3    3    0    0 -0.13832853422E+02 -0.51353844467E+01  0.15027759096E+02  0.21060711074E+02  0.51100000000E-03 0. -1.
        -11    1    3    3    0    0 -0.40304971596E+00 -0.99436429266E+00  0.70381411737E+01  0.71194550959E+01  0.51100000000E-03 0.  1.
        -12    1    3    3    0    0  0.26656962341E+02  0.15852638144E+01 -0.35323046223E+02  0.44281195750E+02  0.00000000000E+00 0.  1.
</event>
<event>
 7    1  0.2976321E-013  0.7246158E+02  0.7816164E-02  0.1226708E+00
        -11   -1    0    0    0    0  0.00000000000E+00  0.00000000000E+00  0.45593999997E+02  0.45594000000E+02  0.51100000000E-03 0. -1.
         11   -1    0    0    0    0 -0.00000000000E+00 -0.00000000000E+00 -0.45593999997E+02  0.45594000000E+02  0.51100000000E-03 0.  1.
    9900012    2    1    2    0    0 -0.27938404897E+01  0.14713905994E+02 -0.11241637296E+02  0.72461575264E+02  0.70000006474E+02 0.  0.
         12    1    1    2    0    0  0.27938404897E+01 -0.14713905994E+02  0.11241637296E+02  0.18726424736E+02  0.00000000000E+00 0. -1.
         11    1    3    3    0    0  0.92457278631E+01  0.15040190703E+02 -0.10012358215E+02  0.20296259197E+02  0.51100000000E-03 0. -1.
        -11    1    3    3    0    0 -0.28578098532E+02  0.99790741676E+01 -0.83790493070E+01  0.31408567374E+02  0.51100000000E-03 0.  1.
         12    1    3    3    0    0  0.16538530179E+02 -0.10305358876E+02  0.71497702260E+01  0.20756748694E+02  0.00000000000E+00 0. -1.
</event>
<event>
 7    1  0.2976321E-013  0.7246162E+02  0.7816164E-02  0.1226708E+00
        -11   -1    0    0    0    0  0.00000000000E+00  0.00000000000E+00  0.45593999997E+02  0.45594000000E+02  0.51100000000E-03 0. -1.
         11   -1    0    0    0    0 -0.00000000000E+00 -0.00000000000E+00 -0.45593999997E+02  0.45594000000E+02  0.51100000000E-03 0.  1.
    9900012    2    1    2    0    0 -0.17585432297E+02 -0.60894989970E+01  0.20851813077E+01  0.72461617322E+02  0.70000061262E+02 0.  0.
         12    1    1    2    0    0  0.17585432297E+02  0.60894989970E+01 -0.20851813077E+01  0.18726382678E+02  0.00000000000E+00 0. -1.
         11    1    3    3    0    0 -0.16775375239E+02 -0.14641857438E+02  0.67151266618E+01  0.23257044738E+02  0.51100000000E-03 0. -1.
        -11    1    3    3    0    0 -0.81149661575E+01 -0.11291427418E+02 -0.19068333768E+02  0.23599795800E+02  0.51100000000E-03 0.  1.
         12    1    3    3    0    0  0.73049090989E+01  0.19843785858E+02  0.14438388414E+02  0.25604776783E+02  0.00000000000E+00 0. -1.
</event>
<event>
 7    1  0.2976321E-013  0.7246157E+02  0.7816164E-02  0.1226708E+00
        -11   -1    0    0    0    0  0.00000000000E+00  0.00000000000E+00  0.45593999997E+02  0.45594000000E+02  0.51100000000E-03 0.  1.
         11   -1    0    0    0    0 -0.00000000000E+00 -0.00000000000E+00 -0.45593999997E+02  0.45594000000E+02  0.51100000000E-03 0. -1.
    9900012    2    1    2    0    0  0.55631232582E+01 -0.12636010439E+02  0.12651565829E+02  0.72461568996E+02  0.69999998309E+02 0.  0.
         12    1    1    2    0    0 -0.55631232582E+01  0.12636010439E+02 -0.12651565829E+02  0.18726431004E+02  0.00000000000E+00 0. -1.
         11    1    3    3    0    0 -0.83759253098E+01 -0.19722625135E+02 -0.16946076952E+02  0.27318630847E+02  0.51100000000E-03 0. -1.
        -11    1    3    3    0    0  0.94770306623E+01  0.12711236639E+02  0.12547378030E+01  0.15904842479E+02  0.51100000000E-03 0.  1.
        -12    1    3    3    0    0  0.44620179057E+01 -0.56246219436E+01  0.28342904979E+02  0.29238095670E+02  0.00000000000E+00 0.  1.
</event>
<event>
 7    1  0.2976321E-013  0.7246147E+02  0.7816164E-02  0.1226708E+00
        -11   -1    0    0    0    0  0.00000000000E+00  0.00000000000E+00  0.45593999997E+02  0.45594000000E+02  0.51100000000E-03 0.  1.
         11   -1    0    0    0    0 -0.00000000000E+00 -0.00000000000E+00 -0.45593999997E+02  0.45594000000E+02  0.51100000000E-03 0. -1.
    9900012    2    1    2    0    0 -0.86650517459E+01  0.11398822826E+02  0.12069249667E+02  0.72461466122E+02  0.69999864295E+02 0.  0.
         12    1    1    2    0    0  0.86650517459E+01 -0.11398822826E+02 -0.12069249667E+02  0.18726533878E+02  0.00000000000E+00 0. -1.
         11    1    3    3    0    0 -0.34522466831E+01 -0.96021351137E+01  0.76977455448E+01  0.12781795360E+02  0.51100000000E-03 0. -1.
        -11    1    3    3    0    0 -0.10048156334E+02  0.10614793260E+02  0.29023165791E+02  0.32495898733E+02  0.51100000000E-03 0.  1.
         12    1    3    3    0    0  0.48353512711E+01  0.10386164680E+02 -0.24651661669E+02  0.27183772029E+02  0.00000000000E+00 0. -1.
</event>
<event>
 7    1  0.2976321E-013  0.7246158E+02  0.7816164E-02  0.1226708E+00
        -11   -1    0    0    0    0  0.00000000000E+00  0.00000000000E+00  0.45593999997E+02  0.45594000000E+02  0.51100000000E-03 0.  1.
         11   -1    0    0    0    0 -0.00000000000E+00 -0.00000000000E+00 -0.45593999997E+02  0.45594000000E+02  0.51100000000E-03 0. -1.
    9900012    2    1    2    0    0 -0.86428145075E+01  0.90355002957E+01  0.13940595192E+02  0.72461582764E+02  0.70000016244E+02 0.  0.
         12    1    1    2    0    0  0.86428145075E+01 -0.90355002957E+01 -0.13940595192E+02  0.18726417236E+02  0.00000000000E+00 0. -1.
         11    1    3    3    0    0 -0.96916738790E+00  0.82863311044E+00  0.32199733059E+01  0.34632566479E+01  0.51100000000E-03 0. -1.
        -11    1    3    3    0    0 -0.17085134773E+02 -0.24869398254E+02  0.16086489771E+02  0.34193039543E+02  0.51100000000E-03 0.  1.
         12    1    3    3    0    0  0.94114876536E+01  0.33076265440E+02 -0.53658678851E+01  0.34805286573E+02  0.00000000000E+00 0. -1.
</event>
<event>
 7    1  0.2976321E-013  0.7246157E+02  0.7816164E-02  0.1226708E+00
        -11   -1    0    0    0    0  0.00000000000E+00  0.00000000000E+00  0.45593999997E+02  0.45594000000E+02  0.51100000000E-03 0.  1.
         11   -1    0    0    0    0 -0.00000000000E+00 -0.00000000000E+00 -0.45593999997E+02  0.45594000000E+02  0.51100000000E-03 0. -1.
    9900012    2    1    2    0    0 -0.13186917602E+02  0.74470246413E+01  0.11014812774E+02  0.72461572890E+02  0.70000003382E+02 0.  0.
         12    1    1    2    0    0  0.13186917602E+02 -0.74470246413E+01 -0.11014812774E+02  0.18726427110E+02  0.00000000000E+00 0. -1.
         11    1    3    3    0    0 -0.32393962236E+02  0.13624903546E+02 -0.10103504258E+02  0.36566208233E+02  0.51100000000E-03 0. -1.
        -11    1    3    3    0    0  0.23906223814E+01 -0.11120811197E+02  0.99436817415E+01  0.15108418974E+02  0.51100000000E-03 0.  1.
        -12    1    3    3    0    0  0.16816422252E+02  0.49429322917E+01  0.11174635290E+02  0.20786945684E+02  0.00000000000E+00 0.  1.
</event>
<event>
 7    1  0.2976321E-013  0.7246154E+02  0.7816164E-02  0.1226708E+00
        -11   -1    0    0    0    0  0.00000000000E+00  0.00000000000E+00  0.45593999997E+02  0.45594000000E+02  0.51100000000E-03 0. -1.
         11   -1    0    0    0    0 -0.00000000000E+00 -0.00000000000E+00 -0.45593999997E+02  0.45594000000E+02  0.51100000000E-03 0.  1.
    9900012    2    1    2    0    0 -0.23426807361E+01 -0.90739126026E+00 -0.18557176522E+02  0.72461539779E+02  0.69999960249E+02 0.  0.
         12    1    1    2    0    0  0.23426807361E+01  0.90739126026E+00  0.18557176522E+02  0.18726460221E+02  0.00000000000E+00 0. -1.
         11    1    3    3    0    0 -0.31516781963E+00  0.19521960545E+01  0.74971167336E+01  0.77535256347E+01  0.51100000000E-03 0. -1.
        -11    1    3    3    0    0 -0.28164746405E+02 -0.43291391939E+00 -0.64598026397E+00  0.28175479504E+02  0.51100000000E-03 0.  1.
         12    1    3    3    0    0  0.26137233489E+02 -0.24266733953E+01 -0.25408312991E+02  0.36532534641E+02  0.00000000000E+00 0. -1.
</event>
<event>
 7    1  0.2976321E-013  0.7246158E+02  0.7816164E-02  0.1226708E+00
        -11   -1    0    0    0    0  0.00000000000E+00  0.00000000000E+00  0.45593999997E+02  0.45594000000E+02  0.51100000000E-03 0.  1.
         11   -1    0    0    0    0 -0.00000000000E+00 -0.00000000000E+00 -0.45593999997E+02  0.45594000000E+02  0.51100000000E-03 0. -1.
    9900012    2    1    2    0    0  0.13561056254E+02  0.28143202002E+01  0.12603816199E+02  0.72461579421E+02  0.70000011889E+02 0.  0.
         12    1    1    2    0    0 -0.13561056254E+02 -0.28143202002E+01 -0.12603816199E+02  0.18726420579E+02  0.00000000000E+00 0. -1.
         11    1    3    3    0    0 -0.97681175400E+01  0.11844180869E+02  0.17210530928E+02  0.23063024862E+02  0.51100000000E-03 0.  1.
        -11    1    3    3    0    0  0.16672468935E+02  0.71115386525E+00  0.17599155011E+02  0.24252983684E+02  0.51100000000E-03 0. -1.
         12    1    3    3    0    0  0.66567048596E+01 -0.97410145340E+01 -0.22205869740E+02  0.25145570875E+02  0.00000000000E+00 0. -1.
</event>
<event>
 7    1  0.2976321E-013  0.7246158E+02  0.7816164E-02  0.1226708E+00
        -11   -1    0    0    0    0  0.00000000000E+00  0.00000000000E+00  0.45593999997E+02  0.45594000000E+02  0.51100000000E-03 0.  1.
         11   -1    0    0    0    0 -0.00000000000E+00 -0.00000000000E+00 -0.45593999997E+02  0.45594000000E+02  0.51100000000E-03 0. -1.
    9900012    2    1    2    0    0  0.12362332081E+02 -0.12702478885E+02 -0.60414083264E+01  0.72461579122E+02  0.70000011500E+02 0.  0.
         12    1    1    2    0    0 -0.12362332081E+02  0.12702478885E+02  0.60414083264E+01  0.18726420878E+02  0.00000000000E+00 0. -1.
         11    1    3    3    0    0  0.89879002854E+01 -0.18594433956E+02 -0.30068805340E+01  0.20870473317E+02  0.51100000000E-03 0. -1.
        -11    1    3    3    0    0 -0.20511706145E+02 -0.75756708014E+01  0.60786621382E+01  0.22695175935E+02  0.51100000000E-03 0.  1.
         12    1    3    3    0    0  0.23886137941E+02  0.13467625872E+02 -0.91131899307E+01  0.28895929870E+02  0.00000000000E+00 0. -1.
</event>
<event>
 7    1  0.2976321E-013  0.7246156E+02  0.7816164E-02  0.1226708E+00
        -11   -1    0    0    0    0  0.00000000000E+00  0.00000000000E+00  0.45593999997E+02  0.45594000000E+02  0.51100000000E-03 0.  1.
         11   -1    0    0    0    0 -0.00000000000E+00 -0.00000000000E+00 -0.45593999997E+02  0.45594000000E+02  0.51100000000E-03 0. -1.
    9900012    2    1    2    0    0 -0.13503880431E+01  0.74388801714E+01  0.17132399961E+02  0.72461558414E+02  0.69999984523E+02 0.  0.
         12    1    1    2    0    0  0.13503880431E+01 -0.74388801714E+01 -0.17132399961E+02  0.18726441586E+02  0.00000000000E+00 0. -1.
         11    1    3    3    0    0  0.12902616365E+02  0.84957123166E+01 -0.96329940802E+01  0.18205746676E+02  0.51100000000E-03 0. -1.
        -11    1    3    3    0    0  0.16438819713E+02 -0.90135625877E+00  0.83050239615E+01  0.18439649127E+02  0.51100000000E-03 0.  1.
         12    1    3    3    0    0 -0.30691824121E+02 -0.15547588637E+00  0.18460370080E+02  0.35816162610E+02  0.00000000000E+00 0. -1.
</event>
<event>
 7    1  0.2976321E-013  0.7246154E+02  0.7816164E-02  0.1226708E+00
        -11   -1    0    0    0    0  0.00000000000E+00  0.00000000000E+00  0.45593999997E+02  0.45594000000E+02  0.51100000000E-03 0.  1.
         11   -1    0    0    0    0 -0.00000000000E+00 -0.00000000000E+00 -0.45593999997E+02  0.45594000000E+02  0.51100000000E-03 0. -1.
    9900012    2    1    2    0    0 -0.96875140929E+01 -0.11004858326E+02 -0.11650125598E+02  0.72461541111E+02  0.69999961983E+02 0.  0.
         12    1    1    2    0    0  0.96875140929E+01  0.11004858326E+02  0.11650125598E+02  0.18726458889E+02  0.00000000000E+00 0. -1.
         11    1    3    3    0    0  0.44888327626E+01 -0.14437978905E+02  0.81201340681E+01  0.17162209414E+02  0.51100000000E-03 0. -1.
        -11    1    3    3    0    0  0.11309423912E+02 -0.15410273102E+02 -0.27155980476E+01  0.19306839702E+02  0.51100000000E-03 0.  1.
         12    1    3    3    0    0 -0.25485770767E+02  0.18843393681E+02 -0.17054661619E+02  0.35992491994E+02  0.00000000000E+00 0. -1.
</event>
<event>
 7    1  0.3194595E-013  0.7246157E+02  0.7816164E-02  0.1226708E+00
        -11   -1    0    0    0    0  0.00000000000E+00  0.00000000000E+00  0.45593999997E+02  0.45594000000E+02  0.51100000000E-03 0.  1.
         11   -1    0    0    0    0 -0.00000000000E+00 -0.00000000000E+00 -0.45593999997E+02  0.45594000000E+02  0.51100000000E-03 0. -1.
    9900012    2    1    2    0    0  0.11413751162E+02  0.14499315113E+02  0.31898791536E+01  0.72461569925E+02  0.69999999519E+02 0.  0.
         12    1    1    2    0    0 -0.11413751162E+02 -0.14499315113E+02 -0.31898791536E+01  0.18726430075E+02  0.00000000000E+00 0. -1.
         11    1    3    3    0    0 -0.11225383400E+02  0.25346680266E+02 -0.15213285501E+02  0.31621313840E+02  0.51100000000E-03 0. -1.
        -11    1    3    3    0    0  0.13344821895E+02  0.65027630182E+01  0.15453946637E+01  0.14925094412E+02  0.51100000000E-03 0.  1.
        -12    1    3    3    0    0  0.92943126659E+01 -0.17350128171E+02  0.16857769990E+02  0.25915161673E+02  0.00000000000E+00 0.  1.
</event>
<event>
 7    1  0.2976321E-013  0.7246144E+02  0.7816164E-02  0.1226708E+00
        -11   -1    0    0    0    0  0.00000000000E+00  0.00000000000E+00  0.45593999997E+02  0.45594000000E+02  0.51100000000E-03 0.  1.
         11   -1    0    0    0    0 -0.00000000000E+00 -0.00000000000E+00 -0.45593999997E+02  0.45594000000E+02  0.51100000000E-03 0. -1.
    9900012    2    1    2    0    0  0.33167470227E+01  0.14691939888E+02  0.11127905291E+02  0.72461436390E+02  0.69999825564E+02 0.  0.
         12    1    1    2    0    0 -0.33167470227E+01 -0.14691939888E+02 -0.11127905291E+02  0.18726563610E+02  0.00000000000E+00 0. -1.
         11    1    3    3    0    0  0.21246173119E+02  0.13953130693E+02  0.31271736272E+02  0.40299022545E+02  0.51100000000E-03 0. -1.
        -11    1    3    3    0    0  0.20045518772E+00  0.57257494943E+01 -0.77665584285E+01  0.96511045813E+01  0.51100000000E-03 0.  1.
        -12    1    3    3    0    0 -0.18129881284E+02 -0.49869403001E+01 -0.12377272553E+02  0.22511309264E+02  0.00000000000E+00 0.  1.
</event>
<event>
 7    1  0.2976321E-013  0.7246160E+02  0.7816164E-02  0.1226708E+00
        -11   -1    0    0    0    0  0.00000000000E+00  0.00000000000E+00  0.45593999997E+02  0.45594000000E+02  0.51100000000E-03 0.  1.
         11   -1    0    0    0    0 -0.00000000000E+00 -0.00000000000E+00 -0.45593999997E+02  0.45594000000E+02  0.51100000000E-03 0. -1.
    9900012    2    1    2    0    0  0.11288064919E+02  0.11011194470E+02  0.10100053116E+02  0.72461604559E+02  0.70000044636E+02 0.  0.
         12    1    1    2    0    0 -0.11288064919E+02 -0.11011194470E+02 -0.10100053116E+02  0.18726395441E+02  0.00000000000E+00 0. -1.
         11    1    3    3    0    0 -0.59545392743E+01 -0.25208671849E+02 -0.30975566375E+01  0.26086941786E+02  0.51100000000E-03 0. -1.
        -11    1    3    3    0    0  0.25112644918E+01  0.12247962848E+01 -0.38474502957E+01  0.47549394661E+01  0.51100000000E-03 0.  1.
        -12    1    3    3    0    0  0.14731339701E+02  0.34995070034E+02  0.17045060049E+02  0.41619723307E+02  0.00000000000E+00 0.  1.
</event>
<event>
 7    1  0.2976321E-013  0.7246151E+02  0.7816164E-02  0.1226708E+00
        -11   -1    0    0    0    0  0.00000000000E+00  0.00000000000E+00  0.45593999997E+02  0.45594000000E+02  0.51100000000E-03 0.  1.
         11   -1    0    0    0    0 -0.00000000000E+00 -0.00000000000E+00 -0.45593999997E+02  0.45594000000E+02  0.51100000000E-03 0. -1.
    9900012    2    1    2    0    0  0.11910722814E+02  0.89533222760E+01  0.11342581202E+02  0.72461509511E+02  0.69999920818E+02 0.  0.
         12    1    1    2    0    0 -0.11910722814E+02 -0.89533222760E+01 -0.11342581202E+02  0.18726490489E+02  0.00000000000E+00 0. -1.
         11    1    3    3    0    0 -0.11296617389E+02  0.22282779302E+02 -0.13927172253E+02  0.28602481450E+02  0.51100000000E-03 0. -1.
        -11    1    3    3    0    0 -0.34904169008E+01 -0.58992626023E+00 -0.16103272895E+01  0.38889815344E+01  0.51100000000E-03 0.  1.
        -12    1    3    3    0    0  0.26697757104E+02 -0.12739530766E+02  0.26880080744E+02  0.39970046526E+02  0.00000000000E+00 0.  1.
</event>
<event>
 7    1  0.2976321E-013  0.7246167E+02  0.7816164E-02  0.1226708E+00
        -11   -1    0    0    0    0  0.00000000000E+00  0.00000000000E+00  0.45593999997E+02  0.45594000000E+02  0.51100000000E-03 0.  1.
         11   -1    0    0    0    0 -0.00000000000E+00 -0.00000000000E+00 -0.45593999997E+02  0.45594000000E+02  0.51100000000E-03 0. -1.
    9900012    2    1    2    0    0 -0.11485980985E+02  0.13990792079E+02 -0.47964050885E+01  0.72461667632E+02  0.70000126800E+02 0.  0.
         12    1    1    2    0    0  0.11485980985E+02 -0.13990792079E+02  0.47964050885E+01  0.18726332368E+02  0.00000000000E+00 0. -1.
         11    1    3    3    0    0 -0.27818323849E+01  0.17070861488E+02  0.23193863437E+01  0.17450858335E+02  0.51100000000E-03 0. -1.
        -11    1    3    3    0    0 -0.19380811583E+02  0.19350028068E+02 -0.11644983606E+02  0.29759789773E+02  0.51100000000E-03 0.  1.
         12    1    3    3    0    0  0.10676662983E+02 -0.22430097477E+02  0.45291921740E+01  0.25251019524E+02  0.00000000000E+00 0. -1.
</event>
<event>
 7    1  0.2976321E-013  0.7246136E+02  0.7816164E-02  0.1226709E+00
        -11   -1    0    0    0    0  0.00000000000E+00  0.00000000000E+00  0.45593999997E+02  0.45594000000E+02  0.51100000000E-03 0.  1.
         11   -1    0    0    0    0 -0.00000000000E+00 -0.00000000000E+00 -0.45593999997E+02  0.45594000000E+02  0.51100000000E-03 0. -1.
    9900012    2    1    2    0    0  0.41199217515E+01  0.11821944280E+02  0.13926770671E+02  0.72461359535E+02  0.69999725446E+02 0.  0.
         12    1    1    2    0    0 -0.41199217515E+01 -0.11821944280E+02 -0.13926770671E+02  0.18726640465E+02  0.00000000000E+00 0. -1.
         11    1    3    3    0    0 -0.55427022713E+01  0.97194729251E+01 -0.79086620656E+01  0.13701702023E+02  0.51100000000E-03 0. -1.
        -11    1    3    3    0    0 -0.19389130305E+02 -0.69690583196E+01 -0.11263791370E+01  0.20634313124E+02  0.51100000000E-03 0.  1.
         12    1    3    3    0    0  0.29051754328E+02  0.90715296745E+01  0.22961811873E+02  0.38125344388E+02  0.00000000000E+00 0. -1.
</event>
<event>
 7    1  0.2976321E-013  0.7246157E+02  0.7816164E-02  0.1226708E+00
        -11   -1    0    0    0    0  0.00000000000E+00  0.00000000000E+00  0.45593999997E+02  0.45594000000E+02  0.51100000000E-03 0. -1.
         11   -1    0    0    0    0 -0.00000000000E+00 -0.00000000000E+00 -0.45593999997E+02  0.45594000000E+02  0.51100000000E-03 0.  1.
    9900012    2    1    2    0    0  0.24105849691E+01  0.12637286231E+02 -0.13607616867E+02  0.72461570549E+02  0.70000000332E+02 0.  0.
         12    1    1    2    0    0 -0.24105849691E+01 -0.12637286231E+02  0.13607616867E+02  0.18726429451E+02  0.00000000000E+00 0. -1.
         11    1    3    3    0    0 -0.12197675599E+02 -0.48484230900E+01 -0.12213621455E+02  0.17929390558E+02  0.51100000000E-03 0. -1.
        -11    1    3    3    0    0  0.23301635609E+02 -0.87974690719E+01 -0.78328367099E+01  0.26109672830E+02  0.51100000000E-03 0.  1.
        -12    1    3    3    0    0 -0.86933750409E+01  0.26283178393E+02  0.64388412982E+01  0.28422507161E+02  0.00000000000E+00 0.  1.
</event>
<event>
 7    1  0.2976321E-013  0.7246157E+02  0.7816164E-02  0.1226708E+00
        -11   -1    0    0    0    0  0.00000000000E+00  0.00000000000E+00  0.45593999997E+02  0.45594000000E+02  0.51100000000E-03 0. -1.
         11   -1    0    0    0    0 -0.00000000000E+00 -0.00000000000E+00 -0.45593999997E+02  0.45594000000E+02  0.51100000000E-03 0.  1.
    9900012    2    1    2    0    0  0.48750977504E+00  0.11077126332E+02 -0.15091014073E+02  0.72461572169E+02  0.70000002443E+02 0.  0.
         12    1    1    2    0    0 -0.48750977504E+00 -0.11077126332E+02  0.15091014073E+02  0.18726427831E+02  0.00000000000E+00 0. -1.
         11    1    3    3    0    0 -0.97421213766E+01 -0.38524584721E+01 -0.13303599294E+02  0.16933284372E+02  0.51100000000E-03 0. -1.
        -11    1    3    3    0    0  0.28369467179E+02  0.65198888642E+01 -0.13787556157E+02  0.32209196262E+02  0.51100000000E-03 0.  1.
         12    1    3    3    0    0 -0.18139836027E+02  0.84096959395E+01  0.12000141379E+02  0.23319091535E+02  0.00000000000E+00 0. -1.
</event>
<event>
 7    1  0.2976321E-013  0.7246187E+02  0.7816164E-02  0.1226707E+00
        -11   -1    0    0    0    0  0.00000000000E+00  0.00000000000E+00  0.45593999997E+02  0.45594000000E+02  0.51100000000E-03 0.  1.
         11   -1    0    0    0    0 -0.00000000000E+00 -0.00000000000E+00 -0.45593999997E+02  0.45594000000E+02  0.51100000000E-03 0. -1.
    9900012    2    1    2    0    0 -0.13008103697E+02 -0.75369715647E+00  0.13449499960E+02  0.72461871986E+02  0.70000393009E+02 0.  0.
         12    1    1    2    0    0  0.13008103697E+02  0.75369715647E+00 -0.13449499960E+02  0.18726128014E+02  0.00000000000E+00 0. -1.
         11    1    3    3    0    0  0.74016548086E+01 -0.74448790850E+01 -0.93509671009E+01  0.14058851464E+02  0.51100000000E-03 0. -1.
        -11    1    3    3    0    0  0.31549072743E+01 -0.17030932904E+02 -0.10170798247E+01  0.17350520658E+02  0.51100000000E-03 0.  1.
        -12    1    3    3    0    0 -0.23564665780E+02  0.23722114832E+02  0.23817546886E+02  0.41052499864E+02  0.00000000000E+00 0.  1.
</event>
<event>
 7    1  0.2976321E-013  0.7246163E+02  0.7816164E-02  0.1226708E+00
        -11   -1    0    0    0    0  0.00000000000E+00  0.00000000000E+00  0.45593999997E+02  0.45594000000E+02  0.51100000000E-03 0. -1.
         11   -1    0    0    0    0 -0.00000000000E+00 -0.00000000000E+00 -0.45593999997E+02  0.45594000000E+02  0.51100000000E-03 0.  1.
    9900012    2    1    2    0    0  0.16731562639E+02 -0.92224370452E+00 -0.83594994619E+01  0.72461629475E+02  0.70000077094E+02 0.  0.
         12    1    1    2    0    0 -0.16731562639E+02  0.92224370452E+00  0.83594994619E+01  0.18726370525E+02  0.00000000000E+00 0. -1.
         11    1    3    3    0    0 -0.21843153232E+02  0.98713249840E+01 -0.21749578543E+01  0.24068586207E+02  0.51100000000E-03 0. -1.
        -11    1    3    3    0    0  0.17968984783E+02  0.44665265703E+01  0.67076249636E+01  0.19693311216E+02  0.51100000000E-03 0.  1.
        -12    1    3    3    0    0  0.20605731087E+02 -0.15260095259E+02 -0.12892166571E+02  0.28699732052E+02  0.00000000000E+00 0.  1.
</event>
<event>
 7    1  0.2976321E-013  0.7246152E+02  0.7816164E-02  0.1226708E+00
        -11   -1    0    0    0    0  0.00000000000E+00  0.00000000000E+00  0.45593999997E+02  0.45594000000E+02  0.51100000000E-03 0. -1.
         11   -1    0    0    0    0 -0.00000000000E+00 -0.00000000000E+00 -0.45593999997E+02  0.45594000000E+02  0.51100000000E-03 0.  1.
    9900012    2    1    2    0    0 -0.94301485921E+01 -0.13790035739E+02 -0.84609880272E+01  0.72461518576E+02  0.69999932627E+02 0.  0.
         12    1    1    2    0    0  0.94301485921E+01  0.13790035739E+02  0.84609880272E+01  0.18726481424E+02  0.00000000000E+00 0. -1.
         11    1    3    3    0    0 -0.24584647791E+01  0.57824369535E+01  0.15360636719E+02  0.16596077454E+02  0.51100000000E-03 0. -1.
        -11    1    3    3    0    0  0.16412464898E+02 -0.38224044278E+01  0.28076454212E+01  0.17083988197E+02  0.51100000000E-03 0.  1.
         12    1    3    3    0    0 -0.23384148711E+02 -0.15750068264E+02 -0.26629270167E+02  0.38781452924E+02  0.00000000000E+00 0. -1.
</event>
<event>
 7    1  0.2976321E-013  0.7246161E+02  0.7816164E-02  0.1226708E+00
        -11   -1    0    0    0    0  0.00000000000E+00  0.00000000000E+00  0.45593999997E+02  0.45594000000E+02  0.51100000000E-03 0.  1.
         11   -1    0    0    0    0 -0.00000000000E+00 -0.00000000000E+00 -0.45593999997E+02  0.45594000000E+02  0.51100000000E-03 0. -1.
    9900012    2    1    2    0    0  0.48526583235E+01  0.13684559638E+01 -0.18034873470E+02  0.72461611517E+02  0.70000053700E+02 0.  0.
         12    1    1    2    0    0 -0.48526583235E+01 -0.13684559638E+01  0.18034873470E+02  0.18726388483E+02  0.00000000000E+00 0. -1.
         11    1    3    3    0    0 -0.51653316133E+00 -0.88016881031E+01 -0.34981529769E+02  0.36075531115E+02  0.51100000000E-03 0. -1.
        -11    1    3    3    0    0  0.48444826225E+01  0.17529669366E+02  0.31297836658E+00  0.18189455068E+02  0.51100000000E-03 0.  1.
        -12    1    3    3    0    0  0.52470886226E+00 -0.73595252989E+01  0.16633677932E+02  0.18196625335E+02  0.00000000000E+00 0.  1.
</event>
<event>
 7    1  0.2976321E-013  0.7246170E+02  0.7816164E-02  0.1226708E+00
        -11   -1    0    0    0    0  0.00000000000E+00  0.00000000000E+00  0.45593999997E+02  0.45594000000E+02  0.51100000000E-03 0. -1.
         11   -1    0    0    0    0 -0.00000000000E+00 -0.00000000000E+00 -0.45593999997E+02  0.45594000000E+02  0.51100000000E-03 0.  1.
    9900012    2    1    2    0    0  0.72600167501E+01 -0.13805320054E+02 -0.10362415591E+02  0.72461698660E+02  0.70000167220E+02 0.  0.
         12    1    1    2    0    0 -0.72600167501E+01  0.13805320054E+02  0.10362415591E+02  0.18726301340E+02  0.00000000000E+00 0. -1.
         11    1    3    3    0    0 -0.74594282613E+01 -0.16130434508E+02 -0.42204809093E+01  0.18265991535E+02  0.51100000000E-03 0. -1.
        -11    1    3    3    0    0 -0.65937452076E+01  0.13415755680E+02 -0.21126128876E+02  0.25879978707E+02  0.51100000000E-03 0.  1.
         12    1    3    3    0    0  0.21313190219E+02 -0.11090641227E+02  0.14984194195E+02  0.28315728417E+02  0.00000000000E+00 0. -1.
</event>
<event>
 7    1  0.2976321E-013  0.7246144E+02  0.7816164E-02  0.1226708E+00
        -11   -1    0    0    0    0  0.00000000000E+00  0.00000000000E+00  0.45593999997E+02  0.45594000000E+02  0.51100000000E-03 0.  1.
         11   -1    0    0    0    0 -0.00000000000E+00 -0.00000000000E+00 -0.45593999997E+02  0.45594000000E+02  0.51100000000E-03 0. -1.
    9900012    2    1    2    0    0 -0.12713513299E+02 -0.11739256849E+02  0.71582375724E+01  0.72461443005E+02  0.69999834181E+02 0.  0.
         12    1    1    2    0    0  0.12713513299E+02  0.11739256849E+02 -0.71582375724E+01  0.18726556995E+02  0.00000000000E+00 0. -1.
         11    1    3    3    0    0  0.28145797463E-01  0.75983514404E+00  0.41662185841E+01  0.42350347323E+01  0.51100000000E-03 0. -1.
        -11    1    3    3    0    0  0.24262593072E+02  0.46973447251E+01  0.10297683209E+02  0.26772761340E+02  0.51100000000E-03 0.  1.
         12    1    3    3    0    0 -0.37004252168E+02 -0.17196436718E+02 -0.73056642206E+01  0.41453646932E+02  0.00000000000E+00 0. -1.
</event>
<event>
 7    1  0.3018722E-013  0.7246156E+02  0.7816164E-02  0.1226708E+00
        -11   -1    0    0    0    0  0.00000000000E+00  0.00000000000E+00  0.45593999997E+02  0.45594000000E+02  0.51100000000E-03 0.  1.
         11   -1    0    0    0    0 -0.00000000000E+00 -0.00000000000E+00 -0.45593999997E+02  0.45594000000E+02  0.51100000000E-03 0. -1.
    9900012    2    1    2    0    0 -0.52357967483E+01 -0.17155146130E+02  0.53820922840E+01  0.72461560838E+02  0.69999987681E+02 0.  0.
         12    1    1    2    0    0  0.52357967483E+01  0.17155146130E+02 -0.53820922840E+01  0.18726439162E+02  0.00000000000E+00 0. -1.
         11    1    3    3    0    0  0.13022365539E+02  0.12567347807E+02 -0.84873474549E+00  0.18117411130E+02  0.51100000000E-03 0. -1.
        -11    1    3    3    0    0  0.64912623166E+01 -0.38327332412E+01 -0.11987360708E+02  0.14160619604E+02  0.51100000000E-03 0.  1.
        -12    1    3    3    0    0 -0.24749424604E+02 -0.25889760696E+02  0.18218187737E+02  0.40183530104E+02  0.00000000000E+00 0.  1.
</event>
<event>
 7    1  0.2976321E-013  0.7246157E+02  0.7816164E-02  0.1226708E+00
        -11   -1    0    0    0    0  0.00000000000E+00  0.00000000000E+00  0.45593999997E+02  0.45594000000E+02  0.51100000000E-03 0. -1.
         11   -1    0    0    0    0 -0.00000000000E+00 -0.00000000000E+00 -0.45593999997E+02  0.45594000000E+02  0.51100000000E-03 0.  1.
    9900012    2    1    2    0    0 -0.96474251741E+01 -0.15906912153E+02 -0.21393102237E+01  0.72461566411E+02  0.69999994941E+02 0.  0.
         12    1    1    2    0    0  0.96474251741E+01  0.15906912153E+02  0.21393102237E+01  0.18726433589E+02  0.00000000000E+00 0. -1.
         11    1    3    3    0    0  0.12954004692E+01 -0.98450573379E+01  0.16371709742E+02  0.19147743901E+02  0.51100000000E-03 0. -1.
        -11    1    3    3    0    0  0.79171571854E+01  0.71758480609E+01  0.11355188859E+02  0.15592129026E+02  0.51100000000E-03 0.  1.
        -12    1    3    3    0    0 -0.18859982829E+02 -0.13237702876E+02 -0.29866208824E+02  0.37721693484E+02  0.00000000000E+00 0.  1.
</event>
<event>
 7    1  0.2976321E-013  0.7246157E+02  0.7816164E-02  0.1226708E+00
        -11   -1    0    0    0    0  0.00000000000E+00  0.00000000000E+00  0.45593999997E+02  0.45594000000E+02  0.51100000000E-03 0. -1.
         11   -1    0    0    0    0 -0.00000000000E+00 -0.00000000000E+00 -0.45593999997E+02  0.45594000000E+02  0.51100000000E-03 0.  1.
    9900012    2    1    2    0    0  0.10230406770E+02 -0.12117392471E+02 -0.99592598939E+01  0.72461567328E+02  0.69999996136E+02 0.  0.
         12    1    1    2    0    0 -0.10230406770E+02  0.12117392471E+02  0.99592598939E+01  0.18726432672E+02  0.00000000000E+00 0. -1.
         11    1    3    3    0    0  0.55726857127E+01 -0.46934384983E+01 -0.45857767008E+01  0.86088639901E+01  0.51100000000E-03 0. -1.
        -11    1    3    3    0    0 -0.22466477348E+02 -0.23160006799E+02 -0.29320583213E+01  0.32399467366E+02  0.51100000000E-03 0.  1.
         12    1    3    3    0    0  0.27124198405E+02  0.15736052826E+02 -0.24414248718E+01  0.31453235972E+02  0.00000000000E+00 0. -1.
</event>
<event>
 7    1  0.2976321E-013  0.7246158E+02  0.7816164E-02  0.1226708E+00
        -11   -1    0    0    0    0  0.00000000000E+00  0.00000000000E+00  0.45593999997E+02  0.45594000000E+02  0.51100000000E-03 0.  1.
         11   -1    0    0    0    0 -0.00000000000E+00 -0.00000000000E+00 -0.45593999997E+02  0.45594000000E+02  0.51100000000E-03 0. -1.
    9900012    2    1    2    0    0 -0.16834715302E+02 -0.29564008877E+01  0.76505512795E+01  0.72461578014E+02  0.70000010057E+02 0.  0.
         12    1    1    2    0    0  0.16834715302E+02  0.29564008877E+01 -0.76505512795E+01  0.18726421986E+02  0.00000000000E+00 0. -1.
         11    1    3    3    0    0 -0.14010674240E+02 -0.27250728936E+02  0.15641611776E+02  0.34402924867E+02  0.51100000000E-03 0. -1.
        -11    1    3    3    0    0  0.29592266064E+01  0.88552012769E+01  0.99828986540E+01  0.13668572623E+02  0.51100000000E-03 0.  1.
        -12    1    3    3    0    0 -0.57832676685E+01  0.15439126772E+02 -0.17973959151E+02  0.24390080524E+02  0.00000000000E+00 0.  1.
</event>
<event>
 7    1  0.2976321E-013  0.7246161E+02  0.7816164E-02  0.1226708E+00
        -11   -1    0    0    0    0  0.00000000000E+00  0.00000000000E+00  0.45593999997E+02  0.45594000000E+02  0.51100000000E-03 0. -1.
         11   -1    0    0    0    0 -0.00000000000E+00 -0.00000000000E+00 -0.45593999997E+02  0.45594000000E+02  0.51100000000E-03 0.  1.
    9900012    2    1    2    0    0 -0.77342502297E+01  0.76648875321E+01 -0.15235114032E+02  0.72461606138E+02  0.70000046693E+02 0.  0.
         12    1    1    2    0    0  0.77342502297E+01 -0.76648875321E+01  0.15235114032E+02  0.18726393862E+02  0.00000000000E+00 0. -1.
         11    1    3    3    0    0 -0.92587957871E+00  0.99754490128E+01 -0.84083216268E+01  0.13079247258E+02  0.51100000000E-03 0. -1.
        -11    1    3    3    0    0  0.15569455203E+02 -0.23387227910E+02 -0.53898475089E+01  0.28608055178E+02  0.51100000000E-03 0.  1.
         12    1    3    3    0    0 -0.22377825854E+02  0.21076666429E+02 -0.14369448964E+01  0.30774303702E+02  0.00000000000E+00 0. -1.
</event>
<event>
 7    1  0.3345528E-013  0.7246151E+02  0.7816164E-02  0.1226708E+00
        -11   -1    0    0    0    0  0.00000000000E+00  0.00000000000E+00  0.45593999997E+02  0.45594000000E+02  0.51100000000E-03 0.  1.
         11   -1    0    0    0    0 -0.00000000000E+00 -0.00000000000E+00 -0.45593999997E+02  0.45594000000E+02  0.51100000000E-03 0. -1.
    9900012    2    1    2    0    0  0.14114489787E+02  0.36911625160E+01  0.11740441747E+02  0.72461508735E+02  0.69999919808E+02 0.  0.
         12    1    1    2    0    0 -0.14114489787E+02 -0.36911625160E+01 -0.11740441747E+02  0.18726491265E+02  0.00000000000E+00 0. -1.
         11    1    3    3    0    0 -0.11878285233E+02 -0.35932023286E+01 -0.17445940329E+02  0.21409474474E+02  0.51100000000E-03 0. -1.
        -11    1    3    3    0    0 -0.65155527810E+01  0.12840426619E+01 -0.44829023026E+00  0.66559866279E+01  0.51100000000E-03 0.  1.
        -12    1    3    3    0    0  0.32508327801E+02  0.60003221827E+01  0.29634672306E+02  0.44396047633E+02  0.00000000000E+00 0.  1.
</event>
<event>
 7    1  0.2976321E-013  0.7246158E+02  0.7816164E-02  0.1226708E+00
        -11   -1    0    0    0    0  0.00000000000E+00  0.00000000000E+00  0.45593999997E+02  0.45594000000E+02  0.51100000000E-03 0.  1.
         11   -1    0    0    0    0 -0.00000000000E+00 -0.00000000000E+00 -0.45593999997E+02  0.45594000000E+02  0.51100000000E-03 0. -1.
    9900012    2    1    2    0    0 -0.16314522636E+02  0.10115680755E+01  0.91373980432E+01  0.72461575841E+02  0.70000007225E+02 0.  0.
         12    1    1    2    0    0  0.16314522636E+02 -0.10115680755E+01 -0.91373980432E+01  0.18726424159E+02  0.00000000000E+00 0. -1.
         11    1    3    3    0    0 -0.16977089249E+01 -0.48452392630E+01  0.55495470982E+01  0.75601608690E+01  0.51100000000E-03 0. -1.
        -11    1    3    3    0    0  0.12596489678E+02 -0.11255798146E+02  0.22091282477E+02  0.27809877847E+02  0.51100000000E-03 0.  1.
         12    1    3    3    0    0 -0.27213303389E+02  0.17112605485E+02 -0.18503431532E+02  0.37091537125E+02  0.00000000000E+00 0. -1.
</event>
<event>
 7    1  0.2976321E-013  0.7246162E+02  0.7816164E-02  0.1226708E+00
        -11   -1    0    0    0    0  0.00000000000E+00  0.00000000000E+00  0.45593999997E+02  0.45594000000E+02  0.51100000000E-03 0. -1.
         11   -1    0    0    0    0 -0.00000000000E+00 -0.00000000000E+00 -0.45593999997E+02  0.45594000000E+02  0.51100000000E-03 0.  1.
    9900012    2    1    2    0    0  0.83957329072E+01 -0.74589228515E+01 -0.14985112572E+02  0.72461615941E+02  0.70000059463E+02 0.  0.
         12    1    1    2    0    0 -0.83957329072E+01  0.74589228515E+01  0.14985112572E+02  0.18726384059E+02  0.00000000000E+00 0. -1.
         11    1    3    3    0    0  0.61767716490E+01  0.28385443055E+01  0.39878067512E+01  0.78811448866E+01  0.51100000000E-03 0. -1.
        -11    1    3    3    0    0  0.21360380697E+02 -0.17405985490E+02  0.98465405476E+01  0.29260699845E+02  0.51100000000E-03 0.  1.
         12    1    3    3    0    0 -0.19141419439E+02  0.71085183331E+01 -0.28819459871E+02  0.35319771209E+02  0.00000000000E+00 0. -1.
</event>
<event>
 7    1  0.2976321E-013  0.7246158E+02  0.7816164E-02  0.1226708E+00
        -11   -1    0    0    0    0  0.00000000000E+00  0.00000000000E+00  0.45593999997E+02  0.45594000000E+02  0.51100000000E-03 0.  1.
         11   -1    0    0    0    0 -0.00000000000E+00 -0.00000000000E+00 -0.45593999997E+02  0.45594000000E+02  0.51100000000E-03 0. -1.
    9900012    2    1    2    0    0  0.45633397044E+01  0.18074726882E+02  0.17773997953E+01  0.72461575591E+02  0.70000006900E+02 0.  0.
         12    1    1    2    0    0 -0.45633397044E+01 -0.18074726882E+02 -0.17773997953E+01  0.18726424409E+02  0.00000000000E+00 0. -1.
         11    1    3    3    0    0 -0.15512638124E+01 -0.90089986552E+01  0.29389220340E+01  0.96023819529E+01  0.51100000000E-03 0. -1.
        -11    1    3    3    0    0  0.11763790586E+02 -0.54661249971E+01  0.19845955673E+02  0.23709222852E+02  0.51100000000E-03 0.  1.
         12    1    3    3    0    0 -0.56491870689E+01  0.32549850534E+02 -0.21007477911E+02  0.39149970786E+02  0.00000000000E+00 0. -1.
</event>
<event>
 7    1  0.2976321E-013  0.7246161E+02  0.7816164E-02  0.1226708E+00
        -11   -1    0    0    0    0  0.00000000000E+00  0.00000000000E+00  0.45593999997E+02  0.45594000000E+02  0.51100000000E-03 0.  1.
         11   -1    0    0    0    0 -0.00000000000E+00 -0.00000000000E+00 -0.45593999997E+02  0.45594000000E+02  0.51100000000E-03 0. -1.
    9900012    2    1    2    0    0 -0.60777436808E+01 -0.53344273648E+01  0.16890312779E+02  0.72461608214E+02  0.70000049397E+02 0.  0.
         12    1    1    2    0    0  0.60777436808E+01  0.53344273648E+01 -0.16890312779E+02  0.18726391786E+02  0.00000000000E+00 0. -1.
         11    1    3    3    0    0 -0.95158578811E+01  0.36449716667E+00  0.42690759924E+01  0.10435967587E+02  0.51100000000E-03 0. -1.
        -11    1    3    3    0    0 -0.15333236636E+02  0.27525781514E+01  0.30829776126E+02  0.34542147131E+02  0.51100000000E-03 0.  1.
         12    1    3    3    0    0  0.18771350837E+02 -0.84515026828E+01 -0.18208539339E+02  0.27483493495E+02  0.00000000000E+00 0. -1.
</event>
<event>
 7    1  0.2976321E-013  0.7246179E+02  0.7816164E-02  0.1226707E+00
        -11   -1    0    0    0    0  0.00000000000E+00  0.00000000000E+00  0.45593999997E+02  0.45594000000E+02  0.51100000000E-03 0. -1.
         11   -1    0    0    0    0 -0.00000000000E+00 -0.00000000000E+00 -0.45593999997E+02  0.45594000000E+02  0.51100000000E-03 0.  1.
    9900012    2    1    2    0    0  0.49056455399E+01  0.58901348189E+01 -0.17085434208E+02  0.72461785529E+02  0.70000280382E+02 0.  0.
         12    1    1    2    0    0 -0.49056455399E+01 -0.58901348189E+01  0.17085434208E+02  0.18726214471E+02  0.00000000000E+00 0. -1.
         11    1    3    3    0    0  0.27682461825E+01 -0.42676811834E+01  0.86509239773E+01  0.10035675141E+02  0.51100000000E-03 0. -1.
        -11    1    3    3    0    0 -0.23671350484E+02 -0.67040332690E+01 -0.45509318840E+01  0.25019749741E+02  0.51100000000E-03 0.  1.
        -12    1    3    3    0    0  0.25808749842E+02  0.16861849271E+02 -0.21185426301E+02  0.37406360647E+02  0.00000000000E+00 0.  1.
</event>
<event>
 7    1  0.2976321E-013  0.7246153E+02  0.7816164E-02  0.1226708E+00
        -11   -1    0    0    0    0  0.00000000000E+00  0.00000000000E+00  0.45593999997E+02  0.45594000000E+02  0.51100000000E-03 0.  1.
         11   -1    0    0    0    0 -0.00000000000E+00 -0.00000000000E+00 -0.45593999997E+02  0.45594000000E+02  0.51100000000E-03 0. -1.
    9900012    2    1    2    0    0 -0.16470047250E+02  0.70216989283E+01  0.54876324666E+01  0.72461526164E+02  0.69999942512E+02 0.  0.
         12    1    1    2    0    0  0.16470047250E+02 -0.70216989283E+01 -0.54876324666E+01  0.18726473836E+02  0.00000000000E+00 0. -1.
         11    1    3    3    0    0 -0.26815467289E+01 -0.56316495495E+01 -0.78943764121E+01  0.10061180284E+02  0.51100000000E-03 0. -1.
        -11    1    3    3    0    0 -0.36508576733E+02  0.44622673939E+01  0.73612079897E+01  0.37509670603E+02  0.51100000000E-03 0.  1.
         12    1    3    3    0    0  0.22720076213E+02  0.81910810839E+01  0.60208008889E+01  0.24890675278E+02  0.00000000000E+00 0. -1.
</event>
<event>
 7    1  0.2976321E-013  0.7246163E+02  0.7816164E-02  0.1226708E+00
        -11   -1    0    0    0    0  0.00000000000E+00  0.00000000000E+00  0.45593999997E+02  0.45594000000E+02  0.51100000000E-03 0.  1.
         11   -1    0    0    0    0 -0.00000000000E+00 -0.00000000000E+00 -0.45593999997E+02  0.45594000000E+02  0.51100000000E-03 0. -1.
    9900012    2    1    2    0    0  0.16467057631E+02 -0.70425703946E+01 -0.54694688189E+01  0.72461631586E+02  0.70000079844E+02 0.  0.
         12    1    1    2    0    0 -0.16467057631E+02  0.70425703946E+01  0.54694688189E+01  0.18726368414E+02  0.00000000000E+00 0. -1.
         11    1    3    3    0    0  0.98507822945E+00  0.16727926050E+02 -0.35557785753E+01  0.17130016071E+02  0.51100000000E-03 0. -1.
        -11    1    3    3    0    0  0.11968413353E+01 -0.32301921352E+02  0.11133099563E+02  0.34187606795E+02  0.51100000000E-03 0.  1.
         12    1    3    3    0    0  0.14285138067E+02  0.85314249080E+01 -0.13046789806E+02  0.21144008721E+02  0.00000000000E+00 0. -1.
</event>
<event>
 7    1  0.2976321E-013  0.7246157E+02  0.7816164E-02  0.1226708E+00
        -11   -1    0    0    0    0  0.00000000000E+00  0.00000000000E+00  0.45593999997E+02  0.45594000000E+02  0.51100000000E-03 0.  1.
         11   -1    0    0    0    0 -0.00000000000E+00 -0.00000000000E+00 -0.45593999997E+02  0.45594000000E+02  0.51100000000E-03 0. -1.
    9900012    2    1    2    0    0 -0.18595691044E+02 -0.52742504924E+00 -0.21450748566E+01  0.72461568180E+02  0.69999997245E+02 0.  0.
         12    1    1    2    0    0  0.18595691044E+02  0.52742504924E+00  0.21450748566E+01  0.18726431820E+02  0.00000000000E+00 0. -1.
         11    1    3    3    0    0 -0.67086494029E+01  0.17274278729E+02 -0.62213610788E+01  0.19547685703E+02  0.51100000000E-03 0. -1.
        -11    1    3    3    0    0  0.14112143638E+02  0.79124079342E+01  0.76852720922E+00  0.16197204441E+02  0.51100000000E-03 0.  1.
        -12    1    3    3    0    0 -0.25999185278E+02 -0.25714111712E+02  0.33077590130E+01  0.36716678036E+02  0.00000000000E+00 0.  1.
</event>
<event>
 7    1  0.2976321E-013  0.7246151E+02  0.7816164E-02  0.1226708E+00
        -11   -1    0    0    0    0  0.00000000000E+00  0.00000000000E+00  0.45593999997E+02  0.45594000000E+02  0.51100000000E-03 0. -1.
         11   -1    0    0    0    0 -0.00000000000E+00 -0.00000000000E+00 -0.45593999997E+02  0.45594000000E+02  0.51100000000E-03 0.  1.
    9900012    2    1    2    0    0 -0.10764188582E+02 -0.13104446314E+02 -0.79427509972E+01  0.72461506403E+02  0.69999916769E+02 0.  0.
         12    1    1    2    0    0  0.10764188582E+02  0.13104446314E+02  0.79427509972E+01  0.18726493597E+02  0.00000000000E+00 0. -1.
         11    1    3    3    0    0  0.10519647992E+00 -0.11983615629E+02 -0.46384146935E+01  0.12850408592E+02  0.51100000000E-03 0. -1.
        -11    1    3    3    0    0 -0.19571341171E+02  0.77414368202E+01 -0.26174001550E+02  0.33586390052E+02  0.51100000000E-03 0.  1.
         12    1    3    3    0    0  0.87019561091E+01 -0.88622675051E+01  0.22869665247E+02  0.26024707759E+02  0.00000000000E+00 0. -1.
</event>
<event>
 7    1  0.3040607E-013  0.7246150E+02  0.7816164E-02  0.1226708E+00
        -11   -1    0    0    0    0  0.00000000000E+00  0.00000000000E+00  0.45593999997E+02  0.45594000000E+02  0.51100000000E-03 0. -1.
         11   -1    0    0    0    0 -0.00000000000E+00 -0.00000000000E+00 -0.45593999997E+02  0.45594000000E+02  0.51100000000E-03 0.  1.
    9900012    2    1    2    0    0 -0.66762379289E+01 -0.16209898357E+02 -0.65839851449E+01  0.72461499579E+02  0.69999907880E+02 0.  0.
         12    1    1    2    0    0  0.66762379289E+01  0.16209898357E+02  0.65839851449E+01  0.18726500421E+02  0.00000000000E+00 0. -1.
         11    1    3    3    0    0  0.11471480736E+02  0.10739359263E+02  0.23924955046E+01  0.15895054031E+02  0.51100000000E-03 0. -1.
        -11    1    3    3    0    0 -0.13723145551E+02  0.51469555841E+01  0.11157629041E+02  0.18420330119E+02  0.51100000000E-03 0.  1.
        -12    1    3    3    0    0 -0.44245731142E+01 -0.32096213204E+02 -0.20134109691E+02  0.38146115429E+02  0.00000000000E+00 0.  1.
</event>
<event>
 7    1  0.2976321E-013  0.7246160E+02  0.7816164E-02  0.1226708E+00
        -11   -1    0    0    0    0  0.00000000000E+00  0.00000000000E+00  0.45593999997E+02  0.45594000000E+02  0.51100000000E-03 0.  1.
         11   -1    0    0    0    0 -0.00000000000E+00 -0.00000000000E+00 -0.45593999997E+02  0.45594000000E+02  0.51100000000E-03 0. -1.
    9900012    2    1    2    0    0  0.13500806121E+02  0.13645703688E+01  0.12905206669E+02  0.72461596784E+02  0.70000034508E+02 0.  0.
         12    1    1    2    0    0 -0.13500806121E+02 -0.13645703688E+01 -0.12905206669E+02  0.18726403216E+02  0.00000000000E+00 0. -1.
         11    1    3    3    0    0 -0.14035477512E+02  0.22549663158E+02  0.97200318480E+01  0.28283581048E+02  0.51100000000E-03 0. -1.
        -11    1    3    3    0    0  0.35202356491E+00 -0.13003985834E+02  0.81608162727E+01  0.15356643209E+02  0.51100000000E-03 0.  1.
        -12    1    3    3    0    0  0.27184260069E+02 -0.81811069546E+01 -0.49756414513E+01  0.28821372527E+02  0.00000000000E+00 0.  1.
</event>
<event>
 7    1  0.2976321E-013  0.7246159E+02  0.7816164E-02  0.1226708E+00
        -11   -1    0    0    0    0  0.00000000000E+00  0.00000000000E+00  0.45593999997E+02  0.45594000000E+02  0.51100000000E-03 0. -1.
         11   -1    0    0    0    0 -0.00000000000E+00 -0.00000000000E+00 -0.45593999997E+02  0.45594000000E+02  0.51100000000E-03 0.  1.
    9900012    2    1    2    0    0  0.18269785651E+02  0.39351970223E+01  0.11863615205E+01  0.72461593591E+02  0.70000030348E+02 0.  0.
         12    1    1    2    0    0 -0.18269785651E+02 -0.39351970223E+01 -0.11863615205E+01  0.18726406409E+02  0.00000000000E+00 0. -1.
         11    1    3    3    0    0 -0.42754821032E+01 -0.40601930176E+01  0.42081017388E+01  0.72438273764E+01  0.51100000000E-03 0. -1.
        -11    1    3    3    0    0 -0.92136635325E+01  0.16085748419E+02 -0.20858145688E+02  0.27905288741E+02  0.51100000000E-03 0.  1.
         12    1    3    3    0    0  0.31758931287E+02 -0.80903583796E+01  0.17836405469E+02  0.37312477474E+02  0.00000000000E+00 0. -1.
</event>
<event>
 7    1  0.2976321E-013  0.7246155E+02  0.7816164E-02  0.1226708E+00
        -11   -1    0    0    0    0  0.00000000000E+00  0.00000000000E+00  0.45593999997E+02  0.45594000000E+02  0.51100000000E-03 0.  1.
         11   -1    0    0    0    0 -0.00000000000E+00 -0.00000000000E+00 -0.45593999997E+02  0.45594000000E+02  0.51100000000E-03 0. -1.
    9900012    2    1    2    0    0  0.73114239049E+01  0.88079806024E+01  0.14820340955E+02  0.72461549514E+02  0.69999972929E+02 0.  0.
         12    1    1    2    0    0 -0.73114239049E+01 -0.88079806024E+01 -0.14820340955E+02  0.18726450486E+02  0.00000000000E+00 0. -1.
         11    1    3    3    0    0 -0.50488205392E+01 -0.19592082601E+02 -0.12133694692E+02  0.23591668796E+02  0.51100000000E-03 0. -1.
        -11    1    3    3    0    0 -0.55296476246E+01 -0.16611373378E+00 -0.27623322367E+00  0.55390343635E+01  0.51100000000E-03 0.  1.
        -12    1    3    3    0    0  0.17889892069E+02  0.28566176937E+02  0.27230268870E+02  0.43330846354E+02  0.00000000000E+00 0.  1.
</event>
<event>
 7    1  0.2976321E-013  0.7246156E+02  0.7816164E-02  0.1226708E+00
        -11   -1    0    0    0    0  0.00000000000E+00  0.00000000000E+00  0.45593999997E+02  0.45594000000E+02  0.51100000000E-03 0. -1.
         11   -1    0    0    0    0 -0.00000000000E+00 -0.00000000000E+00 -0.45593999997E+02  0.45594000000E+02  0.51100000000E-03 0.  1.
    9900012    2    1    2    0    0 -0.77674305961E+01  0.10672821079E+02 -0.13282971644E+02  0.72461563512E+02  0.69999991165E+02 0.  0.
         12    1    1    2    0    0  0.77674305961E+01 -0.10672821079E+02  0.13282971644E+02  0.18726436488E+02  0.00000000000E+00 0. -1.
         11    1    3    3    0    0  0.12136185324E+02 -0.13928785350E+01  0.80688461125E+01  0.14640129189E+02  0.51100000000E-03 0. -1.
        -11    1    3    3    0    0 -0.18477646919E+02  0.26579907680E+02 -0.49980471096E+00  0.32375372321E+02  0.51100000000E-03 0.  1.
         12    1    3    3    0    0 -0.14259690011E+01 -0.14514208066E+02 -0.20852013045E+02  0.25446062002E+02  0.00000000000E+00 0. -1.
</event>
<event>
 7    1  0.2976321E-013  0.7246160E+02  0.7816164E-02  0.1226708E+00
        -11   -1    0    0    0    0  0.00000000000E+00  0.00000000000E+00  0.45593999997E+02  0.45594000000E+02  0.51100000000E-03 0. -1.
         11   -1    0    0    0    0 -0.00000000000E+00 -0.00000000000E+00 -0.45593999997E+02  0.45594000000E+02  0.51100000000E-03 0.  1.
    9900012    2    1    2    0    0  0.16859678725E+02  0.12641154082E+01 -0.80517950027E+01  0.72461597322E+02  0.70000035209E+02 0.  0.
         12    1    1    2    0    0 -0.16859678725E+02 -0.12641154082E+01  0.80517950027E+01  0.18726402678E+02  0.00000000000E+00 0. -1.
         11    1    3    3    0    0  0.25716691202E+02 -0.11955394190E+02  0.24160918932E+01  0.28462557104E+02  0.51100000000E-03 0. -1.
        -11    1    3    3    0    0  0.92527577911E+00 -0.13749019400E+02 -0.11155658446E+01  0.13825200076E+02  0.51100000000E-03 0.  1.
        -12    1    3    3    0    0 -0.97822882556E+01  0.26968528998E+02 -0.93523210513E+01  0.30173840142E+02  0.00000000000E+00 0.  1.
</event>
