<event>
 7    1  0.1562493E-011  0.5930194E+02  0.7816164E-02  0.1266605E+00
        -11   -1    0    0    0    0  0.00000000000E+00  0.00000000000E+00  0.45593999997E+02  0.45594000000E+02  0.51100000000E-03 0.  1.
         11   -1    0    0    0    0 -0.00000000000E+00 -0.00000000000E+00 -0.45593999997E+02  0.45594000000E+02  0.51100000000E-03 0. -1.
    9900012    2    1    2    0    0 -0.79644687818E+01  0.30394837045E+02  0.54260447555E+01  0.59301939666E+02  0.49999992045E+02 0.  0.
        -12    1    1    2    0    0  0.79644687818E+01 -0.30394837045E+02 -0.54260447555E+01  0.31886060334E+02  0.00000000000E+00 0.  1.
         11    1    3    3    0    0  0.51861329536E+00  0.30526725454E+02  0.15037243853E+02  0.34033345849E+02  0.51100000000E-03 0. -1.
        -11    1    3    3    0    0 -0.48890653554E+01  0.91556526648E+01 -0.11102918708E+02  0.15198807185E+02  0.51100000000E-03 0.  1.
        -12    1    3    3    0    0 -0.35940167218E+01 -0.92875410746E+01  0.14917196103E+01  0.10069786632E+02  0.00000000000E+00 0.  1.
</event>
<event>
 7    1  0.1335379E-011  0.5930195E+02  0.7816164E-02  0.1266605E+00
        -11   -1    0    0    0    0  0.00000000000E+00  0.00000000000E+00  0.45593999997E+02  0.45594000000E+02  0.51100000000E-03 0.  1.
         11   -1    0    0    0    0 -0.00000000000E+00 -0.00000000000E+00 -0.45593999997E+02  0.45594000000E+02  0.51100000000E-03 0. -1.
    9900012    2    1    2    0    0 -0.15413680480E+01 -0.42769389042E+01 -0.31560290426E+02  0.59301953622E+02  0.50000017498E+02 0.  0.
        -12    1    1    2    0    0  0.15413680480E+01  0.42769389042E+01  0.31560290426E+02  0.31886046378E+02  0.00000000000E+00 0.  1.
         11    1    3    3    0    0 -0.58375971305E+01  0.49832221206E+01 -0.37863049712E+01  0.85583963777E+01  0.51100000000E-03 0. -1.
        -11    1    3    3    0    0  0.94162872918E+01  0.96551510219E+01  0.34123714540E+01  0.13911602597E+02  0.51100000000E-03 0.  1.
        -12    1    3    3    0    0 -0.51200582093E+01 -0.18915312047E+02 -0.31186356909E+02  0.36831954647E+02  0.00000000000E+00 0.  1.
</event>
<event>
 7    1  0.1335379E-011  0.5930185E+02  0.7816164E-02  0.1266605E+00
        -11   -1    0    0    0    0  0.00000000000E+00  0.00000000000E+00  0.45593999997E+02  0.45594000000E+02  0.51100000000E-03 0.  1.
         11   -1    0    0    0    0 -0.00000000000E+00 -0.00000000000E+00 -0.45593999997E+02  0.45594000000E+02  0.51100000000E-03 0. -1.
    9900012    2    1    2    0    0  0.23836121211E+02 -0.87023897243E+01  0.19308925625E+02  0.59301845166E+02  0.49999819699E+02 0.  0.
        -12    1    1    2    0    0 -0.23836121211E+02  0.87023897243E+01 -0.19308925625E+02  0.31886154834E+02  0.00000000000E+00 0.  1.
         11    1    3    3    0    0  0.11192864404E+02 -0.53123348815E+01 -0.10137699670E+02  0.16008562406E+02  0.51100000000E-03 0. -1.
        -11    1    3    3    0    0  0.32174257200E+01 -0.29349823182E+01 -0.55454289779E+01  0.70510802209E+01  0.51100000000E-03 0.  1.
        -12    1    3    3    0    0  0.94258310878E+01 -0.45507252467E+00  0.34992054272E+02  0.36242202539E+02  0.00000000000E+00 0.  1.
</event>
<event>
 7    1  0.1335379E-011  0.5930223E+02  0.7816164E-02  0.1266604E+00
        -11   -1    0    0    0    0  0.00000000000E+00  0.00000000000E+00  0.45593999997E+02  0.45594000000E+02  0.51100000000E-03 0.  1.
         11   -1    0    0    0    0 -0.00000000000E+00 -0.00000000000E+00 -0.45593999997E+02  0.45594000000E+02  0.51100000000E-03 0. -1.
    9900012    2    1    2    0    0  0.17780221345E+02 -0.25532817666E+02 -0.69743238800E+01  0.59302231346E+02  0.50000523997E+02 0.  0.
        -12    1    1    2    0    0 -0.17780221345E+02  0.25532817666E+02  0.69743238800E+01  0.31885768654E+02  0.00000000000E+00 0.  1.
         11    1    3    3    0    0  0.22255204901E+01 -0.30885834719E+02  0.18937198779E+01  0.31023763521E+02  0.51100000000E-03 0. -1.
        -11    1    3    3    0    0  0.20228824948E-02 -0.69922323527E+01 -0.21244730571E+01  0.73078521741E+01  0.51100000000E-03 0.  1.
         12    1    3    3    0    0  0.15552677973E+02  0.12345249405E+02 -0.67435707007E+01  0.20970615651E+02  0.00000000000E+00 0. -1.
</event>
<event>
 7    1  0.1335379E-011  0.5930200E+02  0.7816164E-02  0.1266605E+00
        -11   -1    0    0    0    0  0.00000000000E+00  0.00000000000E+00  0.45593999997E+02  0.45594000000E+02  0.51100000000E-03 0. -1.
         11   -1    0    0    0    0 -0.00000000000E+00 -0.00000000000E+00 -0.45593999997E+02  0.45594000000E+02  0.51100000000E-03 0.  1.
    9900012    2    1    2    0    0 -0.18280390038E+02  0.20386012697E+02  0.16338742877E+02  0.59302004760E+02  0.50000110761E+02 0.  0.
        -12    1    1    2    0    0  0.18280390038E+02 -0.20386012697E+02 -0.16338742877E+02  0.31885995240E+02  0.00000000000E+00 0.  1.
         11    1    3    3    0    0 -0.51272489466E+01 -0.18271861782E+01  0.77793697709E+00  0.54984067957E+01  0.51100000000E-03 0. -1.
        -11    1    3    3    0    0  0.68740508932E+01 -0.66049953923E+01  0.16094262105E+02  0.18705716046E+02  0.51100000000E-03 0.  1.
        -12    1    3    3    0    0 -0.20027191985E+02  0.28818194268E+02 -0.53345620504E+00  0.35097881919E+02  0.00000000000E+00 0.  1.
</event>
<event>
 7    1  0.1335379E-011  0.5930195E+02  0.7816164E-02  0.1266605E+00
        -11   -1    0    0    0    0  0.00000000000E+00  0.00000000000E+00  0.45593999997E+02  0.45594000000E+02  0.51100000000E-03 0.  1.
         11   -1    0    0    0    0 -0.00000000000E+00 -0.00000000000E+00 -0.45593999997E+02  0.45594000000E+02  0.51100000000E-03 0. -1.
    9900012    2    1    2    0    0 -0.59510382412E+01  0.11739039337E+01 -0.31303790080E+02  0.59301950073E+02  0.50000011024E+02 0.  0.
        -12    1    1    2    0    0  0.59510382412E+01 -0.11739039337E+01  0.31303790080E+02  0.31886049927E+02  0.00000000000E+00 0.  1.
         11    1    3    3    0    0 -0.19163710365E+02 -0.10840487506E+01 -0.26023662910E+02  0.32336573538E+02  0.51100000000E-03 0. -1.
        -11    1    3    3    0    0  0.13274100766E+02 -0.81853509458E+01 -0.54520147916E+01  0.16520477802E+02  0.51100000000E-03 0.  1.
        -12    1    3    3    0    0 -0.61428641753E-01  0.10443303630E+02  0.17188762129E+00  0.10444898733E+02  0.00000000000E+00 0.  1.
</event>
<event>
 7    1  0.1335379E-011  0.5930193E+02  0.7816164E-02  0.1266605E+00
        -11   -1    0    0    0    0  0.00000000000E+00  0.00000000000E+00  0.45593999997E+02  0.45594000000E+02  0.51100000000E-03 0. -1.
         11   -1    0    0    0    0 -0.00000000000E+00 -0.00000000000E+00 -0.45593999997E+02  0.45594000000E+02  0.51100000000E-03 0.  1.
    9900012    2    1    2    0    0  0.26152115499E+02  0.30472510937E+01  0.17986172404E+02  0.59301932791E+02  0.49999979507E+02 0.  0.
        -12    1    1    2    0    0 -0.26152115499E+02 -0.30472510937E+01 -0.17986172404E+02  0.31886067209E+02  0.00000000000E+00 0.  1.
         11    1    3    3    0    0  0.47608515837E+01 -0.86441313253E+01  0.55859343310E+01  0.11339725604E+02  0.51100000000E-03 0. -1.
        -11    1    3    3    0    0  0.90486158958E+01 -0.10625017362E+02  0.17056469817E+02  0.22038412067E+02  0.51100000000E-03 0.  1.
         12    1    3    3    0    0  0.12342648020E+02  0.22316399781E+02 -0.46562317438E+01  0.25923795119E+02  0.00000000000E+00 0. -1.
</event>
<event>
 7    1  0.1335379E-011  0.5930193E+02  0.7816164E-02  0.1266605E+00
        -11   -1    0    0    0    0  0.00000000000E+00  0.00000000000E+00  0.45593999997E+02  0.45594000000E+02  0.51100000000E-03 0.  1.
         11   -1    0    0    0    0 -0.00000000000E+00 -0.00000000000E+00 -0.45593999997E+02  0.45594000000E+02  0.51100000000E-03 0. -1.
    9900012    2    1    2    0    0  0.62833572640E+01  0.28681523263E+02 -0.12434269147E+02  0.59301930872E+02  0.49999976007E+02 0.  0.
        -12    1    1    2    0    0 -0.62833572640E+01 -0.28681523263E+02  0.12434269147E+02  0.31886069128E+02  0.00000000000E+00 0.  1.
         11    1    3    3    0    0  0.62487388828E+01  0.29481150967E+02  0.10022857748E+02  0.31759135341E+02  0.51100000000E-03 0. -1.
        -11    1    3    3    0    0  0.58548099715E+01  0.31282254553E+01 -0.38937381950E+01  0.76958295001E+01  0.51100000000E-03 0.  1.
        -12    1    3    3    0    0 -0.58201915903E+01 -0.39278531587E+01 -0.18563388700E+02  0.19846966031E+02  0.00000000000E+00 0.  1.
</event>
<event>
 7    1  0.1335379E-011  0.5930193E+02  0.7816164E-02  0.1266605E+00
        -11   -1    0    0    0    0  0.00000000000E+00  0.00000000000E+00  0.45593999997E+02  0.45594000000E+02  0.51100000000E-03 0.  1.
         11   -1    0    0    0    0 -0.00000000000E+00 -0.00000000000E+00 -0.45593999997E+02  0.45594000000E+02  0.51100000000E-03 0. -1.
    9900012    2    1    2    0    0 -0.64856104362E+00 -0.43758206007E+01 -0.31577725344E+02  0.59301934466E+02  0.49999982562E+02 0.  0.
        -12    1    1    2    0    0  0.64856104362E+00  0.43758206007E+01  0.31577725344E+02  0.31886065534E+02  0.00000000000E+00 0.  1.
         11    1    3    3    0    0  0.69373219982E+01 -0.28457410266E+01  0.26437031608E+01  0.79507135001E+01  0.51100000000E-03 0. -1.
        -11    1    3    3    0    0 -0.27405270980E+01  0.11530726635E+02  0.24679811952E+01  0.12106158637E+02  0.51100000000E-03 0.  1.
         12    1    3    3    0    0 -0.48453559438E+01 -0.13060806209E+02 -0.36689409700E+02  0.39245062329E+02  0.00000000000E+00 0. -1.
</event>
<event>
 7    1  0.1335379E-011  0.5930202E+02  0.7816164E-02  0.1266604E+00
        -11   -1    0    0    0    0  0.00000000000E+00  0.00000000000E+00  0.45593999997E+02  0.45594000000E+02  0.51100000000E-03 0.  1.
         11   -1    0    0    0    0 -0.00000000000E+00 -0.00000000000E+00 -0.45593999997E+02  0.45594000000E+02  0.51100000000E-03 0. -1.
    9900012    2    1    2    0    0 -0.25761235057E+02  0.14562115591E+02  0.11875145526E+02  0.59302023091E+02  0.50000144193E+02 0.  0.
        -12    1    1    2    0    0  0.25761235057E+02 -0.14562115591E+02 -0.11875145526E+02  0.31885976909E+02  0.00000000000E+00 0.  1.
         11    1    3    3    0    0 -0.34926122888E+01  0.16136540180E+02 -0.31824860577E+01  0.16814115717E+02  0.51100000000E-03 0. -1.
        -11    1    3    3    0    0  0.10739152597E+01 -0.50909849382E+01  0.17965300459E+02  0.18703567640E+02  0.51100000000E-03 0.  1.
        -12    1    3    3    0    0 -0.23342538028E+02  0.35165603484E+01 -0.29076688750E+01  0.23784339734E+02  0.00000000000E+00 0.  1.
</event>
<event>
 7    1  0.1335379E-011  0.5930195E+02  0.7816164E-02  0.1266605E+00
        -11   -1    0    0    0    0  0.00000000000E+00  0.00000000000E+00  0.45593999997E+02  0.45594000000E+02  0.51100000000E-03 0. -1.
         11   -1    0    0    0    0 -0.00000000000E+00 -0.00000000000E+00 -0.45593999997E+02  0.45594000000E+02  0.51100000000E-03 0.  1.
    9900012    2    1    2    0    0 -0.33790666739E+01 -0.12941330144E+02  0.28945192957E+02  0.59301947989E+02  0.50000007225E+02 0.  0.
        -12    1    1    2    0    0  0.33790666739E+01  0.12941330144E+02 -0.28945192957E+02  0.31886052011E+02  0.00000000000E+00 0.  1.
         11    1    3    3    0    0  0.85355328262E+01 -0.22558867376E+01 -0.11073291478E+01  0.88977819541E+01  0.51100000000E-03 0. -1.
        -11    1    3    3    0    0 -0.17274836550E+02 -0.37927646353E+00 -0.94150916095E+00  0.17304631410E+02  0.51100000000E-03 0.  1.
         12    1    3    3    0    0  0.53602370500E+01 -0.10306166943E+02  0.30994031266E+02  0.33099534625E+02  0.00000000000E+00 0. -1.
</event>
<event>
 7    1  0.1335379E-011  0.5930195E+02  0.7816164E-02  0.1266605E+00
        -11   -1    0    0    0    0  0.00000000000E+00  0.00000000000E+00  0.45593999997E+02  0.45594000000E+02  0.51100000000E-03 0.  1.
         11   -1    0    0    0    0 -0.00000000000E+00 -0.00000000000E+00 -0.45593999997E+02  0.45594000000E+02  0.51100000000E-03 0. -1.
    9900012    2    1    2    0    0  0.14151479804E+02  0.25134680986E+02 -0.13590574527E+02  0.59301948427E+02  0.50000008023E+02 0.  0.
        -12    1    1    2    0    0 -0.14151479804E+02 -0.25134680986E+02  0.13590574527E+02  0.31886051573E+02  0.00000000000E+00 0.  1.
         11    1    3    3    0    0  0.60885457957E+01  0.99189696244E+01  0.61175562312E+01  0.13148415981E+02  0.51100000000E-03 0. -1.
        -11    1    3    3    0    0 -0.14837499784E+02  0.90704534767E+01 -0.12342658262E+02  0.21325237147E+02  0.51100000000E-03 0.  1.
         12    1    3    3    0    0  0.22900433793E+02  0.61452578849E+01 -0.73654724963E+01  0.24828295299E+02  0.00000000000E+00 0. -1.
</event>
<event>
 7    1  0.1335379E-011  0.5930194E+02  0.7816164E-02  0.1266605E+00
        -11   -1    0    0    0    0  0.00000000000E+00  0.00000000000E+00  0.45593999997E+02  0.45594000000E+02  0.51100000000E-03 0. -1.
         11   -1    0    0    0    0 -0.00000000000E+00 -0.00000000000E+00 -0.45593999997E+02  0.45594000000E+02  0.51100000000E-03 0.  1.
    9900012    2    1    2    0    0 -0.27080998910E+01 -0.73684314893E+01  0.30904581659E+02  0.59301941054E+02  0.49999994576E+02 0.  0.
        -12    1    1    2    0    0  0.27080998910E+01  0.73684314893E+01 -0.30904581659E+02  0.31886058946E+02  0.00000000000E+00 0.  1.
         11    1    3    3    0    0 -0.25265106550E+01 -0.79578482929E+01  0.29702512487E+02  0.30853684607E+02  0.51100000000E-03 0. -1.
        -11    1    3    3    0    0 -0.19051542646E+01  0.14255378810E+02  0.25566187504E+01  0.14607591776E+02  0.51100000000E-03 0.  1.
         12    1    3    3    0    0  0.17235650286E+01 -0.13665962006E+02 -0.13545495787E+01  0.13840664671E+02  0.00000000000E+00 0. -1.
</event>
<event>
 7    1  0.1335379E-011  0.5930192E+02  0.7816164E-02  0.1266605E+00
        -11   -1    0    0    0    0  0.00000000000E+00  0.00000000000E+00  0.45593999997E+02  0.45594000000E+02  0.51100000000E-03 0.  1.
         11   -1    0    0    0    0 -0.00000000000E+00 -0.00000000000E+00 -0.45593999997E+02  0.45594000000E+02  0.51100000000E-03 0. -1.
    9900012    2    1    2    0    0  0.62921538799E+01 -0.30975157816E+02  0.42036457751E+01  0.59301917770E+02  0.49999952112E+02 0.  0.
        -12    1    1    2    0    0 -0.62921538799E+01  0.30975157816E+02 -0.42036457751E+01  0.31886082230E+02  0.00000000000E+00 0.  1.
         11    1    3    3    0    0  0.15604539649E+01 -0.21711761960E+02  0.81753987301E+01  0.23252371247E+02  0.51100000000E-03 0. -1.
        -11    1    3    3    0    0  0.38199001810E+01 -0.17655144098E+02  0.93028498427E+01  0.20318434142E+02  0.51100000000E-03 0.  1.
        -12    1    3    3    0    0  0.91179973405E+00  0.83917482411E+01 -0.13274602798E+02  0.15731112381E+02  0.00000000000E+00 0.  1.
</event>
<event>
 7    1  0.1335379E-011  0.5930193E+02  0.7816164E-02  0.1266605E+00
        -11   -1    0    0    0    0  0.00000000000E+00  0.00000000000E+00  0.45593999997E+02  0.45594000000E+02  0.51100000000E-03 0.  1.
         11   -1    0    0    0    0 -0.00000000000E+00 -0.00000000000E+00 -0.45593999997E+02  0.45594000000E+02  0.51100000000E-03 0. -1.
    9900012    2    1    2    0    0  0.29571855030E+02 -0.11592623185E+02 -0.27996140341E+01  0.59301931554E+02  0.49999977250E+02 0.  0.
        -12    1    1    2    0    0 -0.29571855030E+02  0.11592623185E+02  0.27996140341E+01  0.31886068446E+02  0.00000000000E+00 0.  1.
         11    1    3    3    0    0  0.18472754342E+02 -0.16802874359E+02 -0.20683881469E+02  0.32425332575E+02  0.51100000000E-03 0. -1.
        -11    1    3    3    0    0  0.32851664303E+01 -0.30513017411E+01 -0.12177482476E+01  0.46460382958E+01  0.51100000000E-03 0.  1.
         12    1    3    3    0    0  0.78139342576E+01  0.82615529150E+01  0.19102015682E+02  0.22230560683E+02  0.00000000000E+00 0. -1.
</event>
<event>
 7    1  0.1335379E-011  0.5930195E+02  0.7816164E-02  0.1266605E+00
        -11   -1    0    0    0    0  0.00000000000E+00  0.00000000000E+00  0.45593999997E+02  0.45594000000E+02  0.51100000000E-03 0.  1.
         11   -1    0    0    0    0 -0.00000000000E+00 -0.00000000000E+00 -0.45593999997E+02  0.45594000000E+02  0.51100000000E-03 0. -1.
    9900012    2    1    2    0    0 -0.24533218259E+02 -0.11385921657E+01 -0.20335810728E+02  0.59301946807E+02  0.50000005068E+02 0.  0.
        -12    1    1    2    0    0  0.24533218259E+02  0.11385921657E+01  0.20335810728E+02  0.31886053193E+02  0.00000000000E+00 0.  1.
         11    1    3    3    0    0 -0.10184736169E+02 -0.68151286200E+01  0.21351491241E+01  0.12439199773E+02  0.51100000000E-03 0. -1.
        -11    1    3    3    0    0  0.56953480089E+01 -0.10498465495E+01  0.79381132771E+01  0.98261289113E+01  0.51100000000E-03 0.  1.
         12    1    3    3    0    0 -0.20043830099E+02  0.67263830037E+01 -0.30409073129E+02  0.37036618122E+02  0.00000000000E+00 0. -1.
</event>
<event>
 7    1  0.1335379E-011  0.5930194E+02  0.7816164E-02  0.1266605E+00
        -11   -1    0    0    0    0  0.00000000000E+00  0.00000000000E+00  0.45593999997E+02  0.45594000000E+02  0.51100000000E-03 0. -1.
         11   -1    0    0    0    0 -0.00000000000E+00 -0.00000000000E+00 -0.45593999997E+02  0.45594000000E+02  0.51100000000E-03 0.  1.
    9900012    2    1    2    0    0 -0.28329674947E+02  0.13978918337E+02 -0.43289957247E+01  0.59301939653E+02  0.49999992022E+02 0.  0.
        -12    1    1    2    0    0  0.28329674947E+02 -0.13978918337E+02  0.43289957247E+01  0.31886060347E+02  0.00000000000E+00 0.  1.
         11    1    3    3    0    0 -0.64058527187E+01  0.17609929974E+02  0.40198393235E+01  0.19165168697E+02  0.51100000000E-03 0. -1.
        -11    1    3    3    0    0 -0.78633664006E+01  0.11313066125E+02  0.60731405784E+01  0.15056594338E+02  0.51100000000E-03 0.  1.
        -12    1    3    3    0    0 -0.14060455827E+02 -0.14944077762E+02 -0.14421975627E+02  0.25080176618E+02  0.00000000000E+00 0.  1.
</event>
<event>
 7    1  0.1415172E-011  0.5930195E+02  0.7816164E-02  0.1266605E+00
        -11   -1    0    0    0    0  0.00000000000E+00  0.00000000000E+00  0.45593999997E+02  0.45594000000E+02  0.51100000000E-03 0.  1.
         11   -1    0    0    0    0 -0.00000000000E+00 -0.00000000000E+00 -0.45593999997E+02  0.45594000000E+02  0.51100000000E-03 0. -1.
    9900012    2    1    2    0    0  0.95488151140E+01  0.26152476096E+02 -0.15543113525E+02  0.59301948910E+02  0.50000008904E+02 0.  0.
        -12    1    1    2    0    0 -0.95488151140E+01 -0.26152476096E+02  0.15543113525E+02  0.31886051090E+02  0.00000000000E+00 0.  1.
         11    1    3    3    0    0 -0.10960021981E+02  0.51309161698E+01  0.19478496820E+00  0.12103153474E+02  0.51100000000E-03 0. -1.
        -11    1    3    3    0    0  0.11543015576E+02  0.93962831696E+01  0.97443488163E+01  0.17789988199E+02  0.51100000000E-03 0.  1.
         12    1    3    3    0    0  0.89658215190E+01  0.11625276757E+02 -0.25482247310E+02  0.29408807238E+02  0.00000000000E+00 0. -1.
</event>
<event>
 7    1  0.1335379E-011  0.5930195E+02  0.7816164E-02  0.1266605E+00
        -11   -1    0    0    0    0  0.00000000000E+00  0.00000000000E+00  0.45593999997E+02  0.45594000000E+02  0.51100000000E-03 0.  1.
         11   -1    0    0    0    0 -0.00000000000E+00 -0.00000000000E+00 -0.45593999997E+02  0.45594000000E+02  0.51100000000E-03 0. -1.
    9900012    2    1    2    0    0 -0.17112045453E+01  0.14096929846E+02 -0.28549403940E+02  0.59301951054E+02  0.50000012814E+02 0.  0.
        -12    1    1    2    0    0  0.17112045453E+01 -0.14096929846E+02  0.28549403940E+02  0.31886048946E+02  0.00000000000E+00 0.  1.
         11    1    3    3    0    0  0.68234073452E+01  0.15252142139E+02 -0.36331719491E+02  0.39989755801E+02  0.51100000000E-03 0. -1.
        -11    1    3    3    0    0  0.28295884744E+01 -0.47515420055E+01  0.39337682621E+01  0.67866232668E+01  0.51100000000E-03 0.  1.
        -12    1    3    3    0    0 -0.11364200365E+02  0.35963297117E+01  0.38485472884E+01  0.12525571985E+02  0.00000000000E+00 0.  1.
</event>
<event>
 7    1  0.1335379E-011  0.5930196E+02  0.7816164E-02  0.1266605E+00
        -11   -1    0    0    0    0  0.00000000000E+00  0.00000000000E+00  0.45593999997E+02  0.45594000000E+02  0.51100000000E-03 0.  1.
         11   -1    0    0    0    0 -0.00000000000E+00 -0.00000000000E+00 -0.45593999997E+02  0.45594000000E+02  0.51100000000E-03 0. -1.
    9900012    2    1    2    0    0 -0.30667285169E+02  0.70555669542E+01 -0.51435380848E+01  0.59301962480E+02  0.50000033653E+02 0.  0.
        -12    1    1    2    0    0  0.30667285169E+02 -0.70555669542E+01  0.51435380848E+01  0.31886037520E+02  0.00000000000E+00 0.  1.
         11    1    3    3    0    0 -0.49259261918E+01  0.13528292366E+02 -0.20613244502E+00  0.14398678204E+02  0.51100000000E-03 0. -1.
        -11    1    3    3    0    0 -0.23014458468E+02  0.10655680867E+02 -0.93101603421E+01  0.27016437944E+02  0.51100000000E-03 0.  1.
        -12    1    3    3    0    0 -0.27269005088E+01 -0.17128406278E+02  0.43727547023E+01  0.17886846332E+02  0.00000000000E+00 0.  1.
</event>
<event>
 7    1  0.1335379E-011  0.5930182E+02  0.7816164E-02  0.1266605E+00
        -11   -1    0    0    0    0  0.00000000000E+00  0.00000000000E+00  0.45593999997E+02  0.45594000000E+02  0.51100000000E-03 0.  1.
         11   -1    0    0    0    0 -0.00000000000E+00 -0.00000000000E+00 -0.45593999997E+02  0.45594000000E+02  0.51100000000E-03 0. -1.
    9900012    2    1    2    0    0 -0.17231825541E+02  0.26675677980E+02 -0.28637280798E+01  0.59301818892E+02  0.49999771781E+02 0.  0.
        -12    1    1    2    0    0  0.17231825541E+02 -0.26675677980E+02  0.28637280798E+01  0.31886181108E+02  0.00000000000E+00 0.  1.
         11    1    3    3    0    0 -0.17654801026E+02  0.11086935903E+02 -0.18837026505E+02  0.28097076624E+02  0.51100000000E-03 0. -1.
        -11    1    3    3    0    0 -0.86665687057E+01  0.13703234475E+02  0.52973058855E+01  0.17057241808E+02  0.51100000000E-03 0.  1.
        -12    1    3    3    0    0  0.90895441911E+01  0.18855076014E+01  0.10675992540E+02  0.14147500459E+02  0.00000000000E+00 0.  1.
</event>
<event>
 7    1  0.1335379E-011  0.5930192E+02  0.7816164E-02  0.1266605E+00
        -11   -1    0    0    0    0  0.00000000000E+00  0.00000000000E+00  0.45593999997E+02  0.45594000000E+02  0.51100000000E-03 0.  1.
         11   -1    0    0    0    0 -0.00000000000E+00 -0.00000000000E+00 -0.45593999997E+02  0.45594000000E+02  0.51100000000E-03 0. -1.
    9900012    2    1    2    0    0 -0.31143488499E+02 -0.56756504697E+01 -0.38199966930E+01  0.59301917474E+02  0.49999951572E+02 0.  0.
        -12    1    1    2    0    0  0.31143488499E+02  0.56756504697E+01  0.38199966930E+01  0.31886082526E+02  0.00000000000E+00 0.  1.
         11    1    3    3    0    0 -0.16256841820E+02 -0.11138060437E+02  0.37699941557E+01  0.20063752203E+02  0.51100000000E-03 0.  1.
        -11    1    3    3    0    0  0.10262075644E+01  0.59251472469E+01  0.12342002412E+02  0.13729001991E+02  0.51100000000E-03 0. -1.
         12    1    3    3    0    0 -0.15912854243E+02 -0.46273728004E+00 -0.19931993261E+02  0.25509163281E+02  0.00000000000E+00 0. -1.
</event>
<event>
 7    1  0.1335379E-011  0.5930194E+02  0.7816164E-02  0.1266605E+00
        -11   -1    0    0    0    0  0.00000000000E+00  0.00000000000E+00  0.45593999997E+02  0.45594000000E+02  0.51100000000E-03 0.  1.
         11   -1    0    0    0    0 -0.00000000000E+00 -0.00000000000E+00 -0.45593999997E+02  0.45594000000E+02  0.51100000000E-03 0. -1.
    9900012    2    1    2    0    0 -0.10599150856E+02 -0.23086055334E+02 -0.19272070221E+02  0.59301942853E+02  0.49999997857E+02 0.  0.
        -12    1    1    2    0    0  0.10599150856E+02  0.23086055334E+02  0.19272070221E+02  0.31886057147E+02  0.00000000000E+00 0.  1.
         11    1    3    3    0    0 -0.11782688753E+02 -0.56028722917E+01  0.65800398431E+01  0.14612352883E+02  0.51100000000E-03 0. -1.
        -11    1    3    3    0    0 -0.10395854729E+02 -0.52153976091E+01  0.23133736372E+01  0.11858577723E+02  0.51100000000E-03 0.  1.
         12    1    3    3    0    0  0.11579392626E+02 -0.12267785434E+02 -0.28165483702E+02  0.32831012247E+02  0.00000000000E+00 0. -1.
</event>
<event>
 7    1  0.1335379E-011  0.5930193E+02  0.7816164E-02  0.1266605E+00
        -11   -1    0    0    0    0  0.00000000000E+00  0.00000000000E+00  0.45593999997E+02  0.45594000000E+02  0.51100000000E-03 0. -1.
         11   -1    0    0    0    0 -0.00000000000E+00 -0.00000000000E+00 -0.45593999997E+02  0.45594000000E+02  0.51100000000E-03 0.  1.
    9900012    2    1    2    0    0  0.19594386281E+02  0.22805321975E+02 -0.10615960785E+02  0.59301932392E+02  0.49999978779E+02 0.  0.
        -12    1    1    2    0    0 -0.19594386281E+02 -0.22805321975E+02  0.10615960785E+02  0.31886067608E+02  0.00000000000E+00 0.  1.
         11    1    3    3    0    0 -0.88644770675E+01  0.67983513591E+01 -0.84492245857E+01  0.14006638827E+02  0.51100000000E-03 0. -1.
        -11    1    3    3    0    0  0.24577868915E+02  0.45141336145E+01  0.11078538903E+02  0.27334649571E+02  0.51100000000E-03 0.  1.
         12    1    3    3    0    0  0.38809944333E+01  0.11492837002E+02 -0.13245275102E+02  0.17960643993E+02  0.00000000000E+00 0. -1.
</event>
<event>
 7    1  0.1335379E-011  0.5930195E+02  0.7816164E-02  0.1266605E+00
        -11   -1    0    0    0    0  0.00000000000E+00  0.00000000000E+00  0.45593999997E+02  0.45594000000E+02  0.51100000000E-03 0. -1.
         11   -1    0    0    0    0 -0.00000000000E+00 -0.00000000000E+00 -0.45593999997E+02  0.45594000000E+02  0.51100000000E-03 0.  1.
    9900012    2    1    2    0    0 -0.23749729769E+02  0.14667897000E+02  0.15411782014E+02  0.59301954599E+02  0.50000019279E+02 0.  0.
        -12    1    1    2    0    0  0.23749729769E+02 -0.14667897000E+02 -0.15411782014E+02  0.31886045401E+02  0.00000000000E+00 0.  1.
         11    1    3    3    0    0  0.30004675262E+01  0.74004330567E+01  0.19215644972E+02  0.20808897778E+02  0.51100000000E-03 0. -1.
        -11    1    3    3    0    0 -0.11577548623E+01 -0.53540213878E+01  0.61829483533E+01  0.82604353361E+01  0.51100000000E-03 0.  1.
        -12    1    3    3    0    0 -0.25592442433E+02  0.12621485331E+02 -0.99868113111E+01  0.30232621484E+02  0.00000000000E+00 0.  1.
</event>
<event>
 7    1  0.1335379E-011  0.5930178E+02  0.7816164E-02  0.1266605E+00
        -11   -1    0    0    0    0  0.00000000000E+00  0.00000000000E+00  0.45593999997E+02  0.45594000000E+02  0.51100000000E-03 0.  1.
         11   -1    0    0    0    0 -0.00000000000E+00 -0.00000000000E+00 -0.45593999997E+02  0.45594000000E+02  0.51100000000E-03 0. -1.
    9900012    2    1    2    0    0 -0.31248999447E+02  0.58204065657E+01 -0.25206688321E+01  0.59301782438E+02  0.49999705298E+02 0.  0.
        -12    1    1    2    0    0  0.31248999447E+02 -0.58204065657E+01  0.25206688321E+01  0.31886217562E+02  0.00000000000E+00 0.  1.
         11    1    3    3    0    0 -0.66511891112E+01 -0.15152710711E+02 -0.25267534579E+01  0.16739995274E+02  0.51100000000E-03 0. -1.
        -11    1    3    3    0    0 -0.30411470575E+01  0.11626384914E+02 -0.11292403535E+02  0.16490596698E+02  0.51100000000E-03 0.  1.
        -12    1    3    3    0    0 -0.21556663279E+02  0.93467323629E+01  0.11298488161E+02  0.26071190466E+02  0.00000000000E+00 0.  1.
</event>
<event>
 7    1  0.1335379E-011  0.5930167E+02  0.7816164E-02  0.1266606E+00
        -11   -1    0    0    0    0  0.00000000000E+00  0.00000000000E+00  0.45593999997E+02  0.45594000000E+02  0.51100000000E-03 0. -1.
         11   -1    0    0    0    0 -0.00000000000E+00 -0.00000000000E+00 -0.45593999997E+02  0.45594000000E+02  0.51100000000E-03 0.  1.
    9900012    2    1    2    0    0 -0.49107549431E+01  0.13716029925E+02  0.28363588440E+02  0.59301668442E+02  0.49999497396E+02 0.  0.
        -12    1    1    2    0    0  0.49107549431E+01 -0.13716029925E+02 -0.28363588440E+02  0.31886331558E+02  0.00000000000E+00 0.  1.
         11    1    3    3    0    0 -0.92628581522E+01  0.11406812541E+02  0.15307973011E+02  0.21219094030E+02  0.51100000000E-03 0. -1.
        -11    1    3    3    0    0 -0.51398490575E+01  0.16550434132E+02  0.14221115480E+01  0.17388424880E+02  0.51100000000E-03 0.  1.
        -12    1    3    3    0    0  0.94919522666E+01 -0.14241216748E+02  0.11633503881E+02  0.20694149532E+02  0.00000000000E+00 0.  1.
</event>
<event>
 7    1  0.1335379E-011  0.5930196E+02  0.7816164E-02  0.1266605E+00
        -11   -1    0    0    0    0  0.00000000000E+00  0.00000000000E+00  0.45593999997E+02  0.45594000000E+02  0.51100000000E-03 0.  1.
         11   -1    0    0    0    0 -0.00000000000E+00 -0.00000000000E+00 -0.45593999997E+02  0.45594000000E+02  0.51100000000E-03 0. -1.
    9900012    2    1    2    0    0 -0.30223111781E+02  0.32497308715E+01 -0.96292462115E+01  0.59301958868E+02  0.50000027065E+02 0.  0.
        -12    1    1    2    0    0  0.30223111781E+02 -0.32497308715E+01  0.96292462115E+01  0.31886041132E+02  0.00000000000E+00 0.  1.
         11    1    3    3    0    0 -0.28139732898E+01 -0.54481302514E+01  0.44639472637E+01  0.75846815586E+01  0.51100000000E-03 0. -1.
        -11    1    3    3    0    0  0.56434913498E+01 -0.69176109634E+01  0.52525367328E+01  0.10358159993E+02  0.51100000000E-03 0.  1.
         12    1    3    3    0    0 -0.33052629841E+02  0.15615472086E+02 -0.19345730208E+02  0.41359117316E+02  0.00000000000E+00 0. -1.
</event>
<event>
 7    1  0.1335379E-011  0.5930193E+02  0.7816164E-02  0.1266605E+00
        -11   -1    0    0    0    0  0.00000000000E+00  0.00000000000E+00  0.45593999997E+02  0.45594000000E+02  0.51100000000E-03 0.  1.
         11   -1    0    0    0    0 -0.00000000000E+00 -0.00000000000E+00 -0.45593999997E+02  0.45594000000E+02  0.51100000000E-03 0. -1.
    9900012    2    1    2    0    0  0.40566755912E+01  0.19377491785E+02 -0.24995547308E+02  0.59301934235E+02  0.49999982140E+02 0.  0.
        -12    1    1    2    0    0 -0.40566755912E+01 -0.19377491785E+02  0.24995547308E+02  0.31886065765E+02  0.00000000000E+00 0.  1.
         11    1    3    3    0    0  0.11470088222E+01 -0.76664614349E+00  0.51530382155E-01  0.13805908840E+01  0.51100000000E-03 0. -1.
        -11    1    3    3    0    0  0.89195864670E+01  0.24590703563E+02  0.52803676610E+01  0.26686026444E+02  0.51100000000E-03 0.  1.
         12    1    3    3    0    0 -0.60099196981E+01 -0.44465656345E+01 -0.30327445352E+02  0.31235316907E+02  0.00000000000E+00 0. -1.
</event>
<event>
 7    1  0.1335379E-011  0.5930193E+02  0.7816164E-02  0.1266605E+00
        -11   -1    0    0    0    0  0.00000000000E+00  0.00000000000E+00  0.45593999997E+02  0.45594000000E+02  0.51100000000E-03 0.  1.
         11   -1    0    0    0    0 -0.00000000000E+00 -0.00000000000E+00 -0.45593999997E+02  0.45594000000E+02  0.51100000000E-03 0. -1.
    9900012    2    1    2    0    0 -0.28196838760E+02 -0.14507675199E+02 -0.33446738463E+01  0.59301934095E+02  0.49999981886E+02 0.  0.
        -12    1    1    2    0    0  0.28196838760E+02  0.14507675199E+02  0.33446738463E+01  0.31886065905E+02  0.00000000000E+00 0.  1.
         11    1    3    3    0    0 -0.19270369812E+00  0.32414426806E+01  0.33437045258E+01  0.46609490003E+01  0.51100000000E-03 0. -1.
        -11    1    3    3    0    0  0.71628812226E+01  0.81282080522E+00  0.93130602080E+01  0.11777123408E+02  0.51100000000E-03 0.  1.
         12    1    3    3    0    0 -0.35167016285E+02 -0.18561938685E+02 -0.16001438580E+02  0.42863861687E+02  0.00000000000E+00 0. -1.
</event>
<event>
 7    1  0.1335379E-011  0.5930191E+02  0.7816164E-02  0.1266605E+00
        -11   -1    0    0    0    0  0.00000000000E+00  0.00000000000E+00  0.45593999997E+02  0.45594000000E+02  0.51100000000E-03 0. -1.
         11   -1    0    0    0    0 -0.00000000000E+00 -0.00000000000E+00 -0.45593999997E+02  0.45594000000E+02  0.51100000000E-03 0.  1.
    9900012    2    1    2    0    0 -0.27623952459E+01  0.51095359172E-01  0.31766168199E+02  0.59301907730E+02  0.49999933802E+02 0.  0.
        -12    1    1    2    0    0  0.27623952459E+01 -0.51095359172E-01 -0.31766168199E+02  0.31886092270E+02  0.00000000000E+00 0.  1.
         11    1    3    3    0    0 -0.10028092141E+02 -0.10796553580E+02  0.26999294294E+02  0.30758577565E+02  0.51100000000E-03 0. -1.
        -11    1    3    3    0    0 -0.80305322336E+01 -0.13957196417E+01 -0.75923821108E+00  0.81862032833E+01  0.51100000000E-03 0.  1.
         12    1    3    3    0    0  0.15296229129E+02  0.12243368581E+02  0.55261121160E+01  0.20357126882E+02  0.00000000000E+00 0. -1.
</event>
<event>
 7    1  0.1335379E-011  0.5930194E+02  0.7816164E-02  0.1266605E+00
        -11   -1    0    0    0    0  0.00000000000E+00  0.00000000000E+00  0.45593999997E+02  0.45594000000E+02  0.51100000000E-03 0.  1.
         11   -1    0    0    0    0 -0.00000000000E+00 -0.00000000000E+00 -0.45593999997E+02  0.45594000000E+02  0.51100000000E-03 0. -1.
    9900012    2    1    2    0    0  0.23316163309E+02  0.21623397275E+02 -0.23465147530E+01  0.59301938584E+02  0.49999990071E+02 0.  0.
        -12    1    1    2    0    0 -0.23316163309E+02 -0.21623397275E+02  0.23465147530E+01  0.31886061416E+02  0.00000000000E+00 0.  1.
         11    1    3    3    0    0  0.30473137990E+01 -0.54608145209E+01 -0.30656071782E+01  0.69645218252E+01  0.51100000000E-03 0. -1.
        -11    1    3    3    0    0  0.50233415066E+01 -0.99755380237E+01 -0.42650559804E+01  0.11955585370E+02  0.51100000000E-03 0.  1.
         12    1    3    3    0    0  0.15245508003E+02  0.37059749820E+02  0.49841484055E+01  0.40381831389E+02  0.00000000000E+00 0. -1.
</event>
<event>
 7    1  0.1335379E-011  0.5930195E+02  0.7816164E-02  0.1266605E+00
        -11   -1    0    0    0    0  0.00000000000E+00  0.00000000000E+00  0.45593999997E+02  0.45594000000E+02  0.51100000000E-03 0. -1.
         11   -1    0    0    0    0 -0.00000000000E+00 -0.00000000000E+00 -0.45593999997E+02  0.45594000000E+02  0.51100000000E-03 0.  1.
    9900012    2    1    2    0    0 -0.63156437906E+01 -0.29164175883E+02  0.11237603270E+02  0.59301949152E+02  0.50000009346E+02 0.  0.
        -12    1    1    2    0    0  0.63156437906E+01  0.29164175883E+02 -0.11237603270E+02  0.31886050848E+02  0.00000000000E+00 0.  1.
         11    1    3    3    0    0  0.89406637227E+00  0.58582152703E+00  0.19207318197E+00  0.10860174529E+01  0.51100000000E-03 0. -1.
        -11    1    3    3    0    0  0.18191329617E+01 -0.16763488581E+02 -0.18297100282E+02  0.24881874389E+02  0.51100000000E-03 0.  1.
         12    1    3    3    0    0 -0.90288431245E+01 -0.12986508829E+02  0.29342630370E+02  0.33334057310E+02  0.00000000000E+00 0. -1.
</event>
<event>
 7    1  0.1335379E-011  0.5930194E+02  0.7816164E-02  0.1266605E+00
        -11   -1    0    0    0    0  0.00000000000E+00  0.00000000000E+00  0.45593999997E+02  0.45594000000E+02  0.51100000000E-03 0.  1.
         11   -1    0    0    0    0 -0.00000000000E+00 -0.00000000000E+00 -0.45593999997E+02  0.45594000000E+02  0.51100000000E-03 0. -1.
    9900012    2    1    2    0    0 -0.60743579450E+01  0.22101217942E+02 -0.22166626357E+02  0.59301937480E+02  0.49999988059E+02 0.  0.
        -12    1    1    2    0    0  0.60743579450E+01 -0.22101217942E+02  0.22166626357E+02  0.31886062520E+02  0.00000000000E+00 0.  1.
         11    1    3    3    0    0 -0.79298054561E+01  0.35091614564E+02 -0.13808451956E+02  0.38535393770E+02  0.51100000000E-03 0.  1.
        -11    1    3    3    0    0 -0.38872092451E+01 -0.36965139910E+01 -0.82505806875E+01  0.98410717578E+01  0.51100000000E-03 0. -1.
        -12    1    3    3    0    0  0.57426567562E+01 -0.92938826315E+01 -0.10759371417E+00  0.10925471953E+02  0.00000000000E+00 0.  1.
</event>
<event>
 7    1  0.1335379E-011  0.5930193E+02  0.7816164E-02  0.1266605E+00
        -11   -1    0    0    0    0  0.00000000000E+00  0.00000000000E+00  0.45593999997E+02  0.45594000000E+02  0.51100000000E-03 0.  1.
         11   -1    0    0    0    0 -0.00000000000E+00 -0.00000000000E+00 -0.45593999997E+02  0.45594000000E+02  0.51100000000E-03 0. -1.
    9900012    2    1    2    0    0 -0.19116716941E+02 -0.22851853576E+00 -0.25519017304E+02  0.59301932016E+02  0.49999978093E+02 0.  0.
        -12    1    1    2    0    0  0.19116716941E+02  0.22851853576E+00  0.25519017304E+02  0.31886067984E+02  0.00000000000E+00 0.  1.
         11    1    3    3    0    0 -0.36136197805E+01  0.65530402603E+01 -0.33264970080E+01  0.81893935781E+01  0.51100000000E-03 0. -1.
        -11    1    3    3    0    0 -0.30348714710E+02 -0.40159666207E+01 -0.11936644970E+02  0.32858118721E+02  0.51100000000E-03 0.  1.
         12    1    3    3    0    0  0.14845617550E+02 -0.27655921754E+01 -0.10255875325E+02  0.18254419717E+02  0.00000000000E+00 0. -1.
</event>
<event>
 7    1  0.1335379E-011  0.5930198E+02  0.7816164E-02  0.1266605E+00
        -11   -1    0    0    0    0  0.00000000000E+00  0.00000000000E+00  0.45593999997E+02  0.45594000000E+02  0.51100000000E-03 0. -1.
         11   -1    0    0    0    0 -0.00000000000E+00 -0.00000000000E+00 -0.45593999997E+02  0.45594000000E+02  0.51100000000E-03 0.  1.
    9900012    2    1    2    0    0  0.23050377474E+02  0.40852592990E+01  0.21649693752E+02  0.59301976655E+02  0.50000059503E+02 0.  0.
        -12    1    1    2    0    0 -0.23050377474E+02 -0.40852592990E+01 -0.21649693752E+02  0.31886023345E+02  0.00000000000E+00 0.  1.
         11    1    3    3    0    0 -0.58224693252E+01 -0.10385221311E+02  0.13656921113E+02  0.18118097728E+02  0.51100000000E-03 0. -1.
        -11    1    3    3    0    0  0.90027606003E+01 -0.66940114961E+01  0.64007795275E+00  0.11236956367E+02  0.51100000000E-03 0.  1.
        -12    1    3    3    0    0  0.19870086199E+02  0.21164492106E+02  0.73526946854E+01  0.29946922560E+02  0.00000000000E+00 0.  1.
</event>
<event>
 7    1  0.1335379E-011  0.5930203E+02  0.7816164E-02  0.1266604E+00
        -11   -1    0    0    0    0  0.00000000000E+00  0.00000000000E+00  0.45593999997E+02  0.45594000000E+02  0.51100000000E-03 0.  1.
         11   -1    0    0    0    0 -0.00000000000E+00 -0.00000000000E+00 -0.45593999997E+02  0.45594000000E+02  0.51100000000E-03 0. -1.
    9900012    2    1    2    0    0  0.55055849188E+01  0.31000280444E+02  0.50384822685E+01  0.59302028845E+02  0.50000154686E+02 0.  0.
        -12    1    1    2    0    0 -0.55055849188E+01 -0.31000280444E+02 -0.50384822685E+01  0.31885971155E+02  0.00000000000E+00 0.  1.
         11    1    3    3    0    0  0.34202377570E+01  0.13134889518E+01 -0.30867531584E+01  0.47907541017E+01  0.51100000000E-03 0. -1.
        -11    1    3    3    0    0  0.33545083066E+01  0.24597422655E+02 -0.16189264480E+02  0.29637446110E+02  0.51100000000E-03 0.  1.
        -12    1    3    3    0    0 -0.12691611448E+01  0.50893688373E+01  0.24314499907E+02  0.24873828634E+02  0.00000000000E+00 0.  1.
</event>
<event>
 7    1  0.1335379E-011  0.5930193E+02  0.7816164E-02  0.1266605E+00
        -11   -1    0    0    0    0  0.00000000000E+00  0.00000000000E+00  0.45593999997E+02  0.45594000000E+02  0.51100000000E-03 0. -1.
         11   -1    0    0    0    0 -0.00000000000E+00 -0.00000000000E+00 -0.45593999997E+02  0.45594000000E+02  0.51100000000E-03 0.  1.
    9900012    2    1    2    0    0 -0.18275681910E+00 -0.30227330322E+02 -0.10148727520E+02  0.59301928296E+02  0.49999971309E+02 0.  0.
        -12    1    1    2    0    0  0.18275681910E+00  0.30227330322E+02  0.10148727520E+02  0.31886071704E+02  0.00000000000E+00 0.  1.
         11    1    3    3    0    0 -0.53683347275E+01 -0.77483724107E+01 -0.89023599304E+01  0.12965658693E+02  0.51100000000E-03 0.  1.
        -11    1    3    3    0    0  0.75964842822E+01 -0.30354696259E+02 -0.11363552761E+02  0.33290306247E+02  0.51100000000E-03 0. -1.
         12    1    3    3    0    0 -0.24109063738E+01  0.78757383479E+01  0.10117185172E+02  0.13045963356E+02  0.00000000000E+00 0. -1.
</event>
<event>
 7    1  0.1335379E-011  0.5930197E+02  0.7816164E-02  0.1266605E+00
        -11   -1    0    0    0    0  0.00000000000E+00  0.00000000000E+00  0.45593999997E+02  0.45594000000E+02  0.51100000000E-03 0. -1.
         11   -1    0    0    0    0 -0.00000000000E+00 -0.00000000000E+00 -0.45593999997E+02  0.45594000000E+02  0.51100000000E-03 0.  1.
    9900012    2    1    2    0    0 -0.12763168293E+02 -0.22875204979E+02 -0.18180908776E+02  0.59301969962E+02  0.50000047297E+02 0.  0.
        -12    1    1    2    0    0  0.12763168293E+02  0.22875204979E+02  0.18180908776E+02  0.31886030038E+02  0.00000000000E+00 0.  1.
         11    1    3    3    0    0 -0.75009545995E+00 -0.29675090125E+02 -0.75234719118E+01  0.30623132547E+02  0.51100000000E-03 0. -1.
        -11    1    3    3    0    0  0.99747192293E+00  0.84145762242E+01  0.36912863308E+01  0.92425991100E+01  0.51100000000E-03 0.  1.
        -12    1    3    3    0    0 -0.13010544756E+02 -0.16146910780E+01 -0.14348723195E+02  0.19436238305E+02  0.00000000000E+00 0.  1.
</event>
<event>
 7    1  0.1335379E-011  0.5930201E+02  0.7816164E-02  0.1266605E+00
        -11   -1    0    0    0    0  0.00000000000E+00  0.00000000000E+00  0.45593999997E+02  0.45594000000E+02  0.51100000000E-03 0.  1.
         11   -1    0    0    0    0 -0.00000000000E+00 -0.00000000000E+00 -0.45593999997E+02  0.45594000000E+02  0.51100000000E-03 0. -1.
    9900012    2    1    2    0    0 -0.20524504242E+02 -0.98165547967E+01 -0.22340459514E+02  0.59302013208E+02  0.50000126168E+02 0.  0.
        -12    1    1    2    0    0  0.20524504242E+02  0.98165547967E+01  0.22340459514E+02  0.31885986792E+02  0.00000000000E+00 0.  1.
         11    1    3    3    0    0 -0.59494182192E+01 -0.40381800493E+01 -0.16604713027E+02  0.18094722165E+02  0.51100000000E-03 0. -1.
        -11    1    3    3    0    0 -0.24561369210E+02  0.59189251448E+01 -0.53359326030E+01  0.25821826220E+02  0.51100000000E-03 0.  1.
         12    1    3    3    0    0  0.99862831877E+01 -0.11697299892E+02 -0.39981388392E+00  0.15385464823E+02  0.00000000000E+00 0. -1.
</event>
<event>
 7    1  0.1335379E-011  0.5930196E+02  0.7816164E-02  0.1266605E+00
        -11   -1    0    0    0    0  0.00000000000E+00  0.00000000000E+00  0.45593999997E+02  0.45594000000E+02  0.51100000000E-03 0. -1.
         11   -1    0    0    0    0 -0.00000000000E+00 -0.00000000000E+00 -0.45593999997E+02  0.45594000000E+02  0.51100000000E-03 0.  1.
    9900012    2    1    2    0    0  0.79259679980E+01 -0.30598934995E+02  0.41956942807E+01  0.59301958508E+02  0.50000026409E+02 0.  0.
        -12    1    1    2    0    0 -0.79259679980E+01  0.30598934995E+02 -0.41956942807E+01  0.31886041492E+02  0.00000000000E+00 0.  1.
         11    1    3    3    0    0  0.18858809450E+02 -0.10508777184E+02  0.94265615228E+01  0.23557358812E+02  0.51100000000E-03 0. -1.
        -11    1    3    3    0    0  0.84567840632E+01 -0.62558960436E+01 -0.56119508057E+01  0.11922559461E+02  0.51100000000E-03 0.  1.
         12    1    3    3    0    0 -0.19389625515E+02 -0.13834261767E+02  0.38108356369E+00  0.23822040235E+02  0.00000000000E+00 0. -1.
</event>
<event>
 7    1  0.1335379E-011  0.5930192E+02  0.7816164E-02  0.1266605E+00
        -11   -1    0    0    0    0  0.00000000000E+00  0.00000000000E+00  0.45593999997E+02  0.45594000000E+02  0.51100000000E-03 0. -1.
         11   -1    0    0    0    0 -0.00000000000E+00 -0.00000000000E+00 -0.45593999997E+02  0.45594000000E+02  0.51100000000E-03 0.  1.
    9900012    2    1    2    0    0 -0.16886104997E+02 -0.90785638285E+01  0.25478644260E+02  0.59301918766E+02  0.49999953928E+02 0.  0.
        -12    1    1    2    0    0  0.16886104997E+02  0.90785638285E+01 -0.25478644260E+02  0.31886081234E+02  0.00000000000E+00 0.  1.
         11    1    3    3    0    0 -0.23535635099E+01  0.23924124788E+01  0.13434261969E+00  0.33587120841E+01  0.51100000000E-03 0. -1.
        -11    1    3    3    0    0 -0.18222783556E+02  0.12804645224E+02  0.25108852944E+01  0.22412793781E+02  0.51100000000E-03 0.  1.
        -12    1    3    3    0    0  0.36902420693E+01 -0.24275621531E+02  0.22833416346E+02  0.33530412901E+02  0.00000000000E+00 0.  1.
</event>
<event>
 7    1  0.1335379E-011  0.5930194E+02  0.7816164E-02  0.1266605E+00
        -11   -1    0    0    0    0  0.00000000000E+00  0.00000000000E+00  0.45593999997E+02  0.45594000000E+02  0.51100000000E-03 0. -1.
         11   -1    0    0    0    0 -0.00000000000E+00 -0.00000000000E+00 -0.45593999997E+02  0.45594000000E+02  0.51100000000E-03 0.  1.
    9900012    2    1    2    0    0 -0.76451211239E+01 -0.29268187331E+02  0.10081969699E+02  0.59301940669E+02  0.49999993875E+02 0.  0.
        -12    1    1    2    0    0  0.76451211239E+01  0.29268187331E+02 -0.10081969699E+02  0.31886059331E+02  0.00000000000E+00 0.  1.
         11    1    3    3    0    0 -0.12903597784E+02  0.73396067954E+00  0.88417463325E+01  0.15659438448E+02  0.51100000000E-03 0. -1.
        -11    1    3    3    0    0 -0.11384081033E+02 -0.19765577473E+02  0.58907680753E+01  0.23557939268E+02  0.51100000000E-03 0.  1.
        -12    1    3    3    0    0  0.16642557693E+02 -0.10236570537E+02 -0.46505447088E+01  0.20084562953E+02  0.00000000000E+00 0.  1.
</event>
<event>
 7    1  0.1335379E-011  0.5930200E+02  0.7816164E-02  0.1266605E+00
        -11   -1    0    0    0    0  0.00000000000E+00  0.00000000000E+00  0.45593999997E+02  0.45594000000E+02  0.51100000000E-03 0. -1.
         11   -1    0    0    0    0 -0.00000000000E+00 -0.00000000000E+00 -0.45593999997E+02  0.45594000000E+02  0.51100000000E-03 0.  1.
    9900012    2    1    2    0    0 -0.31460461551E+02 -0.35391599290E+01 -0.37987710822E+01  0.59302000632E+02  0.50000103232E+02 0.  0.
        -12    1    1    2    0    0  0.31460461551E+02  0.35391599290E+01  0.37987710822E+01  0.31885999368E+02  0.00000000000E+00 0.  1.
         11    1    3    3    0    0 -0.51513727367E+01 -0.90801808201E+00 -0.16042485660E+02  0.16873721709E+02  0.51100000000E-03 0. -1.
        -11    1    3    3    0    0  0.56167314626E+01 -0.59597471914E+01  0.47464746416E+01  0.94654783658E+01  0.51100000000E-03 0.  1.
         12    1    3    3    0    0 -0.31925820277E+02  0.33286053444E+01  0.74972399362E+01  0.32962800557E+02  0.00000000000E+00 0. -1.
</event>
<event>
 7    1  0.1335379E-011  0.5930195E+02  0.7816164E-02  0.1266605E+00
        -11   -1    0    0    0    0  0.00000000000E+00  0.00000000000E+00  0.45593999997E+02  0.45594000000E+02  0.51100000000E-03 0. -1.
         11   -1    0    0    0    0 -0.00000000000E+00 -0.00000000000E+00 -0.45593999997E+02  0.45594000000E+02  0.51100000000E-03 0.  1.
    9900012    2    1    2    0    0 -0.18028764078E+02 -0.19971224629E+02  0.17112397518E+02  0.59301948250E+02  0.50000007701E+02 0.  0.
        -12    1    1    2    0    0  0.18028764078E+02  0.19971224629E+02 -0.17112397518E+02  0.31886051750E+02  0.00000000000E+00 0.  1.
         11    1    3    3    0    0 -0.24087566019E+02 -0.40278279234E+01 -0.53112186274E+01  0.24992864543E+02  0.51100000000E-03 0. -1.
        -11    1    3    3    0    0 -0.63918315337E+01 -0.18335574699E+01  0.30999692576E+01  0.73367058691E+01  0.51100000000E-03 0.  1.
        -12    1    3    3    0    0  0.12450633475E+02 -0.14109839235E+02  0.19323646888E+02  0.26972377838E+02  0.00000000000E+00 0.  1.
</event>
<event>
 7    1  0.1335379E-011  0.5930197E+02  0.7816164E-02  0.1266605E+00
        -11   -1    0    0    0    0  0.00000000000E+00  0.00000000000E+00  0.45593999997E+02  0.45594000000E+02  0.51100000000E-03 0.  1.
         11   -1    0    0    0    0 -0.00000000000E+00 -0.00000000000E+00 -0.45593999997E+02  0.45594000000E+02  0.51100000000E-03 0. -1.
    9900012    2    1    2    0    0  0.15705194608E+02 -0.27690661420E+02 -0.18146931664E+01  0.59301968908E+02  0.50000045375E+02 0.  0.
        -12    1    1    2    0    0 -0.15705194608E+02  0.27690661420E+02  0.18146931664E+01  0.31886031092E+02  0.00000000000E+00 0.  1.
         11    1    3    3    0    0  0.63921609108E-01 -0.19413458525E+02  0.11027638667E+02  0.22327007697E+02  0.51100000000E-03 0. -1.
        -11    1    3    3    0    0  0.18007804007E+01 -0.17788403428E+02 -0.66910883634E+01  0.19090331854E+02  0.51100000000E-03 0.  1.
         12    1    3    3    0    0  0.13840492599E+02  0.95112005335E+01 -0.61512434705E+01  0.17884629356E+02  0.00000000000E+00 0. -1.
</event>
<event>
 7    1  0.1335379E-011  0.5930194E+02  0.7816164E-02  0.1266605E+00
        -11   -1    0    0    0    0  0.00000000000E+00  0.00000000000E+00  0.45593999997E+02  0.45594000000E+02  0.51100000000E-03 0.  1.
         11   -1    0    0    0    0 -0.00000000000E+00 -0.00000000000E+00 -0.45593999997E+02  0.45594000000E+02  0.51100000000E-03 0. -1.
    9900012    2    1    2    0    0  0.13972183440E+02 -0.28335249579E+02  0.43141956978E+01  0.59301944061E+02  0.50000000061E+02 0.  0.
        -12    1    1    2    0    0 -0.13972183440E+02  0.28335249579E+02 -0.43141956978E+01  0.31886055939E+02  0.00000000000E+00 0.  1.
         11    1    3    3    0    0  0.91518058314E+01 -0.17903228329E+02 -0.15193792366E+02  0.25201834483E+02  0.51100000000E-03 0. -1.
        -11    1    3    3    0    0  0.78326818556E+01  0.22370049513E+01 -0.25062346079E+01  0.85226937276E+01  0.51100000000E-03 0.  1.
        -12    1    3    3    0    0 -0.30123042471E+01 -0.12669026201E+02  0.22014222672E+02  0.25577415851E+02  0.00000000000E+00 0.  1.
</event>
<event>
 7    1  0.1335379E-011  0.5930193E+02  0.7816164E-02  0.1266605E+00
        -11   -1    0    0    0    0  0.00000000000E+00  0.00000000000E+00  0.45593999997E+02  0.45594000000E+02  0.51100000000E-03 0.  1.
         11   -1    0    0    0    0 -0.00000000000E+00 -0.00000000000E+00 -0.45593999997E+02  0.45594000000E+02  0.51100000000E-03 0. -1.
    9900012    2    1    2    0    0  0.21712237865E+02 -0.22655960864E+01 -0.23241497899E+02  0.59301930576E+02  0.49999975468E+02 0.  0.
        -12    1    1    2    0    0 -0.21712237865E+02  0.22655960864E+01  0.23241497899E+02  0.31886069424E+02  0.00000000000E+00 0.  1.
         11    1    3    3    0    0  0.15225097291E+02  0.85095760722E+01 -0.31022337678E+02  0.35589351044E+02  0.51100000000E-03 0. -1.
        -11    1    3    3    0    0  0.11691947445E+02 -0.33695626046E+01  0.64237409806E+00  0.12184754078E+02  0.51100000000E-03 0.  1.
        -12    1    3    3    0    0 -0.52048068710E+01 -0.74056095540E+01  0.71384656810E+01  0.11527825455E+02  0.00000000000E+00 0.  1.
</event>
<event>
 7    1  0.1335379E-011  0.5930196E+02  0.7816164E-02  0.1266605E+00
        -11   -1    0    0    0    0  0.00000000000E+00  0.00000000000E+00  0.45593999997E+02  0.45594000000E+02  0.51100000000E-03 0. -1.
         11   -1    0    0    0    0 -0.00000000000E+00 -0.00000000000E+00 -0.45593999997E+02  0.45594000000E+02  0.51100000000E-03 0.  1.
    9900012    2    1    2    0    0 -0.28349544063E+02  0.30250927269E+01 -0.14278373054E+02  0.59301956475E+02  0.50000022702E+02 0.  0.
        -12    1    1    2    0    0  0.28349544063E+02 -0.30250927269E+01  0.14278373054E+02  0.31886043525E+02  0.00000000000E+00 0.  1.
         11    1    3    3    0    0 -0.22405086623E+02 -0.43540442657E+01  0.40788195679E+01  0.23185822767E+02  0.51100000000E-03 0. -1.
        -11    1    3    3    0    0  0.12070186238E+01  0.79438221134E+01  0.64430268910E+01  0.10299213538E+02  0.51100000000E-03 0.  1.
        -12    1    3    3    0    0 -0.71514760639E+01 -0.56468512074E+00 -0.24800219513E+02  0.25816920171E+02  0.00000000000E+00 0.  1.
</event>
<event>
 7    1  0.1335379E-011  0.5930194E+02  0.7816164E-02  0.1266605E+00
        -11   -1    0    0    0    0  0.00000000000E+00  0.00000000000E+00  0.45593999997E+02  0.45594000000E+02  0.51100000000E-03 0.  1.
         11   -1    0    0    0    0 -0.00000000000E+00 -0.00000000000E+00 -0.45593999997E+02  0.45594000000E+02  0.51100000000E-03 0. -1.
    9900012    2    1    2    0    0 -0.15234056980E+02 -0.20447602706E+01 -0.27936777214E+02  0.59301936309E+02  0.49999985922E+02 0.  0.
        -12    1    1    2    0    0  0.15234056980E+02  0.20447602706E+01  0.27936777214E+02  0.31886063691E+02  0.00000000000E+00 0.  1.
         11    1    3    3    0    0 -0.70669289223E+01 -0.19180129181E+02  0.29575323485E+01  0.20653470354E+02  0.51100000000E-03 0.  1.
        -11    1    3    3    0    0 -0.87741487531E+00  0.61656594592E+01 -0.21725158392E+02  0.22600170814E+02  0.51100000000E-03 0. -1.
        -12    1    3    3    0    0 -0.72897131825E+01  0.10969709451E+02 -0.91691511705E+01  0.16048295140E+02  0.00000000000E+00 0.  1.
</event>
<event>
 7    1  0.1335379E-011  0.5930204E+02  0.7816164E-02  0.1266604E+00
        -11   -1    0    0    0    0  0.00000000000E+00  0.00000000000E+00  0.45593999997E+02  0.45594000000E+02  0.51100000000E-03 0.  1.
         11   -1    0    0    0    0 -0.00000000000E+00 -0.00000000000E+00 -0.45593999997E+02  0.45594000000E+02  0.51100000000E-03 0. -1.
    9900012    2    1    2    0    0  0.13857249676E+02  0.24818504404E+02 -0.14447587127E+02  0.59302042225E+02  0.50000179089E+02 0.  0.
        -12    1    1    2    0    0 -0.13857249676E+02 -0.24818504404E+02  0.14447587127E+02  0.31885957775E+02  0.00000000000E+00 0.  1.
         11    1    3    3    0    0 -0.35124576371E+01 -0.36691411098E+00 -0.17858458765E+01  0.39574272417E+01  0.51100000000E-03 0. -1.
        -11    1    3    3    0    0 -0.22995542562E+01 -0.97272337931E+01  0.54330414959E+01  0.11376509447E+02  0.51100000000E-03 0.  1.
         12    1    3    3    0    0  0.19669261569E+02  0.34912652308E+02 -0.18094782746E+02  0.43968105537E+02  0.00000000000E+00 0. -1.
</event>
<event>
 7    1  0.1335379E-011  0.5930194E+02  0.7816164E-02  0.1266605E+00
        -11   -1    0    0    0    0  0.00000000000E+00  0.00000000000E+00  0.45593999997E+02  0.45594000000E+02  0.51100000000E-03 0. -1.
         11   -1    0    0    0    0 -0.00000000000E+00 -0.00000000000E+00 -0.45593999997E+02  0.45594000000E+02  0.51100000000E-03 0.  1.
    9900012    2    1    2    0    0 -0.25390643377E+00  0.31756143129E+02  0.28641892539E+01  0.59301942310E+02  0.49999996867E+02 0.  0.
        -12    1    1    2    0    0  0.25390643377E+00 -0.31756143129E+02 -0.28641892539E+01  0.31886057690E+02  0.00000000000E+00 0.  1.
         11    1    3    3    0    0 -0.61070860144E+00  0.66602266303E+01  0.10621764291E+02  0.12552030141E+02  0.51100000000E-03 0. -1.
        -11    1    3    3    0    0 -0.74193995422E+01 -0.80717561582E+01  0.23548676174E+01  0.11213658582E+02  0.51100000000E-03 0.  1.
         12    1    3    3    0    0  0.77762017099E+01  0.33167672657E+02 -0.10112442654E+02  0.35536253586E+02  0.00000000000E+00 0. -1.
</event>
<event>
 7    1  0.1335379E-011  0.5930194E+02  0.7816164E-02  0.1266605E+00
        -11   -1    0    0    0    0  0.00000000000E+00  0.00000000000E+00  0.45593999997E+02  0.45594000000E+02  0.51100000000E-03 0.  1.
         11   -1    0    0    0    0 -0.00000000000E+00 -0.00000000000E+00 -0.45593999997E+02  0.45594000000E+02  0.51100000000E-03 0. -1.
    9900012    2    1    2    0    0 -0.12875521223E+02  0.29009504248E+02 -0.30643802253E+01  0.59301940199E+02  0.49999993017E+02 0.  0.
        -12    1    1    2    0    0  0.12875521223E+02 -0.29009504248E+02  0.30643802253E+01  0.31886059801E+02  0.00000000000E+00 0.  1.
         11    1    3    3    0    0 -0.84587042270E+01  0.30391291113E+02 -0.21503956244E+01  0.31619684602E+02  0.51100000000E-03 0. -1.
        -11    1    3    3    0    0  0.45534364923E+01  0.68608711635E+01  0.88364950726E+01  0.12078451161E+02  0.51100000000E-03 0.  1.
         12    1    3    3    0    0 -0.89702534882E+01 -0.82426580288E+01 -0.97504796734E+01  0.15603804436E+02  0.00000000000E+00 0. -1.
</event>
<event>
 7    1  0.1335379E-011  0.5930193E+02  0.7816164E-02  0.1266605E+00
        -11   -1    0    0    0    0  0.00000000000E+00  0.00000000000E+00  0.45593999997E+02  0.45594000000E+02  0.51100000000E-03 0.  1.
         11   -1    0    0    0    0 -0.00000000000E+00 -0.00000000000E+00 -0.45593999997E+02  0.45594000000E+02  0.51100000000E-03 0. -1.
    9900012    2    1    2    0    0 -0.15826682378E+02  0.55927796506E-01 -0.27680939799E+02  0.59301930452E+02  0.49999975242E+02 0.  0.
        -12    1    1    2    0    0  0.15826682378E+02 -0.55927796506E-01  0.27680939799E+02  0.31886069548E+02  0.00000000000E+00 0.  1.
         11    1    3    3    0    0 -0.97469922750E+01  0.80496378027E+01 -0.22980317912E+02  0.26227762748E+02  0.51100000000E-03 0. -1.
        -11    1    3    3    0    0  0.43522861096E+01  0.13556769859E+01 -0.15006195124E+02  0.15683307904E+02  0.51100000000E-03 0.  1.
        -12    1    3    3    0    0 -0.10431976213E+02 -0.93493869921E+01  0.10305573237E+02  0.17390859800E+02  0.00000000000E+00 0.  1.
</event>
<event>
 7    1  0.1335379E-011  0.5930189E+02  0.7816164E-02  0.1266605E+00
        -11   -1    0    0    0    0  0.00000000000E+00  0.00000000000E+00  0.45593999997E+02  0.45594000000E+02  0.51100000000E-03 0. -1.
         11   -1    0    0    0    0 -0.00000000000E+00 -0.00000000000E+00 -0.45593999997E+02  0.45594000000E+02  0.51100000000E-03 0.  1.
    9900012    2    1    2    0    0  0.18397502417E+02  0.41363942060E+01  0.25712759306E+02  0.59301892628E+02  0.49999906259E+02 0.  0.
        -12    1    1    2    0    0 -0.18397502417E+02 -0.41363942060E+01 -0.25712759306E+02  0.31886107372E+02  0.00000000000E+00 0.  1.
         11    1    3    3    0    0  0.89164575224E+01  0.11547941365E+02  0.24902778586E+02  0.28861852783E+02  0.51100000000E-03 0. -1.
        -11    1    3    3    0    0  0.56939297866E+01  0.65250346422E+01  0.10072073729E+02  0.13283206802E+02  0.51100000000E-03 0.  1.
        -12    1    3    3    0    0  0.37871151082E+01 -0.13936581801E+02 -0.92620930085E+01  0.17156833042E+02  0.00000000000E+00 0.  1.
</event>
<event>
 7    1  0.1335379E-011  0.5930193E+02  0.7816164E-02  0.1266605E+00
        -11   -1    0    0    0    0  0.00000000000E+00  0.00000000000E+00  0.45593999997E+02  0.45594000000E+02  0.51100000000E-03 0.  1.
         11   -1    0    0    0    0 -0.00000000000E+00 -0.00000000000E+00 -0.45593999997E+02  0.45594000000E+02  0.51100000000E-03 0. -1.
    9900012    2    1    2    0    0  0.17820177418E+02 -0.15455049672E+02  0.21454697987E+02  0.59301931736E+02  0.49999977584E+02 0.  0.
        -12    1    1    2    0    0 -0.17820177418E+02  0.15455049672E+02 -0.21454697987E+02  0.31886068264E+02  0.00000000000E+00 0.  1.
         11    1    3    3    0    0 -0.95546303496E+00 -0.14460002950E+01 -0.78734246413E+01  0.80619254715E+01  0.51100000000E-03 0. -1.
        -11    1    3    3    0    0  0.34361011048E+01 -0.17056394779E+02  0.30961771116E+02  0.35515611561E+02  0.51100000000E-03 0.  1.
         12    1    3    3    0    0  0.15339539349E+02  0.30473454018E+01 -0.16336484876E+01  0.15724394704E+02  0.00000000000E+00 0. -1.
</event>
<event>
 7    1  0.1335379E-011  0.5930198E+02  0.7816164E-02  0.1266605E+00
        -11   -1    0    0    0    0  0.00000000000E+00  0.00000000000E+00  0.45593999997E+02  0.45594000000E+02  0.51100000000E-03 0.  1.
         11   -1    0    0    0    0 -0.00000000000E+00 -0.00000000000E+00 -0.45593999997E+02  0.45594000000E+02  0.51100000000E-03 0. -1.
    9900012    2    1    2    0    0 -0.17085586186E+02 -0.20784419065E+01 -0.26841783455E+02  0.59301976179E+02  0.50000058636E+02 0.  0.
        -12    1    1    2    0    0  0.17085586186E+02  0.20784419065E+01  0.26841783455E+02  0.31886023821E+02  0.00000000000E+00 0.  1.
         11    1    3    3    0    0 -0.88348739725E+01 -0.74586312903E+01 -0.12516228601E+02  0.17039429494E+02  0.51100000000E-03 0. -1.
        -11    1    3    3    0    0 -0.42607579703E+01 -0.14307152190E+02 -0.16270328006E+02  0.22081037927E+02  0.51100000000E-03 0.  1.
        -12    1    3    3    0    0 -0.39899542429E+01  0.19687341574E+02  0.19447731515E+01  0.20181508757E+02  0.00000000000E+00 0.  1.
</event>
<event>
 7    1  0.1335379E-011  0.5930192E+02  0.7816164E-02  0.1266605E+00
        -11   -1    0    0    0    0  0.00000000000E+00  0.00000000000E+00  0.45593999997E+02  0.45594000000E+02  0.51100000000E-03 0. -1.
         11   -1    0    0    0    0 -0.00000000000E+00 -0.00000000000E+00 -0.45593999997E+02  0.45594000000E+02  0.51100000000E-03 0.  1.
    9900012    2    1    2    0    0  0.23165737667E+02 -0.18298393866E+02  0.12051536833E+02  0.59301919028E+02  0.49999954406E+02 0.  0.
        -12    1    1    2    0    0 -0.23165737667E+02  0.18298393866E+02 -0.12051536833E+02  0.31886080972E+02  0.00000000000E+00 0.  1.
         11    1    3    3    0    0  0.13466184876E+02 -0.22733970735E+01  0.20660855648E+02  0.24766457674E+02  0.51100000000E-03 0. -1.
        -11    1    3    3    0    0  0.15383666758E+02 -0.14962310610E+02  0.29001532301E+01  0.21654995514E+02  0.51100000000E-03 0.  1.
        -12    1    3    3    0    0 -0.56841139663E+01 -0.10626861830E+01 -0.11509472044E+02  0.12880465840E+02  0.00000000000E+00 0.  1.
</event>
<event>
 7    1  0.1335379E-011  0.5930188E+02  0.7816164E-02  0.1266605E+00
        -11   -1    0    0    0    0  0.00000000000E+00  0.00000000000E+00  0.45593999997E+02  0.45594000000E+02  0.51100000000E-03 0.  1.
         11   -1    0    0    0    0 -0.00000000000E+00 -0.00000000000E+00 -0.45593999997E+02  0.45594000000E+02  0.51100000000E-03 0. -1.
    9900012    2    1    2    0    0 -0.16332679078E+02  0.17921285756E+02 -0.20707382159E+02  0.59301881313E+02  0.49999885623E+02 0.  0.
        -12    1    1    2    0    0  0.16332679078E+02 -0.17921285756E+02  0.20707382159E+02  0.31886118687E+02  0.00000000000E+00 0.  1.
         11    1    3    3    0    0 -0.97616034463E+01 -0.51537103514E+01 -0.55162874706E+00  0.11052326758E+02  0.51100000000E-03 0.  1.
        -11    1    3    3    0    0 -0.12236323700E+02  0.31126704789E+02 -0.18638456667E+02  0.38288267601E+02  0.51100000000E-03 0. -1.
         12    1    3    3    0    0  0.56652480684E+01 -0.80517086814E+01 -0.15172967455E+01  0.99612869540E+01  0.00000000000E+00 0. -1.
</event>
<event>
 7    1  0.1335379E-011  0.5930192E+02  0.7816164E-02  0.1266605E+00
        -11   -1    0    0    0    0  0.00000000000E+00  0.00000000000E+00  0.45593999997E+02  0.45594000000E+02  0.51100000000E-03 0.  1.
         11   -1    0    0    0    0 -0.00000000000E+00 -0.00000000000E+00 -0.45593999997E+02  0.45594000000E+02  0.51100000000E-03 0. -1.
    9900012    2    1    2    0    0 -0.13645053410E+02  0.15599631599E+01 -0.28776745349E+02  0.59301920898E+02  0.49999957817E+02 0.  0.
        -12    1    1    2    0    0  0.13645053410E+02 -0.15599631599E+01  0.28776745349E+02  0.31886079102E+02  0.00000000000E+00 0.  1.
         11    1    3    3    0    0 -0.18372678871E+02 -0.36614605042E+01 -0.65719008747E+01  0.19853249188E+02  0.51100000000E-03 0. -1.
        -11    1    3    3    0    0 -0.94978270903E+01  0.82698904023E+01 -0.21458571924E+02  0.24881119669E+02  0.51100000000E-03 0.  1.
        -12    1    3    3    0    0  0.14225452552E+02 -0.30484667382E+01 -0.74627255004E+00  0.14567552042E+02  0.00000000000E+00 0.  1.
</event>
<event>
 7    1  0.1335379E-011  0.5930196E+02  0.7816164E-02  0.1266605E+00
        -11   -1    0    0    0    0  0.00000000000E+00  0.00000000000E+00  0.45593999997E+02  0.45594000000E+02  0.51100000000E-03 0.  1.
         11   -1    0    0    0    0 -0.00000000000E+00 -0.00000000000E+00 -0.45593999997E+02  0.45594000000E+02  0.51100000000E-03 0. -1.
    9900012    2    1    2    0    0  0.21254217222E+02 -0.16853498562E+02 -0.16761192854E+02  0.59301956824E+02  0.50000023337E+02 0.  0.
        -12    1    1    2    0    0 -0.21254217222E+02  0.16853498562E+02  0.16761192854E+02  0.31886043176E+02  0.00000000000E+00 0.  1.
         11    1    3    3    0    0  0.17395445963E+01 -0.54802463155E+01 -0.15223507874E+02  0.16273116091E+02  0.51100000000E-03 0.  1.
        -11    1    3    3    0    0  0.10800086351E+02 -0.35500577513E+01 -0.18918045541E+02  0.22071185346E+02  0.51100000000E-03 0. -1.
        -12    1    3    3    0    0  0.87145862748E+01 -0.78231944957E+01  0.17380360561E+02  0.20957655386E+02  0.00000000000E+00 0.  1.
</event>
<event>
 7    1  0.1335379E-011  0.5930194E+02  0.7816164E-02  0.1266605E+00
        -11   -1    0    0    0    0  0.00000000000E+00  0.00000000000E+00  0.45593999997E+02  0.45594000000E+02  0.51100000000E-03 0. -1.
         11   -1    0    0    0    0 -0.00000000000E+00 -0.00000000000E+00 -0.45593999997E+02  0.45594000000E+02  0.51100000000E-03 0.  1.
    9900012    2    1    2    0    0 -0.10013251937E+02 -0.10658099269E+02  0.28334798172E+02  0.59301935931E+02  0.49999985233E+02 0.  0.
        -12    1    1    2    0    0  0.10013251937E+02  0.10658099269E+02 -0.28334798172E+02  0.31886064069E+02  0.00000000000E+00 0.  1.
         11    1    3    3    0    0 -0.96726355176E+01 -0.37066503023E+01  0.23171740896E+02  0.25381660914E+02  0.51100000000E-03 0. -1.
        -11    1    3    3    0    0 -0.62871118067E-01 -0.42704664173E+00  0.18797595209E+02  0.18802550559E+02  0.51100000000E-03 0.  1.
        -12    1    3    3    0    0 -0.27774530152E+00 -0.65244023248E+01 -0.13634537933E+02  0.15117724458E+02  0.00000000000E+00 0.  1.
</event>
<event>
 7    1  0.1335379E-011  0.5930194E+02  0.7816164E-02  0.1266605E+00
        -11   -1    0    0    0    0  0.00000000000E+00  0.00000000000E+00  0.45593999997E+02  0.45594000000E+02  0.51100000000E-03 0.  1.
         11   -1    0    0    0    0 -0.00000000000E+00 -0.00000000000E+00 -0.45593999997E+02  0.45594000000E+02  0.51100000000E-03 0. -1.
    9900012    2    1    2    0    0  0.21240133945E+02  0.19161258183E+02 -0.14086298321E+02  0.59301938695E+02  0.49999990275E+02 0.  0.
        -12    1    1    2    0    0 -0.21240133945E+02 -0.19161258183E+02  0.14086298321E+02  0.31886061305E+02  0.00000000000E+00 0.  1.
         11    1    3    3    0    0  0.42132713618E+01  0.74807760547E+01 -0.31413088755E+01  0.91422911604E+01  0.51100000000E-03 0. -1.
        -11    1    3    3    0    0 -0.12562250160E+02  0.13767249678E+02 -0.82285087418E+01  0.20372914597E+02  0.51100000000E-03 0.  1.
         12    1    3    3    0    0  0.29589112743E+02 -0.20867675494E+01 -0.27164807036E+01  0.29786732938E+02  0.00000000000E+00 0. -1.
</event>
<event>
 7    1  0.1335379E-011  0.5930192E+02  0.7816164E-02  0.1266605E+00
        -11   -1    0    0    0    0  0.00000000000E+00  0.00000000000E+00  0.45593999997E+02  0.45594000000E+02  0.51100000000E-03 0.  1.
         11   -1    0    0    0    0 -0.00000000000E+00 -0.00000000000E+00 -0.45593999997E+02  0.45594000000E+02  0.51100000000E-03 0. -1.
    9900012    2    1    2    0    0  0.27538112075E+02  0.14775496521E+02 -0.63292435677E+01  0.59301917798E+02  0.49999952163E+02 0.  0.
        -12    1    1    2    0    0 -0.27538112075E+02 -0.14775496521E+02  0.63292435677E+01  0.31886082202E+02  0.00000000000E+00 0.  1.
         11    1    3    3    0    0 -0.41876511564E+01  0.14921523201E+01 -0.41088321404E+01  0.60535479326E+01  0.51100000000E-03 0. -1.
        -11    1    3    3    0    0 -0.11981026043E+01  0.14765076661E+02 -0.11786959315E+02  0.18930804230E+02  0.51100000000E-03 0.  1.
         12    1    3    3    0    0  0.32923865835E+02 -0.14817324604E+01  0.95665478873E+01  0.34317565635E+02  0.00000000000E+00 0. -1.
</event>
<event>
 7    1  0.1335379E-011  0.5930193E+02  0.7816164E-02  0.1266605E+00
        -11   -1    0    0    0    0  0.00000000000E+00  0.00000000000E+00  0.45593999997E+02  0.45594000000E+02  0.51100000000E-03 0.  1.
         11   -1    0    0    0    0 -0.00000000000E+00 -0.00000000000E+00 -0.45593999997E+02  0.45594000000E+02  0.51100000000E-03 0. -1.
    9900012    2    1    2    0    0 -0.27104520563E+02  0.14537445321E+02 -0.84100469910E+01  0.59301933422E+02  0.49999980658E+02 0.  0.
        -12    1    1    2    0    0  0.27104520563E+02 -0.14537445321E+02  0.84100469910E+01  0.31886066578E+02  0.00000000000E+00 0.  1.
         11    1    3    3    0    0  0.44079560549E+01  0.11282903753E+01 -0.15522411574E+02  0.16175548742E+02  0.51100000000E-03 0. -1.
        -11    1    3    3    0    0 -0.32631491175E+01  0.14270404707E+01 -0.81211060965E+01  0.88677478065E+01  0.51100000000E-03 0.  1.
        -12    1    3    3    0    0 -0.28249327500E+02  0.11982114475E+02  0.15233470680E+02  0.34258636874E+02  0.00000000000E+00 0.  1.
</event>
<event>
 7    1  0.1335379E-011  0.5930193E+02  0.7816164E-02  0.1266605E+00
        -11   -1    0    0    0    0  0.00000000000E+00  0.00000000000E+00  0.45593999997E+02  0.45594000000E+02  0.51100000000E-03 0. -1.
         11   -1    0    0    0    0 -0.00000000000E+00 -0.00000000000E+00 -0.45593999997E+02  0.45594000000E+02  0.51100000000E-03 0.  1.
    9900012    2    1    2    0    0  0.75896036172E+01 -0.12326985152E+02  0.28410644619E+02  0.59301931355E+02  0.49999976888E+02 0.  0.
        -12    1    1    2    0    0 -0.75896036172E+01  0.12326985152E+02 -0.28410644619E+02  0.31886068645E+02  0.00000000000E+00 0.  1.
         11    1    3    3    0    0  0.25206084647E+02 -0.79639075240E+01  0.18837988987E+02  0.32459826796E+02  0.51100000000E-03 0. -1.
        -11    1    3    3    0    0  0.83501966510E-01 -0.17450021486E+01  0.87584989121E+01  0.89310306534E+01  0.51100000000E-03 0.  1.
        -12    1    3    3    0    0 -0.17699982997E+02 -0.26180754789E+01  0.81415671989E+00  0.17911073906E+02  0.00000000000E+00 0.  1.
</event>
<event>
 7    1  0.1335379E-011  0.5930200E+02  0.7816164E-02  0.1266605E+00
        -11   -1    0    0    0    0  0.00000000000E+00  0.00000000000E+00  0.45593999997E+02  0.45594000000E+02  0.51100000000E-03 0.  1.
         11   -1    0    0    0    0 -0.00000000000E+00 -0.00000000000E+00 -0.45593999997E+02  0.45594000000E+02  0.51100000000E-03 0. -1.
    9900012    2    1    2    0    0 -0.26668913003E+02  0.12651190729E+02  0.12059580300E+02  0.59301999550E+02  0.50000101260E+02 0.  0.
        -12    1    1    2    0    0  0.26668913003E+02 -0.12651190729E+02 -0.12059580300E+02  0.31886000450E+02  0.00000000000E+00 0.  1.
         11    1    3    3    0    0 -0.26491626462E+02  0.67691280149E+01  0.12768851607E+02  0.30177324904E+02  0.51100000000E-03 0. -1.
        -11    1    3    3    0    0 -0.24331215535E+01 -0.62647705511E+01 -0.11103656905E+02  0.12979161278E+02  0.51100000000E-03 0.  1.
         12    1    3    3    0    0  0.22558350126E+01  0.12146833266E+02  0.10394385598E+02  0.16145513369E+02  0.00000000000E+00 0. -1.
</event>
<event>
 7    1  0.1335379E-011  0.5930195E+02  0.7816164E-02  0.1266605E+00
        -11   -1    0    0    0    0  0.00000000000E+00  0.00000000000E+00  0.45593999997E+02  0.45594000000E+02  0.51100000000E-03 0.  1.
         11   -1    0    0    0    0 -0.00000000000E+00 -0.00000000000E+00 -0.45593999997E+02  0.45594000000E+02  0.51100000000E-03 0. -1.
    9900012    2    1    2    0    0  0.31034359894E+02  0.47446541883E+01 -0.55746973960E+01  0.59301945235E+02  0.50000002203E+02 0.  0.
        -12    1    1    2    0    0 -0.31034359894E+02 -0.47446541883E+01  0.55746973960E+01  0.31886054765E+02  0.00000000000E+00 0.  1.
         11    1    3    3    0    0 -0.74675813951E+01  0.28342138953E+01 -0.83421737660E+01  0.11549433047E+02  0.51100000000E-03 0. -1.
        -11    1    3    3    0    0  0.18865646458E+02 -0.12604537995E+02 -0.23276246830E+01  0.22807999283E+02  0.51100000000E-03 0.  1.
         12    1    3    3    0    0  0.19636294831E+02  0.14514978288E+02  0.50951010530E+01  0.24944512906E+02  0.00000000000E+00 0. -1.
</event>
<event>
 7    1  0.1335379E-011  0.5930196E+02  0.7816164E-02  0.1266605E+00
        -11   -1    0    0    0    0  0.00000000000E+00  0.00000000000E+00  0.45593999997E+02  0.45594000000E+02  0.51100000000E-03 0.  1.
         11   -1    0    0    0    0 -0.00000000000E+00 -0.00000000000E+00 -0.45593999997E+02  0.45594000000E+02  0.51100000000E-03 0. -1.
    9900012    2    1    2    0    0 -0.30183352449E+02 -0.46453190996E+01 -0.91709369123E+01  0.59301955428E+02  0.50000020792E+02 0.  0.
        -12    1    1    2    0    0  0.30183352449E+02  0.46453190996E+01  0.91709369123E+01  0.31886044572E+02  0.00000000000E+00 0.  1.
         11    1    3    3    0    0 -0.75544831181E+01  0.13240637955E+02 -0.10287962167E+02  0.18390945447E+02  0.51100000000E-03 0. -1.
        -11    1    3    3    0    0 -0.11736408908E+02 -0.83784287994E+01  0.15042007665E+02  0.20837546834E+02  0.51100000000E-03 0.  1.
         12    1    3    3    0    0 -0.10892460422E+02 -0.95075282555E+01 -0.13924982410E+02  0.20073463147E+02  0.00000000000E+00 0. -1.
</event>
<event>
 7    1  0.1335379E-011  0.5930196E+02  0.7816164E-02  0.1266605E+00
        -11   -1    0    0    0    0  0.00000000000E+00  0.00000000000E+00  0.45593999997E+02  0.45594000000E+02  0.51100000000E-03 0.  1.
         11   -1    0    0    0    0 -0.00000000000E+00 -0.00000000000E+00 -0.45593999997E+02  0.45594000000E+02  0.51100000000E-03 0. -1.
    9900012    2    1    2    0    0 -0.22260018749E+01 -0.31309020700E+02  0.56133541494E+01  0.59301959067E+02  0.50000027429E+02 0.  0.
        -12    1    1    2    0    0  0.22260018749E+01  0.31309020700E+02 -0.56133541494E+01  0.31886040933E+02  0.00000000000E+00 0.  1.
         11    1    3    3    0    0 -0.20545865486E+01  0.24639795436E+01 -0.15460611241E+01  0.35612955982E+01  0.51100000000E-03 0. -1.
        -11    1    3    3    0    0 -0.16900578550E+02 -0.10114099884E+02 -0.99749676262E+01  0.22077693521E+02  0.51100000000E-03 0.  1.
        -12    1    3    3    0    0  0.16729163224E+02 -0.23658900360E+02  0.17134382900E+02  0.33662969949E+02  0.00000000000E+00 0.  1.
</event>
<event>
 7    1  0.1335379E-011  0.5930197E+02  0.7816164E-02  0.1266605E+00
        -11   -1    0    0    0    0  0.00000000000E+00  0.00000000000E+00  0.45593999997E+02  0.45594000000E+02  0.51100000000E-03 0.  1.
         11   -1    0    0    0    0 -0.00000000000E+00 -0.00000000000E+00 -0.45593999997E+02  0.45594000000E+02  0.51100000000E-03 0. -1.
    9900012    2    1    2    0    0  0.80994898390E+01  0.34918199496E+01 -0.30641873720E+02  0.59301969088E+02  0.50000045704E+02 0.  0.
        -12    1    1    2    0    0 -0.80994898390E+01 -0.34918199496E+01  0.30641873720E+02  0.31886030912E+02  0.00000000000E+00 0.  1.
         11    1    3    3    0    0 -0.40869640001E+01  0.14997588793E+02 -0.19086599906E+02  0.24615630005E+02  0.51100000000E-03 0. -1.
        -11    1    3    3    0    0  0.23722115667E+01 -0.14893309508E+02 -0.17194615555E+02  0.22871223408E+02  0.51100000000E-03 0.  1.
         12    1    3    3    0    0  0.98142422724E+01  0.33875406652E+01  0.56393417408E+01  0.11815115675E+02  0.00000000000E+00 0. -1.
</event>
<event>
 7    1  0.1335379E-011  0.5930193E+02  0.7816164E-02  0.1266605E+00
        -11   -1    0    0    0    0  0.00000000000E+00  0.00000000000E+00  0.45593999997E+02  0.45594000000E+02  0.51100000000E-03 0.  1.
         11   -1    0    0    0    0 -0.00000000000E+00 -0.00000000000E+00 -0.45593999997E+02  0.45594000000E+02  0.51100000000E-03 0. -1.
    9900012    2    1    2    0    0 -0.18760367176E+02 -0.22572676501E+02 -0.12459697641E+02  0.59301934606E+02  0.49999982817E+02 0.  0.
        -12    1    1    2    0    0  0.18760367176E+02  0.22572676501E+02  0.12459697641E+02  0.31886065394E+02  0.00000000000E+00 0.  1.
         11    1    3    3    0    0 -0.58467838885E+01 -0.16374293875E+02  0.86304006996E+01  0.19410981383E+02  0.51100000000E-03 0. -1.
        -11    1    3    3    0    0 -0.76437145070E+01  0.11686471269E+02 -0.38220041851E+01  0.14477834729E+02  0.51100000000E-03 0.  1.
         12    1    3    3    0    0 -0.52698687807E+01 -0.17884853895E+02 -0.17268094156E+02  0.25413118494E+02  0.00000000000E+00 0. -1.
</event>
<event>
 7    1  0.1335379E-011  0.5930195E+02  0.7816164E-02  0.1266605E+00
        -11   -1    0    0    0    0  0.00000000000E+00  0.00000000000E+00  0.45593999997E+02  0.45594000000E+02  0.51100000000E-03 0.  1.
         11   -1    0    0    0    0 -0.00000000000E+00 -0.00000000000E+00 -0.45593999997E+02  0.45594000000E+02  0.51100000000E-03 0. -1.
    9900012    2    1    2    0    0 -0.20206063802E+02 -0.20505027694E+02  0.13710551790E+02  0.59301946537E+02  0.50000004576E+02 0.  0.
        -12    1    1    2    0    0  0.20206063802E+02  0.20505027694E+02 -0.13710551790E+02  0.31886053463E+02  0.00000000000E+00 0.  1.
         11    1    3    3    0    0 -0.10336112259E+02 -0.10549671657E+02 -0.11260531934E+02  0.18572301107E+02  0.51100000000E-03 0. -1.
        -11    1    3    3    0    0 -0.57620199906E+01  0.85042903494E+01  0.17707600294E+02  0.20471515263E+02  0.51100000000E-03 0.  1.
         12    1    3    3    0    0 -0.41079315528E+01 -0.18459646386E+02  0.72634834302E+01  0.20258130167E+02  0.00000000000E+00 0. -1.
</event>
<event>
 7    1  0.1335379E-011  0.5930192E+02  0.7816164E-02  0.1266605E+00
        -11   -1    0    0    0    0  0.00000000000E+00  0.00000000000E+00  0.45593999997E+02  0.45594000000E+02  0.51100000000E-03 0. -1.
         11   -1    0    0    0    0 -0.00000000000E+00 -0.00000000000E+00 -0.45593999997E+02  0.45594000000E+02  0.51100000000E-03 0.  1.
    9900012    2    1    2    0    0 -0.31459158879E+02  0.26263082641E+01  0.44883906954E+01  0.59301924301E+02  0.49999964023E+02 0.  0.
        -12    1    1    2    0    0  0.31459158879E+02 -0.26263082641E+01 -0.44883906954E+01  0.31886075699E+02  0.00000000000E+00 0.  1.
         11    1    3    3    0    0  0.13325568552E+01 -0.61824754959E+01  0.26324565920E+01  0.68504407887E+01  0.51100000000E-03 0. -1.
        -11    1    3    3    0    0 -0.75010001581E+01  0.58716167957E+01  0.19344710148E+02  0.21562900967E+02  0.51100000000E-03 0.  1.
         12    1    3    3    0    0 -0.25290715576E+02  0.29371669643E+01 -0.17488776044E+02  0.30888582545E+02  0.00000000000E+00 0. -1.
</event>
<event>
 7    1  0.1335379E-011  0.5930193E+02  0.7816164E-02  0.1266605E+00
        -11   -1    0    0    0    0  0.00000000000E+00  0.00000000000E+00  0.45593999997E+02  0.45594000000E+02  0.51100000000E-03 0.  1.
         11   -1    0    0    0    0 -0.00000000000E+00 -0.00000000000E+00 -0.45593999997E+02  0.45594000000E+02  0.51100000000E-03 0. -1.
    9900012    2    1    2    0    0 -0.17335412861E+02  0.23098015097E+02 -0.13516161464E+02  0.59301929982E+02  0.49999974384E+02 0.  0.
        -12    1    1    2    0    0  0.17335412861E+02 -0.23098015097E+02  0.13516161464E+02  0.31886070018E+02  0.00000000000E+00 0.  1.
         11    1    3    3    0    0 -0.30033779756E+00 -0.36391849312E+01  0.14449334981E+02  0.14903595251E+02  0.51100000000E-03 0.  1.
        -11    1    3    3    0    0  0.14608972898E+01  0.29279803050E+00 -0.38020798743E+01  0.40835968471E+01  0.51100000000E-03 0. -1.
        -12    1    3    3    0    0 -0.18495972353E+02  0.26444401998E+02 -0.24163416570E+02  0.40314737884E+02  0.00000000000E+00 0.  1.
</event>
<event>
 7    1  0.1335379E-011  0.5930196E+02  0.7816164E-02  0.1266605E+00
        -11   -1    0    0    0    0  0.00000000000E+00  0.00000000000E+00  0.45593999997E+02  0.45594000000E+02  0.51100000000E-03 0.  1.
         11   -1    0    0    0    0 -0.00000000000E+00 -0.00000000000E+00 -0.45593999997E+02  0.45594000000E+02  0.51100000000E-03 0. -1.
    9900012    2    1    2    0    0  0.29495352947E+02  0.12105945109E+02  0.43598948328E+00  0.59301955414E+02  0.50000020766E+02 0.  0.
        -12    1    1    2    0    0 -0.29495352947E+02 -0.12105945109E+02 -0.43598948328E+00  0.31886044586E+02  0.00000000000E+00 0.  1.
         11    1    3    3    0    0  0.20787435339E+02  0.34899113118E+01  0.18261000576E+01  0.21157305845E+02  0.51100000000E-03 0. -1.
        -11    1    3    3    0    0  0.19709271418E+02 -0.52202826179E+01 -0.17520417521E+01  0.20464026510E+02  0.51100000000E-03 0.  1.
        -12    1    3    3    0    0 -0.11001353810E+02  0.13836316415E+02  0.36193117778E+00  0.17680623059E+02  0.00000000000E+00 0.  1.
</event>
<event>
 7    1  0.1335379E-011  0.5930194E+02  0.7816164E-02  0.1266605E+00
        -11   -1    0    0    0    0  0.00000000000E+00  0.00000000000E+00  0.45593999997E+02  0.45594000000E+02  0.51100000000E-03 0.  1.
         11   -1    0    0    0    0 -0.00000000000E+00 -0.00000000000E+00 -0.45593999997E+02  0.45594000000E+02  0.51100000000E-03 0. -1.
    9900012    2    1    2    0    0  0.14928690242E+02 -0.13573493407E+01  0.28142715044E+02  0.59301943492E+02  0.49999999023E+02 0.  0.
        -12    1    1    2    0    0 -0.14928690242E+02  0.13573493407E+01 -0.28142715044E+02  0.31886056508E+02  0.00000000000E+00 0.  1.
         11    1    3    3    0    0 -0.68838209435E+01 -0.66287309762E+01  0.21104088143E+02  0.23166993800E+02  0.51100000000E-03 0.  1.
        -11    1    3    3    0    0  0.10980522028E+02 -0.10360511082E+02  0.80137354321E+01  0.17091869697E+02  0.51100000000E-03 0. -1.
         12    1    3    3    0    0  0.10831989157E+02  0.15631892718E+02 -0.97510853056E+00  0.19043079995E+02  0.00000000000E+00 0. -1.
</event>
<event>
 7    1  0.1335379E-011  0.5930196E+02  0.7816164E-02  0.1266605E+00
        -11   -1    0    0    0    0  0.00000000000E+00  0.00000000000E+00  0.45593999997E+02  0.45594000000E+02  0.51100000000E-03 0. -1.
         11   -1    0    0    0    0 -0.00000000000E+00 -0.00000000000E+00 -0.45593999997E+02  0.45594000000E+02  0.51100000000E-03 0.  1.
    9900012    2    1    2    0    0 -0.20698915167E+02 -0.15559794600E+02  0.18605571106E+02  0.59301959586E+02  0.50000028375E+02 0.  0.
        -12    1    1    2    0    0  0.20698915167E+02  0.15559794600E+02 -0.18605571106E+02  0.31886040414E+02  0.00000000000E+00 0.  1.
         11    1    3    3    0    0 -0.13003076502E+02 -0.22798741677E+02  0.39496883222E+01  0.26541715443E+02  0.51100000000E-03 0. -1.
        -11    1    3    3    0    0  0.33592895526E+01 -0.47970884309E+01  0.15322989636E+02  0.16403990227E+02  0.51100000000E-03 0.  1.
         12    1    3    3    0    0 -0.11055128217E+02  0.12036035507E+02 -0.66710685271E+00  0.16356253917E+02  0.00000000000E+00 0. -1.
</event>
<event>
 7    1  0.1335379E-011  0.5930193E+02  0.7816164E-02  0.1266605E+00
        -11   -1    0    0    0    0  0.00000000000E+00  0.00000000000E+00  0.45593999997E+02  0.45594000000E+02  0.51100000000E-03 0.  1.
         11   -1    0    0    0    0 -0.00000000000E+00 -0.00000000000E+00 -0.45593999997E+02  0.45594000000E+02  0.51100000000E-03 0. -1.
    9900012    2    1    2    0    0  0.14355322025E+02 -0.12136580482E+02 -0.25755569439E+02  0.59301933868E+02  0.49999981471E+02 0.  0.
        -12    1    1    2    0    0 -0.14355322025E+02  0.12136580482E+02  0.25755569439E+02  0.31886066132E+02  0.00000000000E+00 0.  1.
         11    1    3    3    0    0  0.17089009980E+01  0.10590903952E+01  0.38632368504E+01  0.43550676585E+01  0.51100000000E-03 0. -1.
        -11    1    3    3    0    0  0.11885669399E+01 -0.42552209661E+01  0.10974474309E+02  0.11830413495E+02  0.51100000000E-03 0.  1.
         12    1    3    3    0    0  0.11457854088E+02 -0.89404499110E+01 -0.40593280599E+02  0.43116452714E+02  0.00000000000E+00 0. -1.
</event>
<event>
 7    1  0.1335379E-011  0.5930195E+02  0.7816164E-02  0.1266605E+00
        -11   -1    0    0    0    0  0.00000000000E+00  0.00000000000E+00  0.45593999997E+02  0.45594000000E+02  0.51100000000E-03 0. -1.
         11   -1    0    0    0    0 -0.00000000000E+00 -0.00000000000E+00 -0.45593999997E+02  0.45594000000E+02  0.51100000000E-03 0.  1.
    9900012    2    1    2    0    0 -0.24584167010E+02 -0.14913976525E+02  0.13780856279E+02  0.59301953473E+02  0.50000017226E+02 0.  0.
        -12    1    1    2    0    0  0.24584167010E+02  0.14913976525E+02 -0.13780856279E+02  0.31886046527E+02  0.00000000000E+00 0.  1.
         11    1    3    3    0    0 -0.19806099388E+01 -0.92137635334E+01 -0.19747349982E+01  0.96289061037E+01  0.51100000000E-03 0. -1.
        -11    1    3    3    0    0  0.63534189706E+01  0.99251660246E+01 -0.24963660868E+01  0.12046024121E+02  0.51100000000E-03 0.  1.
         12    1    3    3    0    0 -0.28956976041E+02 -0.15625379016E+02  0.18251957364E+02  0.37627023248E+02  0.00000000000E+00 0. -1.
</event>
<event>
 7    1  0.1335379E-011  0.5930191E+02  0.7816164E-02  0.1266605E+00
        -11   -1    0    0    0    0  0.00000000000E+00  0.00000000000E+00  0.45593999997E+02  0.45594000000E+02  0.51100000000E-03 0.  1.
         11   -1    0    0    0    0 -0.00000000000E+00 -0.00000000000E+00 -0.45593999997E+02  0.45594000000E+02  0.51100000000E-03 0. -1.
    9900012    2    1    2    0    0 -0.11537875980E+02  0.24872056285E+02 -0.16278232047E+02  0.59301912053E+02  0.49999941685E+02 0.  0.
        -12    1    1    2    0    0  0.11537875980E+02 -0.24872056285E+02  0.16278232047E+02  0.31886087947E+02  0.00000000000E+00 0.  1.
         11    1    3    3    0    0  0.37370940214E+01  0.13035674686E+02 -0.76154296266E+01  0.15552795726E+02  0.51100000000E-03 0.  1.
        -11    1    3    3    0    0 -0.10394566474E+02  0.20074824847E+02  0.84545029701E+01  0.24135538642E+02  0.51100000000E-03 0. -1.
         12    1    3    3    0    0 -0.48804035281E+01 -0.82384432475E+01 -0.17117305391E+02  0.19613577684E+02  0.00000000000E+00 0. -1.
</event>
<event>
 7    1  0.1335379E-011  0.5930191E+02  0.7816164E-02  0.1266605E+00
        -11   -1    0    0    0    0  0.00000000000E+00  0.00000000000E+00  0.45593999997E+02  0.45594000000E+02  0.51100000000E-03 0. -1.
         11   -1    0    0    0    0 -0.00000000000E+00 -0.00000000000E+00 -0.45593999997E+02  0.45594000000E+02  0.51100000000E-03 0.  1.
    9900012    2    1    2    0    0  0.73522276728E+01 -0.20759582424E+02  0.23058778393E+02  0.59301909379E+02  0.49999936808E+02 0.  0.
        -12    1    1    2    0    0 -0.73522276728E+01  0.20759582424E+02 -0.23058778393E+02  0.31886090621E+02  0.00000000000E+00 0.  1.
         11    1    3    3    0    0 -0.55692865810E+00 -0.21381959897E+02 -0.94493240090E+00  0.21410074172E+02  0.51100000000E-03 0. -1.
        -11    1    3    3    0    0  0.46954554510E+01  0.33542063711E+01 -0.55692257843E+01  0.80196183432E+01  0.51100000000E-03 0.  1.
         12    1    3    3    0    0  0.32137008798E+01 -0.27318288976E+01  0.29572936578E+02  0.29872216863E+02  0.00000000000E+00 0. -1.
</event>
<event>
 7    1  0.1335379E-011  0.5930192E+02  0.7816164E-02  0.1266605E+00
        -11   -1    0    0    0    0  0.00000000000E+00  0.00000000000E+00  0.45593999997E+02  0.45594000000E+02  0.51100000000E-03 0.  1.
         11   -1    0    0    0    0 -0.00000000000E+00 -0.00000000000E+00 -0.45593999997E+02  0.45594000000E+02  0.51100000000E-03 0. -1.
    9900012    2    1    2    0    0 -0.31384378169E+02 -0.26489126320E+00  0.56278642431E+01  0.59301918140E+02  0.49999952787E+02 0.  0.
        -12    1    1    2    0    0  0.31384378169E+02  0.26489126320E+00 -0.56278642431E+01  0.31886081860E+02  0.00000000000E+00 0.  1.
         11    1    3    3    0    0 -0.33279898086E+00 -0.11629787787E+02 -0.49507531119E+01  0.12644076707E+02  0.51100000000E-03 0. -1.
        -11    1    3    3    0    0 -0.73319770379E+01 -0.10450933434E+02  0.87557695402E-01  0.12766658276E+02  0.51100000000E-03 0.  1.
        -12    1    3    3    0    0 -0.23719602151E+02  0.21815829958E+02  0.10491059660E+02  0.33891183156E+02  0.00000000000E+00 0.  1.
</event>
<event>
 7    1  0.1335379E-011  0.5930193E+02  0.7816164E-02  0.1266605E+00
        -11   -1    0    0    0    0  0.00000000000E+00  0.00000000000E+00  0.45593999997E+02  0.45594000000E+02  0.51100000000E-03 0.  1.
         11   -1    0    0    0    0 -0.00000000000E+00 -0.00000000000E+00 -0.45593999997E+02  0.45594000000E+02  0.51100000000E-03 0. -1.
    9900012    2    1    2    0    0  0.21225948134E+02  0.38142283776E+01 -0.23486852703E+02  0.59301929967E+02  0.49999974356E+02 0.  0.
        -12    1    1    2    0    0 -0.21225948134E+02 -0.38142283776E+01  0.23486852703E+02  0.31886070033E+02  0.00000000000E+00 0.  1.
         11    1    3    3    0    0  0.73475723052E+01 -0.89356338911E+01 -0.51125584588E+01  0.12647949481E+02  0.51100000000E-03 0. -1.
        -11    1    3    3    0    0  0.10891425931E+02 -0.10282151410E+02  0.27858861879E+01  0.15235056893E+02  0.51100000000E-03 0.  1.
         12    1    3    3    0    0  0.29869498975E+01  0.23032013679E+02 -0.21160180432E+02  0.31418923592E+02  0.00000000000E+00 0. -1.
</event>
<event>
 7    1  0.1335379E-011  0.5930195E+02  0.7816164E-02  0.1266605E+00
        -11   -1    0    0    0    0  0.00000000000E+00  0.00000000000E+00  0.45593999997E+02  0.45594000000E+02  0.51100000000E-03 0.  1.
         11   -1    0    0    0    0 -0.00000000000E+00 -0.00000000000E+00 -0.45593999997E+02  0.45594000000E+02  0.51100000000E-03 0. -1.
    9900012    2    1    2    0    0  0.15911728971E+01  0.31668708852E+02 -0.33587348530E+01  0.59301952090E+02  0.50000014703E+02 0.  0.
        -12    1    1    2    0    0 -0.15911728971E+01 -0.31668708852E+02  0.33587348530E+01  0.31886047910E+02  0.00000000000E+00 0.  1.
         11    1    3    3    0    0  0.28100439507E+00  0.32239158655E+01 -0.10002546344E+01  0.33871974511E+01  0.51100000000E-03 0. -1.
        -11    1    3    3    0    0 -0.12459368577E+02  0.12532443427E+02 -0.21248533420E+02  0.27636898819E+02  0.51100000000E-03 0.  1.
        -12    1    3    3    0    0  0.13769537079E+02  0.15912349559E+02  0.18890053201E+02  0.28277855820E+02  0.00000000000E+00 0.  1.
</event>
<event>
 7    1  0.1335379E-011  0.5930202E+02  0.7816164E-02  0.1266604E+00
        -11   -1    0    0    0    0  0.00000000000E+00  0.00000000000E+00  0.45593999997E+02  0.45594000000E+02  0.51100000000E-03 0.  1.
         11   -1    0    0    0    0 -0.00000000000E+00 -0.00000000000E+00 -0.45593999997E+02  0.45594000000E+02  0.51100000000E-03 0. -1.
    9900012    2    1    2    0    0 -0.37496294295E+01 -0.71702745400E+01 -0.30842226552E+02  0.59302023514E+02  0.50000144963E+02 0.  0.
        -12    1    1    2    0    0  0.37496294295E+01  0.71702745400E+01  0.30842226552E+02  0.31885976486E+02  0.00000000000E+00 0.  1.
         11    1    3    3    0    0 -0.25589849366E+01 -0.16054073925E+02 -0.16933711948E+02  0.23474077066E+02  0.51100000000E-03 0. -1.
        -11    1    3    3    0    0  0.37799109942E+01  0.89024456374E+01 -0.23285944068E+02  0.25214608005E+02  0.51100000000E-03 0.  1.
        -12    1    3    3    0    0 -0.49705554871E+01 -0.18646252046E-01  0.93774294645E+01  0.10613338442E+02  0.00000000000E+00 0.  1.
</event>
<event>
 7    1  0.1335379E-011  0.5930193E+02  0.7816164E-02  0.1266605E+00
        -11   -1    0    0    0    0  0.00000000000E+00  0.00000000000E+00  0.45593999997E+02  0.45594000000E+02  0.51100000000E-03 0.  1.
         11   -1    0    0    0    0 -0.00000000000E+00 -0.00000000000E+00 -0.45593999997E+02  0.45594000000E+02  0.51100000000E-03 0. -1.
    9900012    2    1    2    0    0 -0.25831142991E+02  0.17641073007E+02  0.61859728742E+01  0.59301926779E+02  0.49999968542E+02 0.  0.
        -12    1    1    2    0    0  0.25831142991E+02 -0.17641073007E+02 -0.61859728742E+01  0.31886073221E+02  0.00000000000E+00 0.  1.
         11    1    3    3    0    0 -0.20054957234E+02  0.36049640197E-01  0.94580245998E+01  0.22173336213E+02  0.51100000000E-03 0. -1.
        -11    1    3    3    0    0  0.86181192773E+01  0.78156389365E+01  0.99181079460E+01  0.15288069118E+02  0.51100000000E-03 0.  1.
         12    1    3    3    0    0 -0.14394305034E+02  0.97893844304E+01 -0.13190159672E+02  0.21840521448E+02  0.00000000000E+00 0. -1.
</event>
<event>
 7    1  0.1335379E-011  0.5930192E+02  0.7816164E-02  0.1266605E+00
        -11   -1    0    0    0    0  0.00000000000E+00  0.00000000000E+00  0.45593999997E+02  0.45594000000E+02  0.51100000000E-03 0.  1.
         11   -1    0    0    0    0 -0.00000000000E+00 -0.00000000000E+00 -0.45593999997E+02  0.45594000000E+02  0.51100000000E-03 0. -1.
    9900012    2    1    2    0    0  0.13040923122E+02  0.21069803700E+02 -0.20067872896E+02  0.59301924255E+02  0.49999963939E+02 0.  0.
        -12    1    1    2    0    0 -0.13040923122E+02 -0.21069803700E+02  0.20067872896E+02  0.31886075745E+02  0.00000000000E+00 0.  1.
         11    1    3    3    0    0  0.94295464702E+01 -0.67505870688E+01 -0.56733359289E+01  0.12910209651E+02  0.51100000000E-03 0. -1.
        -11    1    3    3    0    0  0.97145403661E+01  0.11690090414E+02  0.87421804197E+01  0.17534429764E+02  0.51100000000E-03 0.  1.
         12    1    3    3    0    0 -0.61031637147E+01  0.16130300355E+02 -0.23136717387E+02  0.28857284840E+02  0.00000000000E+00 0. -1.
</event>
<event>
 7    1  0.1335379E-011  0.5930193E+02  0.7816164E-02  0.1266605E+00
        -11   -1    0    0    0    0  0.00000000000E+00  0.00000000000E+00  0.45593999997E+02  0.45594000000E+02  0.51100000000E-03 0.  1.
         11   -1    0    0    0    0 -0.00000000000E+00 -0.00000000000E+00 -0.45593999997E+02  0.45594000000E+02  0.51100000000E-03 0. -1.
    9900012    2    1    2    0    0  0.12100899948E+02 -0.27376992655E+02 -0.10990446651E+02  0.59301930565E+02  0.49999975447E+02 0.  0.
        -12    1    1    2    0    0 -0.12100899948E+02  0.27376992655E+02  0.10990446651E+02  0.31886069435E+02  0.00000000000E+00 0.  1.
         11    1    3    3    0    0  0.52595946509E+01 -0.24709830524E+02 -0.66361051969E+01  0.26120431713E+02  0.51100000000E-03 0. -1.
        -11    1    3    3    0    0 -0.55186505124E+01 -0.67635789921E+01  0.10350550137E+02  0.13540140054E+02  0.51100000000E-03 0.  1.
        -12    1    3    3    0    0  0.12359955810E+02  0.40964168609E+01 -0.14704891592E+02  0.19641358798E+02  0.00000000000E+00 0.  1.
</event>
<event>
 7    1  0.1335379E-011  0.5930166E+02  0.7816164E-02  0.1266606E+00
        -11   -1    0    0    0    0  0.00000000000E+00  0.00000000000E+00  0.45593999997E+02  0.45594000000E+02  0.51100000000E-03 0.  1.
         11   -1    0    0    0    0 -0.00000000000E+00 -0.00000000000E+00 -0.45593999997E+02  0.45594000000E+02  0.51100000000E-03 0. -1.
    9900012    2    1    2    0    0  0.29707104162E+01  0.29787510775E+02 -0.10982621044E+02  0.59301656786E+02  0.49999476137E+02 0.  0.
        -12    1    1    2    0    0 -0.29707104162E+01 -0.29787510775E+02  0.10982621044E+02  0.31886343214E+02  0.00000000000E+00 0.  1.
         11    1    3    3    0    0  0.18369169674E+02  0.28956015270E+02 -0.13898103232E+02  0.37000466059E+02  0.51100000000E-03 0. -1.
        -11    1    3    3    0    0 -0.51383919931E+01 -0.71268644484E+01 -0.72439518990E+00  0.88158957453E+01  0.51100000000E-03 0.  1.
        -12    1    3    3    0    0 -0.10260067265E+02  0.79583599531E+01  0.36398773775E+01  0.13485294982E+02  0.00000000000E+00 0.  1.
</event>
<event>
 7    1  0.1335379E-011  0.5930203E+02  0.7816164E-02  0.1266604E+00
        -11   -1    0    0    0    0  0.00000000000E+00  0.00000000000E+00  0.45593999997E+02  0.45594000000E+02  0.51100000000E-03 0. -1.
         11   -1    0    0    0    0 -0.00000000000E+00 -0.00000000000E+00 -0.45593999997E+02  0.45594000000E+02  0.51100000000E-03 0.  1.
    9900012    2    1    2    0    0  0.12008723239E+02  0.14892271824E+02  0.25509332751E+02  0.59302027358E+02  0.50000151975E+02 0.  0.
        -12    1    1    2    0    0 -0.12008723239E+02 -0.14892271824E+02 -0.25509332751E+02  0.31885972642E+02  0.00000000000E+00 0.  1.
         11    1    3    3    0    0  0.17770812248E+02  0.21438460108E+02  0.49576983593E+01  0.28284061113E+02  0.51100000000E-03 0. -1.
        -11    1    3    3    0    0  0.79420276530E+01 -0.36170622562E+01  0.11078004258E+02  0.14102521803E+02  0.51100000000E-03 0.  1.
        -12    1    3    3    0    0 -0.13704116662E+02 -0.29291260281E+01  0.94736301340E+01  0.16915444443E+02  0.00000000000E+00 0.  1.
</event>
<event>
 7    1  0.1335379E-011  0.5930190E+02  0.7816164E-02  0.1266605E+00
        -11   -1    0    0    0    0  0.00000000000E+00  0.00000000000E+00  0.45593999997E+02  0.45594000000E+02  0.51100000000E-03 0.  1.
         11   -1    0    0    0    0 -0.00000000000E+00 -0.00000000000E+00 -0.45593999997E+02  0.45594000000E+02  0.51100000000E-03 0. -1.
    9900012    2    1    2    0    0 -0.15725195927E+00  0.26628114297E+02  0.17539724982E+02  0.59301903474E+02  0.49999926041E+02 0.  0.
        -12    1    1    2    0    0  0.15725195927E+00 -0.26628114297E+02 -0.17539724982E+02  0.31886096526E+02  0.00000000000E+00 0.  1.
         11    1    3    3    0    0 -0.12165808260E+02  0.13006500074E+02  0.87919569993E+01  0.19861380691E+02  0.51100000000E-03 0. -1.
        -11    1    3    3    0    0 -0.10320502662E+02  0.44324206847E+01  0.10306731793E+02  0.15244272657E+02  0.51100000000E-03 0.  1.
         12    1    3    3    0    0  0.22329058963E+02  0.91891935381E+01 -0.15589638105E+01  0.24196250127E+02  0.00000000000E+00 0. -1.
</event>
<event>
 7    1  0.1335379E-011  0.5930191E+02  0.7816164E-02  0.1266605E+00
        -11   -1    0    0    0    0  0.00000000000E+00  0.00000000000E+00  0.45593999997E+02  0.45594000000E+02  0.51100000000E-03 0.  1.
         11   -1    0    0    0    0 -0.00000000000E+00 -0.00000000000E+00 -0.45593999997E+02  0.45594000000E+02  0.51100000000E-03 0. -1.
    9900012    2    1    2    0    0  0.15351838649E+02 -0.27451434388E+02  0.52404458220E+01  0.59301914127E+02  0.49999945469E+02 0.  0.
        -12    1    1    2    0    0 -0.15351838649E+02  0.27451434388E+02 -0.52404458220E+01  0.31886085873E+02  0.00000000000E+00 0.  1.
         11    1    3    3    0    0 -0.91273309143E+01 -0.15348126684E+02 -0.77486280089E+01  0.19465723686E+02  0.51100000000E-03 0. -1.
        -11    1    3    3    0    0  0.10851494726E+02 -0.17482307566E+02  0.14404346488E+02  0.25117149791E+02  0.51100000000E-03 0.  1.
         12    1    3    3    0    0  0.13627674837E+02  0.53789998616E+01 -0.14152726573E+01  0.14719040650E+02  0.00000000000E+00 0. -1.
</event>
<event>
 7    1  0.1335379E-011  0.5930193E+02  0.7816164E-02  0.1266605E+00
        -11   -1    0    0    0    0  0.00000000000E+00  0.00000000000E+00  0.45593999997E+02  0.45594000000E+02  0.51100000000E-03 0. -1.
         11   -1    0    0    0    0 -0.00000000000E+00 -0.00000000000E+00 -0.45593999997E+02  0.45594000000E+02  0.51100000000E-03 0.  1.
    9900012    2    1    2    0    0  0.19044891837E+02 -0.25392420778E+02  0.30394892070E+01  0.59301930429E+02  0.49999975200E+02 0.  0.
        -12    1    1    2    0    0 -0.19044891837E+02  0.25392420778E+02 -0.30394892070E+01  0.31886069571E+02  0.00000000000E+00 0.  1.
         11    1    3    3    0    0 -0.78524956835E+01 -0.70876030475E+01  0.12791932854E+01  0.10655146228E+02  0.51100000000E-03 0. -1.
        -11    1    3    3    0    0  0.96798570951E+00 -0.64982091656E+01 -0.14445528810E+02  0.15869373698E+02  0.51100000000E-03 0.  1.
         12    1    3    3    0    0  0.25929401811E+02 -0.11806608564E+02  0.16205824732E+02  0.32777410503E+02  0.00000000000E+00 0. -1.
</event>
<event>
 7    1  0.1335379E-011  0.5930194E+02  0.7816164E-02  0.1266605E+00
        -11   -1    0    0    0    0  0.00000000000E+00  0.00000000000E+00  0.45593999997E+02  0.45594000000E+02  0.51100000000E-03 0. -1.
         11   -1    0    0    0    0 -0.00000000000E+00 -0.00000000000E+00 -0.45593999997E+02  0.45594000000E+02  0.51100000000E-03 0.  1.
    9900012    2    1    2    0    0  0.14849927701E+02  0.22721127865E+02  0.16731730011E+02  0.59301940455E+02  0.49999993484E+02 0.  0.
        -12    1    1    2    0    0 -0.14849927701E+02 -0.22721127865E+02 -0.16731730011E+02  0.31886059545E+02  0.00000000000E+00 0.  1.
         11    1    3    3    0    0 -0.11077335475E+02  0.46956532214E+01 -0.68503172548E+01  0.13844976242E+02  0.51100000000E-03 0. -1.
        -11    1    3    3    0    0  0.25446520211E+00  0.12514660564E+02  0.90510000199E+01  0.15446749923E+02  0.51100000000E-03 0.  1.
         12    1    3    3    0    0  0.25672797974E+02  0.55108140798E+01  0.14531047246E+02  0.30010214289E+02  0.00000000000E+00 0. -1.
</event>
<event>
 7    1  0.1335379E-011  0.5930199E+02  0.7816164E-02  0.1266605E+00
        -11   -1    0    0    0    0  0.00000000000E+00  0.00000000000E+00  0.45593999997E+02  0.45594000000E+02  0.51100000000E-03 0. -1.
         11   -1    0    0    0    0 -0.00000000000E+00 -0.00000000000E+00 -0.45593999997E+02  0.45594000000E+02  0.51100000000E-03 0.  1.
    9900012    2    1    2    0    0 -0.14959775012E+02  0.35690138534E+00  0.28156619393E+02  0.59301992682E+02  0.50000088734E+02 0.  0.
        -12    1    1    2    0    0  0.14959775012E+02 -0.35690138534E+00 -0.28156619393E+02  0.31886007318E+02  0.00000000000E+00 0.  1.
         11    1    3    3    0    0  0.47138809314E+01 -0.79319800482E+00  0.33012368026E+02  0.33356652702E+02  0.51100000000E-03 0. -1.
        -11    1    3    3    0    0 -0.48271716387E+01  0.56143985934E+01  0.36576868003E+01  0.82584339063E+01  0.51100000000E-03 0.  1.
        -12    1    3    3    0    0 -0.14846484305E+02 -0.44642992032E+01 -0.85134354331E+01  0.17686906074E+02  0.00000000000E+00 0.  1.
</event>
<event>
 7    1  0.1335379E-011  0.5930194E+02  0.7816164E-02  0.1266605E+00
        -11   -1    0    0    0    0  0.00000000000E+00  0.00000000000E+00  0.45593999997E+02  0.45594000000E+02  0.51100000000E-03 0.  1.
         11   -1    0    0    0    0 -0.00000000000E+00 -0.00000000000E+00 -0.45593999997E+02  0.45594000000E+02  0.51100000000E-03 0. -1.
    9900012    2    1    2    0    0  0.29281280002E+02  0.18469711968E+01 -0.12486642890E+02  0.59301938597E+02  0.49999990096E+02 0.  0.
        -12    1    1    2    0    0 -0.29281280002E+02 -0.18469711968E+01  0.12486642890E+02  0.31886061403E+02  0.00000000000E+00 0.  1.
         11    1    3    3    0    0 -0.13048787885E+01  0.36618364453E+00 -0.10250076965E+02  0.10339288039E+02  0.51100000000E-03 0. -1.
        -11    1    3    3    0    0  0.26375152588E+01 -0.10546495767E+02 -0.12764052766E+02  0.16766219102E+02  0.51100000000E-03 0.  1.
        -12    1    3    3    0    0  0.27948643531E+02  0.12027283320E+02  0.10527486841E+02  0.32196431455E+02  0.00000000000E+00 0.  1.
</event>
<event>
 7    1  0.1335379E-011  0.5930191E+02  0.7816164E-02  0.1266605E+00
        -11   -1    0    0    0    0  0.00000000000E+00  0.00000000000E+00  0.45593999997E+02  0.45594000000E+02  0.51100000000E-03 0. -1.
         11   -1    0    0    0    0 -0.00000000000E+00 -0.00000000000E+00 -0.45593999997E+02  0.45594000000E+02  0.51100000000E-03 0.  1.
    9900012    2    1    2    0    0  0.26980199581E+02 -0.15769002908E+02 -0.63348102074E+01  0.59301914594E+02  0.49999946320E+02 0.  0.
        -12    1    1    2    0    0 -0.26980199581E+02  0.15769002908E+02  0.63348102074E+01  0.31886085406E+02  0.00000000000E+00 0.  1.
         11    1    3    3    0    0  0.20526307235E+01 -0.11885026225E+01  0.78488429904E+01  0.81994004610E+01  0.51100000000E-03 0. -1.
        -11    1    3    3    0    0 -0.13813511540E+01 -0.12354876772E+02  0.94903510282E+01  0.15640264510E+02  0.51100000000E-03 0.  1.
        -12    1    3    3    0    0  0.26308920012E+02 -0.22256235139E+01 -0.23674004226E+02  0.35462249623E+02  0.00000000000E+00 0.  1.
</event>
<event>
 7    1  0.1335379E-011  0.5930196E+02  0.7816164E-02  0.1266605E+00
        -11   -1    0    0    0    0  0.00000000000E+00  0.00000000000E+00  0.45593999997E+02  0.45594000000E+02  0.51100000000E-03 0. -1.
         11   -1    0    0    0    0 -0.00000000000E+00 -0.00000000000E+00 -0.45593999997E+02  0.45594000000E+02  0.51100000000E-03 0.  1.
    9900012    2    1    2    0    0 -0.49239102745E+01 -0.31342034202E+02  0.31861614387E+01  0.59301958774E+02  0.50000026894E+02 0.  0.
        -12    1    1    2    0    0  0.49239102745E+01  0.31342034202E+02 -0.31861614387E+01  0.31886041226E+02  0.00000000000E+00 0.  1.
         11    1    3    3    0    0  0.10200081645E+02 -0.18740802020E+01 -0.13256547613E+01  0.10455199806E+02  0.51100000000E-03 0.  1.
        -11    1    3    3    0    0  0.77491725908E+00  0.20363868472E+01  0.12480642409E+02  0.12669404222E+02  0.51100000000E-03 0. -1.
        -12    1    3    3    0    0 -0.15898909179E+02 -0.31504340847E+02 -0.79688262089E+01  0.36177354746E+02  0.00000000000E+00 0.  1.
</event>
<event>
 7    1  0.1335379E-011  0.5930194E+02  0.7816164E-02  0.1266605E+00
        -11   -1    0    0    0    0  0.00000000000E+00  0.00000000000E+00  0.45593999997E+02  0.45594000000E+02  0.51100000000E-03 0.  1.
         11   -1    0    0    0    0 -0.00000000000E+00 -0.00000000000E+00 -0.45593999997E+02  0.45594000000E+02  0.51100000000E-03 0. -1.
    9900012    2    1    2    0    0 -0.21253877823E+02  0.15285973847E+02 -0.18202539092E+02  0.59301941160E+02  0.49999994770E+02 0.  0.
        -12    1    1    2    0    0  0.21253877823E+02 -0.15285973847E+02  0.18202539092E+02  0.31886058840E+02  0.00000000000E+00 0.  1.
         11    1    3    3    0    0 -0.86552318429E+01  0.13922947265E+02 -0.12592446895E+02  0.20671991144E+02  0.51100000000E-03 0. -1.
        -11    1    3    3    0    0 -0.22427128741E+02  0.74172234681E+01  0.35584436731E+01  0.23888361793E+02  0.51100000000E-03 0.  1.
         12    1    3    3    0    0  0.98284827607E+01 -0.60541968861E+01 -0.91685358705E+01  0.14741588223E+02  0.00000000000E+00 0. -1.
</event>
<event>
 7    1  0.1335379E-011  0.5930195E+02  0.7816164E-02  0.1266605E+00
        -11   -1    0    0    0    0  0.00000000000E+00  0.00000000000E+00  0.45593999997E+02  0.45594000000E+02  0.51100000000E-03 0. -1.
         11   -1    0    0    0    0 -0.00000000000E+00 -0.00000000000E+00 -0.45593999997E+02  0.45594000000E+02  0.51100000000E-03 0.  1.
    9900012    2    1    2    0    0  0.21216172569E+02 -0.12033582516E+02  0.20537455693E+02  0.59301950182E+02  0.50000011224E+02 0.  0.
        -12    1    1    2    0    0 -0.21216172569E+02  0.12033582516E+02 -0.20537455693E+02  0.31886049818E+02  0.00000000000E+00 0.  1.
         11    1    3    3    0    0 -0.65356930761E-02 -0.11260972240E+02  0.62080276364E+01  0.12858815883E+02  0.51100000000E-03 0. -1.
        -11    1    3    3    0    0  0.11493417630E+02 -0.18907488795E+02  0.13345357178E+02  0.25839704716E+02  0.51100000000E-03 0.  1.
         12    1    3    3    0    0  0.97292906320E+01  0.18134878519E+02  0.98407087855E+00  0.20603429583E+02  0.00000000000E+00 0. -1.
</event>
<event>
 7    1  0.1335379E-011  0.5930194E+02  0.7816164E-02  0.1266605E+00
        -11   -1    0    0    0    0  0.00000000000E+00  0.00000000000E+00  0.45593999997E+02  0.45594000000E+02  0.51100000000E-03 0. -1.
         11   -1    0    0    0    0 -0.00000000000E+00 -0.00000000000E+00 -0.45593999997E+02  0.45594000000E+02  0.51100000000E-03 0.  1.
    9900012    2    1    2    0    0 -0.48054279840E+01 -0.19988899113E+02  0.24373602576E+02  0.59301941473E+02  0.49999995341E+02 0.  0.
        -12    1    1    2    0    0  0.48054279840E+01  0.19988899113E+02 -0.24373602576E+02  0.31886058527E+02  0.00000000000E+00 0.  1.
         11    1    3    3    0    0  0.18607991582E+02 -0.14462238500E+02  0.19434250695E+02  0.30546747675E+02  0.51100000000E-03 0. -1.
        -11    1    3    3    0    0 -0.13719828172E+02 -0.78072208913E+01  0.88023223030E+01  0.18073938732E+02  0.51100000000E-03 0.  1.
        -12    1    3    3    0    0 -0.96935913943E+01  0.22805602787E+01 -0.38629704219E+01  0.10681255066E+02  0.00000000000E+00 0.  1.
</event>
<event>
 7    1  0.1335379E-011  0.5930198E+02  0.7816164E-02  0.1266605E+00
        -11   -1    0    0    0    0  0.00000000000E+00  0.00000000000E+00  0.45593999997E+02  0.45594000000E+02  0.51100000000E-03 0.  1.
         11   -1    0    0    0    0 -0.00000000000E+00 -0.00000000000E+00 -0.45593999997E+02  0.45594000000E+02  0.51100000000E-03 0. -1.
    9900012    2    1    2    0    0 -0.20761768103E+02  0.20377656505E+02 -0.13054438236E+02  0.59301980226E+02  0.50000066016E+02 0.  0.
        -12    1    1    2    0    0  0.20761768103E+02 -0.20377656505E+02  0.13054438236E+02  0.31886019774E+02  0.00000000000E+00 0.  1.
         11    1    3    3    0    0 -0.21195178224E+02  0.14921614830E+02 -0.47896355561E+01  0.26359642981E+02  0.51100000000E-03 0. -1.
        -11    1    3    3    0    0  0.73853711587E+01  0.16445640997E+02 -0.10203932344E+01  0.18056688998E+02  0.51100000000E-03 0.  1.
         12    1    3    3    0    0 -0.69519610376E+01 -0.10989599322E+02 -0.72444094456E+01  0.14885648247E+02  0.00000000000E+00 0. -1.
</event>
<event>
 7    1  0.1335379E-011  0.5930199E+02  0.7816164E-02  0.1266605E+00
        -11   -1    0    0    0    0  0.00000000000E+00  0.00000000000E+00  0.45593999997E+02  0.45594000000E+02  0.51100000000E-03 0.  1.
         11   -1    0    0    0    0 -0.00000000000E+00 -0.00000000000E+00 -0.45593999997E+02  0.45594000000E+02  0.51100000000E-03 0. -1.
    9900012    2    1    2    0    0 -0.31766317518E+02  0.11396548175E+01  0.25139653040E+01  0.59301987968E+02  0.50000080136E+02 0.  0.
        -12    1    1    2    0    0  0.31766317518E+02 -0.11396548175E+01 -0.25139653040E+01  0.31886012032E+02  0.00000000000E+00 0.  1.
         11    1    3    3    0    0 -0.78561079520E+00 -0.29764867512E+01 -0.39009746932E+01  0.49693320999E+01  0.51100000000E-03 0. -1.
        -11    1    3    3    0    0  0.51337604946E+01  0.99777231478E+01  0.12983680804E+02  0.17160606735E+02  0.51100000000E-03 0.  1.
         12    1    3    3    0    0 -0.36114467217E+02 -0.58615815791E+01 -0.65687408063E+01  0.37172049134E+02  0.00000000000E+00 0. -1.
</event>
<event>
 7    1  0.1335379E-011  0.5930196E+02  0.7816164E-02  0.1266605E+00
        -11   -1    0    0    0    0  0.00000000000E+00  0.00000000000E+00  0.45593999997E+02  0.45594000000E+02  0.51100000000E-03 0.  1.
         11   -1    0    0    0    0 -0.00000000000E+00 -0.00000000000E+00 -0.45593999997E+02  0.45594000000E+02  0.51100000000E-03 0. -1.
    9900012    2    1    2    0    0 -0.28253168154E+02 -0.93455855326E+01 -0.11451545495E+02  0.59301962712E+02  0.50000034076E+02 0.  0.
        -12    1    1    2    0    0  0.28253168154E+02  0.93455855326E+01  0.11451545495E+02  0.31886037288E+02  0.00000000000E+00 0.  1.
         11    1    3    3    0    0 -0.79576429132E+01  0.19108904065E+01 -0.52089824080E+01  0.97009835000E+01  0.51100000000E-03 0. -1.
        -11    1    3    3    0    0 -0.31226429841E+02 -0.10953366273E+02 -0.14268229472E+02  0.36036766306E+02  0.51100000000E-03 0.  1.
        -12    1    3    3    0    0  0.10930904599E+02 -0.30310966583E+00  0.80256663849E+01  0.13564212906E+02  0.00000000000E+00 0.  1.
</event>
<event>
 7    1  0.1335379E-011  0.5930195E+02  0.7816164E-02  0.1266605E+00
        -11   -1    0    0    0    0  0.00000000000E+00  0.00000000000E+00  0.45593999997E+02  0.45594000000E+02  0.51100000000E-03 0. -1.
         11   -1    0    0    0    0 -0.00000000000E+00 -0.00000000000E+00 -0.45593999997E+02  0.45594000000E+02  0.51100000000E-03 0.  1.
    9900012    2    1    2    0    0 -0.31001341447E+02  0.67141655958E+01 -0.32491431923E+01  0.59301950971E+02  0.50000012663E+02 0.  0.
        -12    1    1    2    0    0  0.31001341447E+02 -0.67141655958E+01  0.32491431923E+01  0.31886049029E+02  0.00000000000E+00 0.  1.
         11    1    3    3    0    0 -0.10672928357E+02 -0.94338809538E+01  0.12861489824E+02  0.19191858438E+02  0.51100000000E-03 0. -1.
        -11    1    3    3    0    0  0.53810195858E+01  0.35496278195E+01  0.13352632537E+01  0.65831723096E+01  0.51100000000E-03 0.  1.
         12    1    3    3    0    0 -0.25709432676E+02  0.12598418730E+02 -0.17445896270E+02  0.33526920223E+02  0.00000000000E+00 0. -1.
</event>
<event>
 7    1  0.1335379E-011  0.5930196E+02  0.7816164E-02  0.1266605E+00
        -11   -1    0    0    0    0  0.00000000000E+00  0.00000000000E+00  0.45593999997E+02  0.45594000000E+02  0.51100000000E-03 0.  1.
         11   -1    0    0    0    0 -0.00000000000E+00 -0.00000000000E+00 -0.45593999997E+02  0.45594000000E+02  0.51100000000E-03 0. -1.
    9900012    2    1    2    0    0  0.24883427661E+02 -0.19203341072E+02  0.53634344657E+01  0.59301957446E+02  0.50000024472E+02 0.  0.
        -12    1    1    2    0    0 -0.24883427661E+02  0.19203341072E+02 -0.53634344657E+01  0.31886042554E+02  0.00000000000E+00 0.  1.
         11    1    3    3    0    0  0.25408824111E+02  0.29549017710E+01 -0.11506618385E+02  0.28048922512E+02  0.51100000000E-03 0. -1.
        -11    1    3    3    0    0 -0.48242822589E+01 -0.81007038523E+01  0.78264781618E+00  0.94608477465E+01  0.51100000000E-03 0.  1.
        -12    1    3    3    0    0  0.42988858088E+01 -0.14057538991E+02  0.16087405034E+02  0.21792187188E+02  0.00000000000E+00 0.  1.
</event>
<event>
 7    1  0.1335379E-011  0.5930184E+02  0.7816164E-02  0.1266605E+00
        -11   -1    0    0    0    0  0.00000000000E+00  0.00000000000E+00  0.45593999997E+02  0.45594000000E+02  0.51100000000E-03 0.  1.
         11   -1    0    0    0    0 -0.00000000000E+00 -0.00000000000E+00 -0.45593999997E+02  0.45594000000E+02  0.51100000000E-03 0. -1.
    9900012    2    1    2    0    0 -0.48621887082E+01 -0.18417882130E+02 -0.25570839537E+02  0.59301841627E+02  0.49999813245E+02 0.  0.
        -12    1    1    2    0    0  0.48621887082E+01  0.18417882130E+02  0.25570839537E+02  0.31886158373E+02  0.00000000000E+00 0.  1.
         11    1    3    3    0    0  0.90818731458E+00 -0.21059724219E+02 -0.64693091956E+01  0.22049688209E+02  0.51100000000E-03 0. -1.
        -11    1    3    3    0    0  0.47732515384E+01 -0.11195169073E+02 -0.11022834033E+01  0.12220096963E+02  0.51100000000E-03 0.  1.
         12    1    3    3    0    0 -0.10543627561E+02  0.13837011162E+02 -0.17999246938E+02  0.25032056455E+02  0.00000000000E+00 0. -1.
</event>
<event>
 7    1  0.1335379E-011  0.5930195E+02  0.7816164E-02  0.1266605E+00
        -11   -1    0    0    0    0  0.00000000000E+00  0.00000000000E+00  0.45593999997E+02  0.45594000000E+02  0.51100000000E-03 0.  1.
         11   -1    0    0    0    0 -0.00000000000E+00 -0.00000000000E+00 -0.45593999997E+02  0.45594000000E+02  0.51100000000E-03 0. -1.
    9900012    2    1    2    0    0  0.17255374235E+02 -0.26318833443E+02  0.51275275611E+01  0.59301945482E+02  0.50000002653E+02 0.  0.
        -12    1    1    2    0    0 -0.17255374235E+02  0.26318833443E+02 -0.51275275611E+01  0.31886054518E+02  0.00000000000E+00 0.  1.
         11    1    3    3    0    0 -0.54596786233E+01 -0.31552241636E+01 -0.88894229990E+01  0.10898870203E+02  0.51100000000E-03 0. -1.
        -11    1    3    3    0    0 -0.24227650104E+01  0.44131186471E+01 -0.44947301083E+01  0.67489262477E+01  0.51100000000E-03 0.  1.
         12    1    3    3    0    0  0.25137817869E+02 -0.27576727927E+02  0.18511680668E+02  0.41654149031E+02  0.00000000000E+00 0. -1.
</event>
<event>
 7    1  0.1335379E-011  0.5930194E+02  0.7816164E-02  0.1266605E+00
        -11   -1    0    0    0    0  0.00000000000E+00  0.00000000000E+00  0.45593999997E+02  0.45594000000E+02  0.51100000000E-03 0. -1.
         11   -1    0    0    0    0 -0.00000000000E+00 -0.00000000000E+00 -0.45593999997E+02  0.45594000000E+02  0.51100000000E-03 0.  1.
    9900012    2    1    2    0    0 -0.92557962197E+00 -0.29478476951E+02  0.12119561417E+02  0.59301936118E+02  0.49999985574E+02 0.  0.
        -12    1    1    2    0    0  0.92557962197E+00  0.29478476951E+02 -0.12119561417E+02  0.31886063882E+02  0.00000000000E+00 0.  1.
         11    1    3    3    0    0  0.39425843397E+00 -0.12751432674E+02 -0.23096476715E+01  0.12964912170E+02  0.51100000000E-03 0. -1.
        -11    1    3    3    0    0 -0.52982052149E+01 -0.57258395754E+01 -0.13759588373E+02  0.15817158082E+02  0.51100000000E-03 0.  1.
         12    1    3    3    0    0  0.39783671590E+01 -0.11001204702E+02  0.28188797461E+02  0.30519865866E+02  0.00000000000E+00 0. -1.
</event>
<event>
 7    1  0.1335379E-011  0.5930194E+02  0.7816164E-02  0.1266605E+00
        -11   -1    0    0    0    0  0.00000000000E+00  0.00000000000E+00  0.45593999997E+02  0.45594000000E+02  0.51100000000E-03 0.  1.
         11   -1    0    0    0    0 -0.00000000000E+00 -0.00000000000E+00 -0.45593999997E+02  0.45594000000E+02  0.51100000000E-03 0. -1.
    9900012    2    1    2    0    0  0.10760956844E+02 -0.29980307834E+02  0.14503408356E+01  0.59301944450E+02  0.50000000770E+02 0.  0.
        -12    1    1    2    0    0 -0.10760956844E+02  0.29980307834E+02 -0.14503408356E+01  0.31886055550E+02  0.00000000000E+00 0.  1.
         11    1    3    3    0    0  0.97535191714E+01 -0.10992002646E+02 -0.46228720424E-01  0.14695488959E+02  0.51100000000E-03 0. -1.
        -11    1    3    3    0    0  0.18639527667E+02 -0.10009217449E+01 -0.33274647393E+01  0.18960639700E+02  0.51100000000E-03 0.  1.
         12    1    3    3    0    0 -0.17632089994E+02 -0.17987383443E+02  0.48240342953E+01  0.25645815791E+02  0.00000000000E+00 0. -1.
</event>
<event>
 7    1  0.1335379E-011  0.5930196E+02  0.7816164E-02  0.1266605E+00
        -11   -1    0    0    0    0  0.00000000000E+00  0.00000000000E+00  0.45593999997E+02  0.45594000000E+02  0.51100000000E-03 0.  1.
         11   -1    0    0    0    0 -0.00000000000E+00 -0.00000000000E+00 -0.45593999997E+02  0.45594000000E+02  0.51100000000E-03 0. -1.
    9900012    2    1    2    0    0  0.30508327467E+02 -0.24558807989E+00  0.92683021053E+01  0.59301956309E+02  0.50000022399E+02 0.  0.
        -12    1    1    2    0    0 -0.30508327467E+02  0.24558807989E+00 -0.92683021053E+01  0.31886043691E+02  0.00000000000E+00 0.  1.
         11    1    3    3    0    0 -0.41654784068E+01 -0.70829457750E+01  0.16643261322E+02  0.18561182045E+02  0.51100000000E-03 0. -1.
        -11    1    3    3    0    0  0.95148168362E+01  0.51163707503E+01  0.58288998309E+01  0.12275384417E+02  0.51100000000E-03 0.  1.
         12    1    3    3    0    0  0.25158989037E+02  0.17209869448E+01 -0.13203859047E+02  0.28465389848E+02  0.00000000000E+00 0. -1.
</event>
<event>
 7    1  0.1335379E-011  0.5930195E+02  0.7816164E-02  0.1266605E+00
        -11   -1    0    0    0    0  0.00000000000E+00  0.00000000000E+00  0.45593999997E+02  0.45594000000E+02  0.51100000000E-03 0.  1.
         11   -1    0    0    0    0 -0.00000000000E+00 -0.00000000000E+00 -0.45593999997E+02  0.45594000000E+02  0.51100000000E-03 0. -1.
    9900012    2    1    2    0    0  0.25633699328E+02 -0.70956940619E+01 -0.17586493822E+02  0.59301950066E+02  0.50000011012E+02 0.  0.
        -12    1    1    2    0    0 -0.25633699328E+02  0.70956940619E+01  0.17586493822E+02  0.31886049934E+02  0.00000000000E+00 0.  1.
         11    1    3    3    0    0 -0.60787718768E+01  0.10327051417E+02  0.24775390448E+00  0.11985860034E+02  0.51100000000E-03 0.  1.
        -11    1    3    3    0    0 -0.29457372626E+01 -0.67347509927E+01 -0.13361700365E+01  0.74712508713E+01  0.51100000000E-03 0. -1.
         12    1    3    3    0    0  0.34658208467E+02 -0.10687994486E+02 -0.16498077690E+02  0.39844839161E+02  0.00000000000E+00 0. -1.
</event>
<event>
 7    1  0.1335379E-011  0.5930195E+02  0.7816164E-02  0.1266605E+00
        -11   -1    0    0    0    0  0.00000000000E+00  0.00000000000E+00  0.45593999997E+02  0.45594000000E+02  0.51100000000E-03 0.  1.
         11   -1    0    0    0    0 -0.00000000000E+00 -0.00000000000E+00 -0.45593999997E+02  0.45594000000E+02  0.51100000000E-03 0. -1.
    9900012    2    1    2    0    0  0.71127432525E+01 -0.23085336484E+02 -0.20813372739E+02  0.59301947219E+02  0.50000005821E+02 0.  0.
        -12    1    1    2    0    0 -0.71127432525E+01  0.23085336484E+02  0.20813372739E+02  0.31886052781E+02  0.00000000000E+00 0.  1.
         11    1    3    3    0    0  0.43188090515E+01 -0.19365816611E+02 -0.10091319988E+02  0.22260316799E+02  0.51100000000E-03 0. -1.
        -11    1    3    3    0    0  0.18469542100E+02 -0.22066147052E+01 -0.12028073345E+01  0.18639739258E+02  0.51100000000E-03 0.  1.
         12    1    3    3    0    0 -0.15675607899E+02 -0.15129051675E+01 -0.95192454169E+01  0.18401891163E+02  0.00000000000E+00 0. -1.
</event>
<event>
 7    1  0.1335379E-011  0.5930211E+02  0.7816164E-02  0.1266604E+00
        -11   -1    0    0    0    0  0.00000000000E+00  0.00000000000E+00  0.45593999997E+02  0.45594000000E+02  0.51100000000E-03 0.  1.
         11   -1    0    0    0    0 -0.00000000000E+00 -0.00000000000E+00 -0.45593999997E+02  0.45594000000E+02  0.51100000000E-03 0. -1.
    9900012    2    1    2    0    0 -0.16066672176E+02 -0.26360811793E+02 -0.79799374843E+01  0.59302113539E+02  0.50000309146E+02 0.  0.
        -12    1    1    2    0    0  0.16066672176E+02  0.26360811793E+02  0.79799374843E+01  0.31885886461E+02  0.00000000000E+00 0.  1.
         11    1    3    3    0    0 -0.68744468520E+01  0.11352087814E+01 -0.22775927541E+01  0.73303579390E+01  0.51100000000E-03 0. -1.
        -11    1    3    3    0    0  0.11764285949E+02  0.41661075099E+01 -0.63376513610E+01  0.13997167596E+02  0.51100000000E-03 0.  1.
         12    1    3    3    0    0 -0.20956511273E+02 -0.31662128084E+02  0.63530663078E+00  0.37974588004E+02  0.00000000000E+00 0. -1.
</event>
<event>
 7    1  0.1335379E-011  0.5930202E+02  0.7816164E-02  0.1266604E+00
        -11   -1    0    0    0    0  0.00000000000E+00  0.00000000000E+00  0.45593999997E+02  0.45594000000E+02  0.51100000000E-03 0. -1.
         11   -1    0    0    0    0 -0.00000000000E+00 -0.00000000000E+00 -0.45593999997E+02  0.45594000000E+02  0.51100000000E-03 0.  1.
    9900012    2    1    2    0    0 -0.12839424517E+02  0.63586808006E+01  0.28485643723E+02  0.59302022803E+02  0.50000143668E+02 0.  0.
        -12    1    1    2    0    0  0.12839424517E+02 -0.63586808006E+01 -0.28485643723E+02  0.31885977197E+02  0.00000000000E+00 0.  1.
         11    1    3    3    0    0 -0.40566423970E+01  0.30968195925E+01 -0.18810629230E+01  0.54392129124E+01  0.51100000000E-03 0. -1.
        -11    1    3    3    0    0  0.57553668061E+01 -0.92267136966E+01 -0.62434181092E+01  0.12539408386E+02  0.51100000000E-03 0.  1.
         12    1    3    3    0    0 -0.14538148926E+02  0.12488574905E+02  0.36610124756E+02  0.41323401505E+02  0.00000000000E+00 0. -1.
</event>
<event>
 7    1  0.1335379E-011  0.5930192E+02  0.7816164E-02  0.1266605E+00
        -11   -1    0    0    0    0  0.00000000000E+00  0.00000000000E+00  0.45593999997E+02  0.45594000000E+02  0.51100000000E-03 0. -1.
         11   -1    0    0    0    0 -0.00000000000E+00 -0.00000000000E+00 -0.45593999997E+02  0.45594000000E+02  0.51100000000E-03 0.  1.
    9900012    2    1    2    0    0 -0.24235993689E+02 -0.20710143449E+02 -0.65471324624E+00  0.59301920260E+02  0.49999956653E+02 0.  0.
        -12    1    1    2    0    0  0.24235993689E+02  0.20710143449E+02  0.65471324624E+00  0.31886079740E+02  0.00000000000E+00 0.  1.
         11    1    3    3    0    0 -0.17265543595E+01  0.53142695911E+01 -0.43484507855E+01  0.70803584470E+01  0.51100000000E-03 0.  1.
        -11    1    3    3    0    0  0.27027107081E+01  0.83523215076E+01  0.38606204370E+01  0.95901152317E+01  0.51100000000E-03 0. -1.
         12    1    3    3    0    0 -0.25212150037E+02 -0.34376734548E+02 -0.16688289780E+00  0.42631446581E+02  0.00000000000E+00 0. -1.
</event>
<event>
 7    1  0.1335379E-011  0.5930166E+02  0.7816164E-02  0.1266606E+00
        -11   -1    0    0    0    0  0.00000000000E+00  0.00000000000E+00  0.45593999997E+02  0.45594000000E+02  0.51100000000E-03 0.  1.
         11   -1    0    0    0    0 -0.00000000000E+00 -0.00000000000E+00 -0.45593999997E+02  0.45594000000E+02  0.51100000000E-03 0. -1.
    9900012    2    1    2    0    0  0.66629589196E+01 -0.31177372119E+02  0.56109575586E+00  0.59301664647E+02  0.49999490474E+02 0.  0.
        -12    1    1    2    0    0 -0.66629589196E+01  0.31177372119E+02 -0.56109575586E+00  0.31886335353E+02  0.00000000000E+00 0.  1.
         11    1    3    3    0    0  0.20036226744E+02 -0.12807839577E+02  0.80209543675E+01  0.25096351249E+02  0.51100000000E-03 0. -1.
        -11    1    3    3    0    0  0.24363979335E+01 -0.17356411364E+02 -0.34365805860E+01  0.17860322974E+02  0.51100000000E-03 0.  1.
        -12    1    3    3    0    0 -0.15809665758E+02 -0.10131211774E+01 -0.40232780256E+01  0.16344990424E+02  0.00000000000E+00 0.  1.
</event>
<event>
 7    1  0.1335379E-011  0.5930194E+02  0.7816164E-02  0.1266605E+00
        -11   -1    0    0    0    0  0.00000000000E+00  0.00000000000E+00  0.45593999997E+02  0.45594000000E+02  0.51100000000E-03 0.  1.
         11   -1    0    0    0    0 -0.00000000000E+00 -0.00000000000E+00 -0.45593999997E+02  0.45594000000E+02  0.51100000000E-03 0. -1.
    9900012    2    1    2    0    0 -0.13840661173E+02  0.25886160796E+02 -0.12452463187E+02  0.59301936244E+02  0.49999985804E+02 0.  0.
        -12    1    1    2    0    0  0.13840661173E+02 -0.25886160796E+02  0.12452463187E+02  0.31886063756E+02  0.00000000000E+00 0.  1.
         11    1    3    3    0    0 -0.11720691829E+02 -0.31960384746E+01  0.38815364101E+01  0.12753650617E+02  0.51100000000E-03 0. -1.
        -11    1    3    3    0    0 -0.12659831854E+02  0.52215588799E+01  0.30742740030E+01  0.14035212169E+02  0.51100000000E-03 0.  1.
         12    1    3    3    0    0  0.10539862511E+02  0.23860640390E+02 -0.19408273600E+02  0.32513073459E+02  0.00000000000E+00 0. -1.
</event>
<event>
 7    1  0.1335379E-011  0.5930194E+02  0.7816164E-02  0.1266605E+00
        -11   -1    0    0    0    0  0.00000000000E+00  0.00000000000E+00  0.45593999997E+02  0.45594000000E+02  0.51100000000E-03 0.  1.
         11   -1    0    0    0    0 -0.00000000000E+00 -0.00000000000E+00 -0.45593999997E+02  0.45594000000E+02  0.51100000000E-03 0. -1.
    9900012    2    1    2    0    0 -0.13518381756E+02 -0.26517358339E+02  0.11436958827E+02  0.59301937750E+02  0.49999988552E+02 0.  0.
        -12    1    1    2    0    0  0.13518381756E+02  0.26517358339E+02 -0.11436958827E+02  0.31886062250E+02  0.00000000000E+00 0.  1.
         11    1    3    3    0    0 -0.14104150947E+02 -0.27480604429E+02  0.53876438778E+01  0.31355021935E+02  0.51100000000E-03 0. -1.
        -11    1    3    3    0    0 -0.49235808570E+01 -0.12093454749E+02  0.20106769385E+01  0.13211211838E+02  0.51100000000E-03 0.  1.
        -12    1    3    3    0    0  0.55093500477E+01  0.13056700839E+02  0.40386380103E+01  0.14735703978E+02  0.00000000000E+00 0.  1.
</event>
<event>
 7    1  0.1335379E-011  0.5930197E+02  0.7816164E-02  0.1266605E+00
        -11   -1    0    0    0    0  0.00000000000E+00  0.00000000000E+00  0.45593999997E+02  0.45594000000E+02  0.51100000000E-03 0. -1.
         11   -1    0    0    0    0 -0.00000000000E+00 -0.00000000000E+00 -0.45593999997E+02  0.45594000000E+02  0.51100000000E-03 0.  1.
    9900012    2    1    2    0    0 -0.53952317580E+01 -0.22065726104E+02  0.22376635408E+02  0.59301974747E+02  0.50000056025E+02 0.  0.
        -12    1    1    2    0    0  0.53952317580E+01  0.22065726104E+02 -0.22376635408E+02  0.31886025253E+02  0.00000000000E+00 0.  1.
         11    1    3    3    0    0 -0.16993387258E+02 -0.16802947338E+02  0.11796121903E+02  0.26650754998E+02  0.51100000000E-03 0. -1.
        -11    1    3    3    0    0 -0.78316924863E+01  0.29817021118E+01  0.76413615982E+01  0.11340915396E+02  0.51100000000E-03 0.  1.
         12    1    3    3    0    0  0.19429847986E+02 -0.82444808777E+01  0.29391519072E+01  0.21310304354E+02  0.00000000000E+00 0. -1.
</event>
<event>
 7    1  0.1335379E-011  0.5930196E+02  0.7816164E-02  0.1266605E+00
        -11   -1    0    0    0    0  0.00000000000E+00  0.00000000000E+00  0.45593999997E+02  0.45594000000E+02  0.51100000000E-03 0. -1.
         11   -1    0    0    0    0 -0.00000000000E+00 -0.00000000000E+00 -0.45593999997E+02  0.45594000000E+02  0.51100000000E-03 0.  1.
    9900012    2    1    2    0    0 -0.28510010034E+02 -0.12066408356E+02 -0.76354887231E+01  0.59301959625E+02  0.50000028446E+02 0.  0.
        -12    1    1    2    0    0  0.28510010034E+02  0.12066408356E+02  0.76354887231E+01  0.31886040375E+02  0.00000000000E+00 0.  1.
         11    1    3    3    0    0  0.19711008402E+01 -0.18065164954E+02  0.10157634479E+02  0.20818572521E+02  0.51100000000E-03 0. -1.
        -11    1    3    3    0    0 -0.65421311394E+01 -0.21235822707E+01  0.10446894507E+01  0.69570437555E+01  0.51100000000E-03 0.  1.
        -12    1    3    3    0    0 -0.23938979735E+02  0.81223388686E+01 -0.18837812652E+02  0.31526343349E+02  0.00000000000E+00 0.  1.
</event>
<event>
 7    1  0.1335379E-011  0.5930193E+02  0.7816164E-02  0.1266605E+00
        -11   -1    0    0    0    0  0.00000000000E+00  0.00000000000E+00  0.45593999997E+02  0.45594000000E+02  0.51100000000E-03 0.  1.
         11   -1    0    0    0    0 -0.00000000000E+00 -0.00000000000E+00 -0.45593999997E+02  0.45594000000E+02  0.51100000000E-03 0. -1.
    9900012    2    1    2    0    0 -0.20151526081E+02  0.21614760761E+02 -0.11976623050E+02  0.59301931164E+02  0.49999976539E+02 0.  0.
        -12    1    1    2    0    0  0.20151526081E+02 -0.21614760761E+02  0.11976623050E+02  0.31886068836E+02  0.00000000000E+00 0.  1.
         11    1    3    3    0    0 -0.77119689633E+01 -0.13558746517E+01 -0.21769340646E+02  0.23134758563E+02  0.51100000000E-03 0. -1.
        -11    1    3    3    0    0 -0.76617303432E+01 -0.31338909305E+01  0.23727077794E+01  0.86112209752E+01  0.51100000000E-03 0.  1.
         12    1    3    3    0    0 -0.47778267741E+01  0.26104526344E+02  0.74200098167E+01  0.27555951626E+02  0.00000000000E+00 0. -1.
</event>
<event>
 7    1  0.1335379E-011  0.5930199E+02  0.7816164E-02  0.1266605E+00
        -11   -1    0    0    0    0  0.00000000000E+00  0.00000000000E+00  0.45593999997E+02  0.45594000000E+02  0.51100000000E-03 0.  1.
         11   -1    0    0    0    0 -0.00000000000E+00 -0.00000000000E+00 -0.45593999997E+02  0.45594000000E+02  0.51100000000E-03 0. -1.
    9900012    2    1    2    0    0  0.89163105825E+01  0.18846817830E+02 -0.24124982712E+02  0.59301985393E+02  0.50000075439E+02 0.  0.
        -12    1    1    2    0    0 -0.89163105825E+01 -0.18846817830E+02  0.24124982712E+02  0.31886014607E+02  0.00000000000E+00 0.  1.
         11    1    3    3    0    0  0.24059002192E+02  0.67838322835E+00 -0.10790314932E+02  0.26376631455E+02  0.51100000000E-03 0. -1.
        -11    1    3    3    0    0  0.40206884623E+01  0.97582591176E+00 -0.52891863326E+00  0.41710822460E+01  0.51100000000E-03 0.  1.
         12    1    3    3    0    0 -0.19163380072E+02  0.17192608690E+02 -0.12805749146E+02  0.28754271692E+02  0.00000000000E+00 0. -1.
</event>
<event>
 7    1  0.1335379E-011  0.5930196E+02  0.7816164E-02  0.1266605E+00
        -11   -1    0    0    0    0  0.00000000000E+00  0.00000000000E+00  0.45593999997E+02  0.45594000000E+02  0.51100000000E-03 0. -1.
         11   -1    0    0    0    0 -0.00000000000E+00 -0.00000000000E+00 -0.45593999997E+02  0.45594000000E+02  0.51100000000E-03 0.  1.
    9900012    2    1    2    0    0  0.16987633211E+02  0.19955215456E+02  0.18163961828E+02  0.59301955791E+02  0.50000021454E+02 0.  0.
        -12    1    1    2    0    0 -0.16987633211E+02 -0.19955215456E+02 -0.18163961828E+02  0.31886044209E+02  0.00000000000E+00 0.  1.
         11    1    3    3    0    0  0.29463753629E+01  0.19546219849E+02 -0.61579106386E+01  0.20704002074E+02  0.51100000000E-03 0. -1.
        -11    1    3    3    0    0 -0.81275992873E-01  0.52195783693E+01 -0.40068618620E+01  0.65806949771E+01  0.51100000000E-03 0.  1.
        -12    1    3    3    0    0  0.14122533841E+02 -0.48105827627E+01  0.28328734328E+02  0.32017258740E+02  0.00000000000E+00 0.  1.
</event>
<event>
 7    1  0.1335379E-011  0.5930193E+02  0.7816164E-02  0.1266605E+00
        -11   -1    0    0    0    0  0.00000000000E+00  0.00000000000E+00  0.45593999997E+02  0.45594000000E+02  0.51100000000E-03 0.  1.
         11   -1    0    0    0    0 -0.00000000000E+00 -0.00000000000E+00 -0.45593999997E+02  0.45594000000E+02  0.51100000000E-03 0. -1.
    9900012    2    1    2    0    0  0.24573429811E+02 -0.94808514614E+00 -0.20297028664E+02  0.59301926383E+02  0.49999967821E+02 0.  0.
        -12    1    1    2    0    0 -0.24573429811E+02  0.94808514614E+00  0.20297028664E+02  0.31886073617E+02  0.00000000000E+00 0.  1.
         11    1    3    3    0    0  0.47068807779E+01  0.54518181872E+01  0.64464392108E+01  0.96661071257E+01  0.51100000000E-03 0.  1.
        -11    1    3    3    0    0 -0.28362755292E+01 -0.15312896271E+02 -0.35373096409E+01  0.15970028517E+02  0.51100000000E-03 0. -1.
         12    1    3    3    0    0  0.22702824562E+02  0.89129929374E+01 -0.23206158234E+02  0.33665790740E+02  0.00000000000E+00 0. -1.
</event>
<event>
 7    1  0.1335379E-011  0.5930194E+02  0.7816164E-02  0.1266605E+00
        -11   -1    0    0    0    0  0.00000000000E+00  0.00000000000E+00  0.45593999997E+02  0.45594000000E+02  0.51100000000E-03 0.  1.
         11   -1    0    0    0    0 -0.00000000000E+00 -0.00000000000E+00 -0.45593999997E+02  0.45594000000E+02  0.51100000000E-03 0. -1.
    9900012    2    1    2    0    0 -0.22813809789E+02 -0.10546678344E+02 -0.19621883525E+02  0.59301942636E+02  0.49999997461E+02 0.  0.
        -12    1    1    2    0    0  0.22813809789E+02  0.10546678344E+02  0.19621883525E+02  0.31886057364E+02  0.00000000000E+00 0.  1.
         11    1    3    3    0    0 -0.16331835582E+01  0.94749004219E+01  0.30139108901E+01  0.10075945894E+02  0.51100000000E-03 0.  1.
        -11    1    3    3    0    0  0.28466173940E+01 -0.11517913609E+02  0.38450868206E+01  0.12471978889E+02  0.51100000000E-03 0. -1.
         12    1    3    3    0    0 -0.24027243624E+02 -0.85036651574E+01 -0.26480881236E+02  0.36754017853E+02  0.00000000000E+00 0. -1.
</event>
<event>
 7    1  0.1335379E-011  0.5930195E+02  0.7816164E-02  0.1266605E+00
        -11   -1    0    0    0    0  0.00000000000E+00  0.00000000000E+00  0.45593999997E+02  0.45594000000E+02  0.51100000000E-03 0.  1.
         11   -1    0    0    0    0 -0.00000000000E+00 -0.00000000000E+00 -0.45593999997E+02  0.45594000000E+02  0.51100000000E-03 0. -1.
    9900012    2    1    2    0    0  0.22504756879E+02  0.12222991468E+02 -0.18996180070E+02  0.59301945684E+02  0.50000003020E+02 0.  0.
        -12    1    1    2    0    0 -0.22504756879E+02 -0.12222991468E+02  0.18996180070E+02  0.31886054316E+02  0.00000000000E+00 0.  1.
         11    1    3    3    0    0  0.21429447305E+01 -0.48820610574E+01 -0.11040116832E+02  0.12260135082E+02  0.51100000000E-03 0. -1.
        -11    1    3    3    0    0  0.12421018772E+02 -0.41622051105E+01 -0.17963345017E+02  0.22232575721E+02  0.51100000000E-03 0.  1.
        -12    1    3    3    0    0  0.79407933770E+01  0.21267257636E+02  0.10007281779E+02  0.24809234881E+02  0.00000000000E+00 0.  1.
</event>
<event>
 7    1  0.1335379E-011  0.5930201E+02  0.7816164E-02  0.1266605E+00
        -11   -1    0    0    0    0  0.00000000000E+00  0.00000000000E+00  0.45593999997E+02  0.45594000000E+02  0.51100000000E-03 0. -1.
         11   -1    0    0    0    0 -0.00000000000E+00 -0.00000000000E+00 -0.45593999997E+02  0.45594000000E+02  0.51100000000E-03 0.  1.
    9900012    2    1    2    0    0  0.83527145231E+01  0.30178126844E+02  0.60190474967E+01  0.59302013854E+02  0.50000127346E+02 0.  0.
        -12    1    1    2    0    0 -0.83527145231E+01 -0.30178126844E+02 -0.60190474967E+01  0.31885986146E+02  0.00000000000E+00 0.  1.
         11    1    3    3    0    0  0.86199741563E+01  0.61104110501E+01  0.18925320902E+02  0.21675074375E+02  0.51100000000E-03 0. -1.
        -11    1    3    3    0    0  0.64150361313E+01  0.15437469157E+00 -0.10986754715E+02  0.12723415403E+02  0.51100000000E-03 0.  1.
        -12    1    3    3    0    0 -0.66822957645E+01  0.23913341103E+02 -0.19195186908E+01  0.24903524076E+02  0.00000000000E+00 0.  1.
</event>
<event>
 7    1  0.1335379E-011  0.5930196E+02  0.7816164E-02  0.1266605E+00
        -11   -1    0    0    0    0  0.00000000000E+00  0.00000000000E+00  0.45593999997E+02  0.45594000000E+02  0.51100000000E-03 0. -1.
         11   -1    0    0    0    0 -0.00000000000E+00 -0.00000000000E+00 -0.45593999997E+02  0.45594000000E+02  0.51100000000E-03 0.  1.
    9900012    2    1    2    0    0 -0.72039662231E+01 -0.60640444767E+00  0.31055673430E+02  0.59301957475E+02  0.50000024525E+02 0.  0.
        -12    1    1    2    0    0  0.72039662231E+01  0.60640444767E+00 -0.31055673430E+02  0.31886042525E+02  0.00000000000E+00 0.  1.
         11    1    3    3    0    0  0.55213039507E+01 -0.26039118688E+01  0.45024386315E+01  0.75853218935E+01  0.51100000000E-03 0. -1.
        -11    1    3    3    0    0  0.15049251005E+02 -0.47570604396E+01  0.10028548518E+02  0.18699769129E+02  0.51100000000E-03 0.  1.
         12    1    3    3    0    0 -0.27774521179E+02  0.67545678608E+01  0.16524686281E+02  0.33016866453E+02  0.00000000000E+00 0. -1.
</event>
<event>
 7    1  0.1335379E-011  0.5930196E+02  0.7816164E-02  0.1266605E+00
        -11   -1    0    0    0    0  0.00000000000E+00  0.00000000000E+00  0.45593999997E+02  0.45594000000E+02  0.51100000000E-03 0. -1.
         11   -1    0    0    0    0 -0.00000000000E+00 -0.00000000000E+00 -0.45593999997E+02  0.45594000000E+02  0.51100000000E-03 0.  1.
    9900012    2    1    2    0    0  0.13587137938E+02 -0.60025586959E+01  0.28214861100E+02  0.59301962066E+02  0.50000032897E+02 0.  0.
        -12    1    1    2    0    0 -0.13587137938E+02  0.60025586959E+01 -0.28214861100E+02  0.31886037934E+02  0.00000000000E+00 0.  1.
         11    1    3    3    0    0  0.11537304836E+02 -0.13101289693E+02  0.40833145682E+01  0.17928375627E+02  0.51100000000E-03 0. -1.
        -11    1    3    3    0    0  0.73136090862E+01 -0.11316195788E+02  0.51965207604E+01  0.14441225476E+02  0.51100000000E-03 0.  1.
        -12    1    3    3    0    0 -0.52637759842E+01  0.18414926785E+02  0.18935025771E+02  0.26932360963E+02  0.00000000000E+00 0.  1.
</event>
<event>
 7    1  0.1335379E-011  0.5930194E+02  0.7816164E-02  0.1266605E+00
        -11   -1    0    0    0    0  0.00000000000E+00  0.00000000000E+00  0.45593999997E+02  0.45594000000E+02  0.51100000000E-03 0.  1.
         11   -1    0    0    0    0 -0.00000000000E+00 -0.00000000000E+00 -0.45593999997E+02  0.45594000000E+02  0.51100000000E-03 0. -1.
    9900012    2    1    2    0    0  0.74594433033E+01 -0.29641606284E+02 -0.90803458770E+01  0.59301940370E+02  0.49999993329E+02 0.  0.
        -12    1    1    2    0    0 -0.74594433033E+01  0.29641606284E+02  0.90803458770E+01  0.31886059630E+02  0.00000000000E+00 0.  1.
         11    1    3    3    0    0 -0.82055549733E+01 -0.65827404779E+01  0.81111025118E+00  0.10550900659E+02  0.51100000000E-03 0. -1.
        -11    1    3    3    0    0  0.49649323974E+00  0.80859643492E+01  0.65379968398E+01  0.10410318340E+02  0.51100000000E-03 0.  1.
         12    1    3    3    0    0  0.15168505037E+02 -0.31144830155E+02 -0.16429452968E+02  0.38340721371E+02  0.00000000000E+00 0. -1.
</event>
<event>
 7    1  0.1335379E-011  0.5930192E+02  0.7816164E-02  0.1266605E+00
        -11   -1    0    0    0    0  0.00000000000E+00  0.00000000000E+00  0.45593999997E+02  0.45594000000E+02  0.51100000000E-03 0.  1.
         11   -1    0    0    0    0 -0.00000000000E+00 -0.00000000000E+00 -0.45593999997E+02  0.45594000000E+02  0.51100000000E-03 0. -1.
    9900012    2    1    2    0    0 -0.64046557902E+01  0.13886743268E+02 -0.27979650416E+02  0.59301920094E+02  0.49999956350E+02 0.  0.
        -12    1    1    2    0    0  0.64046557902E+01 -0.13886743268E+02  0.27979650416E+02  0.31886079906E+02  0.00000000000E+00 0.  1.
         11    1    3    3    0    0 -0.34593742137E+00  0.24292598238E+01  0.26047444404E+01  0.35785010622E+01  0.51100000000E-03 0. -1.
        -11    1    3    3    0    0  0.94265247284E+01  0.21552697300E+02 -0.48184911003E+01  0.24012413167E+02  0.51100000000E-03 0.  1.
         12    1    3    3    0    0 -0.15485243097E+02 -0.10095213856E+02 -0.25765903756E+02  0.31711005865E+02  0.00000000000E+00 0. -1.
</event>
<event>
 7    1  0.1335379E-011  0.5930194E+02  0.7816164E-02  0.1266605E+00
        -11   -1    0    0    0    0  0.00000000000E+00  0.00000000000E+00  0.45593999997E+02  0.45594000000E+02  0.51100000000E-03 0. -1.
         11   -1    0    0    0    0 -0.00000000000E+00 -0.00000000000E+00 -0.45593999997E+02  0.45594000000E+02  0.51100000000E-03 0.  1.
    9900012    2    1    2    0    0  0.21848080066E+02  0.12207939105E+02  0.19757245410E+02  0.59301935239E+02  0.49999983971E+02 0.  0.
        -12    1    1    2    0    0 -0.21848080066E+02 -0.12207939105E+02 -0.19757245410E+02  0.31886064761E+02  0.00000000000E+00 0.  1.
         11    1    3    3    0    0  0.10488916142E+02  0.12137073910E+02  0.20025359907E+02  0.25658155908E+02  0.51100000000E-03 0. -1.
        -11    1    3    3    0    0  0.21710619090E+02 -0.39570861022E+01 -0.28175703241E+01  0.22247431638E+02  0.51100000000E-03 0.  1.
         12    1    3    3    0    0 -0.10351455166E+02  0.40279512968E+01  0.25494558271E+01  0.11396347692E+02  0.00000000000E+00 0. -1.
</event>
<event>
 7    1  0.1335379E-011  0.5930196E+02  0.7816164E-02  0.1266605E+00
        -11   -1    0    0    0    0  0.00000000000E+00  0.00000000000E+00  0.45593999997E+02  0.45594000000E+02  0.51100000000E-03 0. -1.
         11   -1    0    0    0    0 -0.00000000000E+00 -0.00000000000E+00 -0.45593999997E+02  0.45594000000E+02  0.51100000000E-03 0.  1.
    9900012    2    1    2    0    0 -0.87349864434E+01 -0.30308776664E+02  0.46688228589E+01  0.59301955436E+02  0.50000020806E+02 0.  0.
        -12    1    1    2    0    0  0.87349864434E+01  0.30308776664E+02 -0.46688228589E+01  0.31886044564E+02  0.00000000000E+00 0.  1.
         11    1    3    3    0    0  0.35444547043E+01 -0.12185807961E+01 -0.10895209515E+02  0.11521878708E+02  0.51100000000E-03 0. -1.
        -11    1    3    3    0    0 -0.12621261913E+02  0.29266380787E+01  0.24805145901E+01  0.13191452370E+02  0.51100000000E-03 0.  1.
         12    1    3    3    0    0  0.34182076555E+00 -0.32016833947E+02  0.13083517784E+02  0.34588624359E+02  0.00000000000E+00 0. -1.
</event>
<event>
 7    1  0.1335379E-011  0.5930195E+02  0.7816164E-02  0.1266605E+00
        -11   -1    0    0    0    0  0.00000000000E+00  0.00000000000E+00  0.45593999997E+02  0.45594000000E+02  0.51100000000E-03 0. -1.
         11   -1    0    0    0    0 -0.00000000000E+00 -0.00000000000E+00 -0.45593999997E+02  0.45594000000E+02  0.51100000000E-03 0.  1.
    9900012    2    1    2    0    0  0.15781871400E+02 -0.13269079318E+02  0.24322505311E+02  0.59301949830E+02  0.50000010582E+02 0.  0.
        -12    1    1    2    0    0 -0.15781871400E+02  0.13269079318E+02 -0.24322505311E+02  0.31886050170E+02  0.00000000000E+00 0.  1.
         11    1    3    3    0    0  0.81323660989E+01  0.25757729141E+01  0.85627340651E+01  0.12086786149E+02  0.51100000000E-03 0. -1.
        -11    1    3    3    0    0 -0.88479803568E+01 -0.24333047689E+02  0.79441063129E+01  0.27083072049E+02  0.51100000000E-03 0.  1.
         12    1    3    3    0    0  0.16497485658E+02  0.84881954574E+01  0.78156649328E+01  0.20132091632E+02  0.00000000000E+00 0. -1.
</event>
<event>
 7    1  0.1335379E-011  0.5930194E+02  0.7816164E-02  0.1266605E+00
        -11   -1    0    0    0    0  0.00000000000E+00  0.00000000000E+00  0.45593999997E+02  0.45594000000E+02  0.51100000000E-03 0.  1.
         11   -1    0    0    0    0 -0.00000000000E+00 -0.00000000000E+00 -0.45593999997E+02  0.45594000000E+02  0.51100000000E-03 0. -1.
    9900012    2    1    2    0    0 -0.24085885236E+01 -0.15348146078E+02 -0.27845177484E+02  0.59301940416E+02  0.49999993412E+02 0.  0.
        -12    1    1    2    0    0  0.24085885236E+01  0.15348146078E+02  0.27845177484E+02  0.31886059584E+02  0.00000000000E+00 0.  1.
         11    1    3    3    0    0  0.53921769066E+00  0.97958896702E+01 -0.13393576099E+02  0.16602351976E+02  0.51100000000E-03 0. -1.
        -11    1    3    3    0    0 -0.30434463230E+01  0.65193340294E+01 -0.72773564949E+01  0.10233484232E+02  0.51100000000E-03 0.  1.
        -12    1    3    3    0    0  0.95640108700E-01 -0.31663369777E+02 -0.71742448897E+01  0.32466104208E+02  0.00000000000E+00 0.  1.
</event>
<event>
 7    1  0.1335379E-011  0.5930194E+02  0.7816164E-02  0.1266605E+00
        -11   -1    0    0    0    0  0.00000000000E+00  0.00000000000E+00  0.45593999997E+02  0.45594000000E+02  0.51100000000E-03 0.  1.
         11   -1    0    0    0    0 -0.00000000000E+00 -0.00000000000E+00 -0.45593999997E+02  0.45594000000E+02  0.51100000000E-03 0. -1.
    9900012    2    1    2    0    0  0.11035161815E+02  0.26365753511E+02 -0.14134820373E+02  0.59301938759E+02  0.49999990391E+02 0.  0.
        -12    1    1    2    0    0 -0.11035161815E+02 -0.26365753511E+02  0.14134820373E+02  0.31886061241E+02  0.00000000000E+00 0.  1.
         11    1    3    3    0    0 -0.35113600417E+01 -0.75406326233E+00 -0.40704161949E+01  0.54283099586E+01  0.51100000000E-03 0. -1.
        -11    1    3    3    0    0 -0.14712723766E+02  0.80449550994E+01 -0.87660725979E+01  0.18921669382E+02  0.51100000000E-03 0.  1.
        -12    1    3    3    0    0  0.29259245623E+02  0.19074861674E+02 -0.12983315798E+01  0.34951959418E+02  0.00000000000E+00 0.  1.
</event>
<event>
 7    1  0.1335379E-011  0.5930195E+02  0.7816164E-02  0.1266605E+00
        -11   -1    0    0    0    0  0.00000000000E+00  0.00000000000E+00  0.45593999997E+02  0.45594000000E+02  0.51100000000E-03 0. -1.
         11   -1    0    0    0    0 -0.00000000000E+00 -0.00000000000E+00 -0.45593999997E+02  0.45594000000E+02  0.51100000000E-03 0.  1.
    9900012    2    1    2    0    0  0.15133270266E+02 -0.14990702881E+02  0.23727261561E+02  0.59301953161E+02  0.50000016657E+02 0.  0.
        -12    1    1    2    0    0 -0.15133270266E+02  0.14990702881E+02 -0.23727261561E+02  0.31886046839E+02  0.00000000000E+00 0.  1.
         11    1    3    3    0    0  0.99273572287E+00  0.30563545223E+01  0.90867727719E+00  0.33395391653E+01  0.51100000000E-03 0. -1.
        -11    1    3    3    0    0 -0.63284609082E+01  0.12534520517E+02  0.88670990708E+01  0.16606898213E+02  0.51100000000E-03 0.  1.
        -12    1    3    3    0    0  0.20468995451E+02 -0.30581577921E+02  0.13951485213E+02  0.39355515783E+02  0.00000000000E+00 0.  1.
</event>
<event>
 7    1  0.1335379E-011  0.5930204E+02  0.7816164E-02  0.1266604E+00
        -11   -1    0    0    0    0  0.00000000000E+00  0.00000000000E+00  0.45593999997E+02  0.45594000000E+02  0.51100000000E-03 0.  1.
         11   -1    0    0    0    0 -0.00000000000E+00 -0.00000000000E+00 -0.45593999997E+02  0.45594000000E+02  0.51100000000E-03 0. -1.
    9900012    2    1    2    0    0  0.33830392196E+01 -0.25338595079E+02 -0.19058468273E+02  0.59302038076E+02  0.50000171521E+02 0.  0.
        -12    1    1    2    0    0 -0.33830392196E+01  0.25338595079E+02  0.19058468273E+02  0.31885961924E+02  0.00000000000E+00 0.  1.
         11    1    3    3    0    0  0.71439318182E+01  0.93624412947E+01 -0.92361926190E+01  0.14966573528E+02  0.51100000000E-03 0. -1.
        -11    1    3    3    0    0  0.17743239851E+01 -0.24553343366E+02 -0.17723622035E+02  0.30333837119E+02  0.51100000000E-03 0.  1.
        -12    1    3    3    0    0 -0.55352165838E+01 -0.10147693007E+02  0.79013463814E+01  0.14001627428E+02  0.00000000000E+00 0.  1.
</event>
<event>
 7    1  0.1335379E-011  0.5930195E+02  0.7816164E-02  0.1266605E+00
        -11   -1    0    0    0    0  0.00000000000E+00  0.00000000000E+00  0.45593999997E+02  0.45594000000E+02  0.51100000000E-03 0.  1.
         11   -1    0    0    0    0 -0.00000000000E+00 -0.00000000000E+00 -0.45593999997E+02  0.45594000000E+02  0.51100000000E-03 0. -1.
    9900012    2    1    2    0    0 -0.52967747577E+01  0.31284202706E+02 -0.31564510562E+01  0.59301947484E+02  0.50000006304E+02 0.  0.
        -12    1    1    2    0    0  0.52967747577E+01 -0.31284202706E+02  0.31564510562E+01  0.31886052516E+02  0.00000000000E+00 0.  1.
         11    1    3    3    0    0  0.12690205634E+02  0.79124533768E+00 -0.16695705974E+02  0.20986042658E+02  0.51100000000E-03 0. -1.
        -11    1    3    3    0    0 -0.11658291640E+02  0.17714489134E+02  0.53465362007E+01  0.21870170069E+02  0.51100000000E-03 0.  1.
        -12    1    3    3    0    0 -0.63286887515E+01  0.12778468234E+02  0.81927187167E+01  0.16445734757E+02  0.00000000000E+00 0.  1.
</event>
<event>
 7    1  0.1335379E-011  0.5930196E+02  0.7816164E-02  0.1266605E+00
        -11   -1    0    0    0    0  0.00000000000E+00  0.00000000000E+00  0.45593999997E+02  0.45594000000E+02  0.51100000000E-03 0.  1.
         11   -1    0    0    0    0 -0.00000000000E+00 -0.00000000000E+00 -0.45593999997E+02  0.45594000000E+02  0.51100000000E-03 0. -1.
    9900012    2    1    2    0    0 -0.36343197330E+01 -0.17908271579E+02 -0.26130538946E+02  0.59301960164E+02  0.50000029428E+02 0.  0.
        -12    1    1    2    0    0  0.36343197330E+01  0.17908271579E+02  0.26130538946E+02  0.31886039836E+02  0.00000000000E+00 0.  1.
         11    1    3    3    0    0 -0.87738660475E+01 -0.12801668782E+02 -0.25173265614E+02  0.29572905690E+02  0.51100000000E-03 0. -1.
        -11    1    3    3    0    0  0.58660036230E+01  0.11731662625E+01 -0.14005785638E+02  0.15229850596E+02  0.51100000000E-03 0.  1.
        -12    1    3    3    0    0 -0.72645730849E+00 -0.62797690590E+01  0.13048512307E+02  0.14499203877E+02  0.00000000000E+00 0.  1.
</event>
<event>
 7    1  0.1335379E-011  0.5930196E+02  0.7816164E-02  0.1266605E+00
        -11   -1    0    0    0    0  0.00000000000E+00  0.00000000000E+00  0.45593999997E+02  0.45594000000E+02  0.51100000000E-03 0. -1.
         11   -1    0    0    0    0 -0.00000000000E+00 -0.00000000000E+00 -0.45593999997E+02  0.45594000000E+02  0.51100000000E-03 0.  1.
    9900012    2    1    2    0    0  0.29449420400E+02  0.11340679476E+02 -0.45651079263E+01  0.59301959429E+02  0.50000028089E+02 0.  0.
        -12    1    1    2    0    0 -0.29449420400E+02 -0.11340679476E+02  0.45651079263E+01  0.31886040571E+02  0.00000000000E+00 0.  1.
         11    1    3    3    0    0  0.11567938786E+02  0.52545269456E+01  0.14430547958E+01  0.12787089918E+02  0.51100000000E-03 0. -1.
        -11    1    3    3    0    0  0.25747075112E+02  0.36927506316E+01  0.10517898110E+02  0.28056629608E+02  0.51100000000E-03 0.  1.
        -12    1    3    3    0    0 -0.78655934972E+01  0.23934018984E+01 -0.16526060832E+02  0.18458239903E+02  0.00000000000E+00 0.  1.
</event>
<event>
 7    1  0.1335379E-011  0.5930195E+02  0.7816164E-02  0.1266605E+00
        -11   -1    0    0    0    0  0.00000000000E+00  0.00000000000E+00  0.45593999997E+02  0.45594000000E+02  0.51100000000E-03 0.  1.
         11   -1    0    0    0    0 -0.00000000000E+00 -0.00000000000E+00 -0.45593999997E+02  0.45594000000E+02  0.51100000000E-03 0. -1.
    9900012    2    1    2    0    0  0.24724638141E+02  0.91636424287E+00 -0.20113988890E+02  0.59301952837E+02  0.50000016066E+02 0.  0.
        -12    1    1    2    0    0 -0.24724638141E+02 -0.91636424287E+00  0.20113988890E+02  0.31886047163E+02  0.00000000000E+00 0.  1.
         11    1    3    3    0    0  0.52332537949E+01  0.11462040052E+02 -0.12888859146E+02  0.18024649727E+02  0.51100000000E-03 0. -1.
        -11    1    3    3    0    0  0.10197264718E+02  0.12237248595E+02 -0.42935337128E+01  0.16497542026E+02  0.51100000000E-03 0.  1.
        -12    1    3    3    0    0  0.92941196282E+01 -0.22782924405E+02 -0.29315960312E+01  0.24779761084E+02  0.00000000000E+00 0.  1.
</event>
<event>
 7    1  0.1335379E-011  0.5930203E+02  0.7816164E-02  0.1266604E+00
        -11   -1    0    0    0    0  0.00000000000E+00  0.00000000000E+00  0.45593999997E+02  0.45594000000E+02  0.51100000000E-03 0.  1.
         11   -1    0    0    0    0 -0.00000000000E+00 -0.00000000000E+00 -0.45593999997E+02  0.45594000000E+02  0.51100000000E-03 0. -1.
    9900012    2    1    2    0    0 -0.23100182808E+02  0.20582485751E+02 -0.77109129162E+01  0.59302025913E+02  0.50000149339E+02 0.  0.
        -12    1    1    2    0    0  0.23100182808E+02 -0.20582485751E+02  0.77109129162E+01  0.31885974087E+02  0.00000000000E+00 0.  1.
         11    1    3    3    0    0 -0.12680689834E+01 -0.63466714790E+01  0.78137087109E+01  0.10146047599E+02  0.51100000000E-03 0.  1.
        -11    1    3    3    0    0 -0.23848226294E+02  0.62632808736E+01 -0.13956525753E+02  0.28332864240E+02  0.51100000000E-03 0. -1.
        -12    1    3    3    0    0  0.20161124692E+01  0.20665876357E+02 -0.15680958740E+01  0.20823114074E+02  0.00000000000E+00 0.  1.
</event>
<event>
 7    1  0.1335379E-011  0.5930194E+02  0.7816164E-02  0.1266605E+00
        -11   -1    0    0    0    0  0.00000000000E+00  0.00000000000E+00  0.45593999997E+02  0.45594000000E+02  0.51100000000E-03 0.  1.
         11   -1    0    0    0    0 -0.00000000000E+00 -0.00000000000E+00 -0.45593999997E+02  0.45594000000E+02  0.51100000000E-03 0. -1.
    9900012    2    1    2    0    0 -0.19152720197E+02  0.12612325607E+02 -0.22154527286E+02  0.59301944624E+02  0.50000001088E+02 0.  0.
        -12    1    1    2    0    0  0.19152720197E+02 -0.12612325607E+02  0.22154527286E+02  0.31886055376E+02  0.00000000000E+00 0.  1.
         11    1    3    3    0    0  0.10139602756E+02  0.28408343125E+01 -0.11213661489E+01  0.10589586675E+02  0.51100000000E-03 0. -1.
        -11    1    3    3    0    0  0.38257218226E+01  0.91115438572E+01 -0.83950938241E+00  0.99177192534E+01  0.51100000000E-03 0.  1.
        -12    1    3    3    0    0 -0.33118044776E+02  0.65994743764E+00 -0.20193651754E+02  0.38794638696E+02  0.00000000000E+00 0.  1.
</event>
<event>
 7    1  0.1335379E-011  0.5930198E+02  0.7816164E-02  0.1266605E+00
        -11   -1    0    0    0    0  0.00000000000E+00  0.00000000000E+00  0.45593999997E+02  0.45594000000E+02  0.51100000000E-03 0.  1.
         11   -1    0    0    0    0 -0.00000000000E+00 -0.00000000000E+00 -0.45593999997E+02  0.45594000000E+02  0.51100000000E-03 0. -1.
    9900012    2    1    2    0    0  0.72049109014E+01  0.29057950726E+02 -0.10974663874E+02  0.59301976594E+02  0.50000059394E+02 0.  0.
        -12    1    1    2    0    0 -0.72049109014E+01 -0.29057950726E+02  0.10974663874E+02  0.31886023406E+02  0.00000000000E+00 0.  1.
         11    1    3    3    0    0  0.71324707689E+01 -0.27341214514E+01 -0.17321812251E+02  0.18931263542E+02  0.51100000000E-03 0. -1.
        -11    1    3    3    0    0 -0.58835659524E+01  0.41668004510E+01  0.95103364892E+01  0.11934197699E+02  0.51100000000E-03 0.  1.
         12    1    3    3    0    0  0.59560060848E+01  0.27625271726E+02 -0.31631881127E+01  0.28436515354E+02  0.00000000000E+00 0. -1.
</event>
<event>
 7    1  0.1335379E-011  0.5930195E+02  0.7816164E-02  0.1266605E+00
        -11   -1    0    0    0    0  0.00000000000E+00  0.00000000000E+00  0.45593999997E+02  0.45594000000E+02  0.51100000000E-03 0.  1.
         11   -1    0    0    0    0 -0.00000000000E+00 -0.00000000000E+00 -0.45593999997E+02  0.45594000000E+02  0.51100000000E-03 0. -1.
    9900012    2    1    2    0    0  0.16932215483E+01  0.90872471783E+01 -0.30516804535E+02  0.59301946316E+02  0.50000004174E+02 0.  0.
        -12    1    1    2    0    0 -0.16932215483E+01 -0.90872471783E+01  0.30516804535E+02  0.31886053684E+02  0.00000000000E+00 0.  1.
         11    1    3    3    0    0 -0.45900909273E+01 -0.15919380491E+02 -0.15365780775E+02  0.22596522498E+02  0.51100000000E-03 0. -1.
        -11    1    3    3    0    0  0.35092216607E+01  0.40927280578E+00  0.40526343468E+01  0.53764287686E+01  0.51100000000E-03 0.  1.
         12    1    3    3    0    0  0.27740908149E+01  0.24597354863E+02 -0.19203658107E+02  0.31328995049E+02  0.00000000000E+00 0. -1.
</event>
<event>
 7    1  0.1335379E-011  0.5930197E+02  0.7816164E-02  0.1266605E+00
        -11   -1    0    0    0    0  0.00000000000E+00  0.00000000000E+00  0.45593999997E+02  0.45594000000E+02  0.51100000000E-03 0. -1.
         11   -1    0    0    0    0 -0.00000000000E+00 -0.00000000000E+00 -0.45593999997E+02  0.45594000000E+02  0.51100000000E-03 0.  1.
    9900012    2    1    2    0    0 -0.11804040706E+02  0.16323905267E+01  0.29575649107E+02  0.59301967072E+02  0.50000042027E+02 0.  0.
        -12    1    1    2    0    0  0.11804040706E+02 -0.16323905267E+01 -0.29575649107E+02  0.31886032928E+02  0.00000000000E+00 0.  1.
         11    1    3    3    0    0  0.11302910180E+02 -0.26821708532E+01  0.37241311148E+01  0.12199138160E+02  0.51100000000E-03 0. -1.
        -11    1    3    3    0    0 -0.11523606594E+02 -0.74352945985E+01 -0.28403352245E+01  0.14005164017E+02  0.51100000000E-03 0.  1.
        -12    1    3    3    0    0 -0.11583344292E+02  0.11749855978E+02  0.28691853216E+02  0.33097664895E+02  0.00000000000E+00 0.  1.
</event>
<event>
 7    1  0.1335379E-011  0.5930190E+02  0.7816164E-02  0.1266605E+00
        -11   -1    0    0    0    0  0.00000000000E+00  0.00000000000E+00  0.45593999997E+02  0.45594000000E+02  0.51100000000E-03 0.  1.
         11   -1    0    0    0    0 -0.00000000000E+00 -0.00000000000E+00 -0.45593999997E+02  0.45594000000E+02  0.51100000000E-03 0. -1.
    9900012    2    1    2    0    0 -0.22157326224E+02  0.14824766692E+02 -0.17492925911E+02  0.59301901621E+02  0.49999922661E+02 0.  0.
        -12    1    1    2    0    0  0.22157326224E+02 -0.14824766692E+02  0.17492925911E+02  0.31886098379E+02  0.00000000000E+00 0.  1.
         11    1    3    3    0    0  0.45831821136E+00 -0.29889586922E+00  0.24300833817E+01  0.24909234887E+01  0.51100000000E-03 0. -1.
        -11    1    3    3    0    0  0.28838639157E+01  0.25375060925E+02 -0.72553056052E+01  0.26549008413E+02  0.51100000000E-03 0.  1.
         12    1    3    3    0    0 -0.25499508351E+02 -0.10251398364E+02 -0.12667703688E+02  0.30261969719E+02  0.00000000000E+00 0. -1.
</event>
<event>
 7    1  0.1335379E-011  0.5930196E+02  0.7816164E-02  0.1266605E+00
        -11   -1    0    0    0    0  0.00000000000E+00  0.00000000000E+00  0.45593999997E+02  0.45594000000E+02  0.51100000000E-03 0.  1.
         11   -1    0    0    0    0 -0.00000000000E+00 -0.00000000000E+00 -0.45593999997E+02  0.45594000000E+02  0.51100000000E-03 0. -1.
    9900012    2    1    2    0    0  0.20413716272E+02  0.24186124457E+02 -0.38770136058E+01  0.59301958183E+02  0.50000025816E+02 0.  0.
        -12    1    1    2    0    0 -0.20413716272E+02 -0.24186124457E+02  0.38770136058E+01  0.31886041817E+02  0.00000000000E+00 0.  1.
         11    1    3    3    0    0  0.87289766258E+01 -0.10237439343E+02 -0.58559488425E+01  0.14672843431E+02  0.51100000000E-03 0. -1.
        -11    1    3    3    0    0  0.39774373407E+01 -0.37528602567E+01  0.15354825385E+01  0.56799361610E+01  0.51100000000E-03 0.  1.
         12    1    3    3    0    0  0.77073023052E+01  0.38176424057E+02  0.44345269810E+00  0.38949178591E+02  0.00000000000E+00 0. -1.
</event>
<event>
 7    1  0.1335379E-011  0.5930193E+02  0.7816164E-02  0.1266605E+00
        -11   -1    0    0    0    0  0.00000000000E+00  0.00000000000E+00  0.45593999997E+02  0.45594000000E+02  0.51100000000E-03 0.  1.
         11   -1    0    0    0    0 -0.00000000000E+00 -0.00000000000E+00 -0.45593999997E+02  0.45594000000E+02  0.51100000000E-03 0. -1.
    9900012    2    1    2    0    0 -0.27433417563E+02  0.15909635802E+02  0.33185002608E+01  0.59301931655E+02  0.49999977434E+02 0.  0.
        -12    1    1    2    0    0  0.27433417563E+02 -0.15909635802E+02 -0.33185002608E+01  0.31886068345E+02  0.00000000000E+00 0.  1.
         11    1    3    3    0    0 -0.25810077205E+02 -0.41432104943E+01  0.73318717136E+01  0.27149265582E+02  0.51100000000E-03 0. -1.
        -11    1    3    3    0    0 -0.55470591256E+01  0.21408312736E+02  0.46022705516E+01  0.22589081735E+02  0.51100000000E-03 0.  1.
        -12    1    3    3    0    0  0.39237187677E+01 -0.13554664400E+01 -0.86156420044E+01  0.95635843378E+01  0.00000000000E+00 0.  1.
</event>
<event>
 7    1  0.1335379E-011  0.5930193E+02  0.7816164E-02  0.1266605E+00
        -11   -1    0    0    0    0  0.00000000000E+00  0.00000000000E+00  0.45593999997E+02  0.45594000000E+02  0.51100000000E-03 0.  1.
         11   -1    0    0    0    0 -0.00000000000E+00 -0.00000000000E+00 -0.45593999997E+02  0.45594000000E+02  0.51100000000E-03 0. -1.
    9900012    2    1    2    0    0  0.11393497235E+02  0.21808069643E+02 -0.20280969703E+02  0.59301930739E+02  0.49999975765E+02 0.  0.
        -12    1    1    2    0    0 -0.11393497235E+02 -0.21808069643E+02  0.20280969703E+02  0.31886069261E+02  0.00000000000E+00 0.  1.
         11    1    3    3    0    0  0.19482038540E+02  0.80909117343E+01 -0.14093540725E+02  0.25370072306E+02  0.51100000000E-03 0. -1.
        -11    1    3    3    0    0 -0.28714805444E+01  0.22042858898E+02  0.16901823601E+00  0.22229745755E+02  0.51100000000E-03 0.  1.
        -12    1    3    3    0    0 -0.52170607612E+01 -0.83257009889E+01 -0.63564472140E+01  0.11702112678E+02  0.00000000000E+00 0.  1.
</event>
<event>
 7    1  0.1335379E-011  0.5930196E+02  0.7816164E-02  0.1266605E+00
        -11   -1    0    0    0    0  0.00000000000E+00  0.00000000000E+00  0.45593999997E+02  0.45594000000E+02  0.51100000000E-03 0. -1.
         11   -1    0    0    0    0 -0.00000000000E+00 -0.00000000000E+00 -0.45593999997E+02  0.45594000000E+02  0.51100000000E-03 0.  1.
    9900012    2    1    2    0    0  0.22773727925E+02 -0.77771590760E+01  0.20918722319E+02  0.59301955555E+02  0.50000021022E+02 0.  0.
        -12    1    1    2    0    0 -0.22773727925E+02  0.77771590760E+01 -0.20918722319E+02  0.31886044445E+02  0.00000000000E+00 0.  1.
         11    1    3    3    0    0  0.96581468350E+01 -0.29382638579E+01  0.21065470514E+02  0.23359521464E+02  0.51100000000E-03 0. -1.
        -11    1    3    3    0    0  0.90069516153E+01  0.10166915796E+02  0.10433660314E+02  0.17127539870E+02  0.51100000000E-03 0.  1.
         12    1    3    3    0    0  0.41086294750E+01 -0.15005811014E+02 -0.10580408508E+02  0.18814894221E+02  0.00000000000E+00 0. -1.
</event>
<event>
 7    1  0.1335379E-011  0.5930192E+02  0.7816164E-02  0.1266605E+00
        -11   -1    0    0    0    0  0.00000000000E+00  0.00000000000E+00  0.45593999997E+02  0.45594000000E+02  0.51100000000E-03 0.  1.
         11   -1    0    0    0    0 -0.00000000000E+00 -0.00000000000E+00 -0.45593999997E+02  0.45594000000E+02  0.51100000000E-03 0. -1.
    9900012    2    1    2    0    0 -0.17576887907E+02  0.15546434925E+02 -0.21588971154E+02  0.59301916784E+02  0.49999950314E+02 0.  0.
        -12    1    1    2    0    0  0.17576887907E+02 -0.15546434925E+02  0.21588971154E+02  0.31886083216E+02  0.00000000000E+00 0.  1.
         11    1    3    3    0    0 -0.81062796454E+01  0.44918963471E+00 -0.15352090581E+01  0.82625908848E+01  0.51100000000E-03 0.  1.
        -11    1    3    3    0    0  0.83043908391E+01 -0.10179065925E+02  0.17044890043E+01  0.13246945812E+02  0.51100000000E-03 0. -1.
         12    1    3    3    0    0 -0.17774999101E+02  0.25276311216E+02 -0.21758251100E+02  0.37792380087E+02  0.00000000000E+00 0. -1.
</event>
<event>
 7    1  0.1335379E-011  0.5930195E+02  0.7816164E-02  0.1266605E+00
        -11   -1    0    0    0    0  0.00000000000E+00  0.00000000000E+00  0.45593999997E+02  0.45594000000E+02  0.51100000000E-03 0.  1.
         11   -1    0    0    0    0 -0.00000000000E+00 -0.00000000000E+00 -0.45593999997E+02  0.45594000000E+02  0.51100000000E-03 0. -1.
    9900012    2    1    2    0    0  0.51121666121E+01 -0.30437317445E+02  0.80097401841E+01  0.59301945391E+02  0.50000002487E+02 0.  0.
        -12    1    1    2    0    0 -0.51121666121E+01  0.30437317445E+02 -0.80097401841E+01  0.31886054609E+02  0.00000000000E+00 0.  1.
         11    1    3    3    0    0  0.19656750379E+02 -0.13173750774E+02  0.19083105547E+01  0.23739780840E+02  0.51100000000E-03 0. -1.
        -11    1    3    3    0    0 -0.27392135255E+00 -0.56983231274E+01  0.14338094074E+02  0.15431359671E+02  0.51100000000E-03 0.  1.
         12    1    3    3    0    0 -0.14270662414E+02 -0.11565243543E+02 -0.82366644442E+01  0.20130804880E+02  0.00000000000E+00 0. -1.
</event>
<event>
 7    1  0.1335379E-011  0.5930198E+02  0.7816164E-02  0.1266605E+00
        -11   -1    0    0    0    0  0.00000000000E+00  0.00000000000E+00  0.45593999997E+02  0.45594000000E+02  0.51100000000E-03 0. -1.
         11   -1    0    0    0    0 -0.00000000000E+00 -0.00000000000E+00 -0.45593999997E+02  0.45594000000E+02  0.51100000000E-03 0.  1.
    9900012    2    1    2    0    0  0.55923007826E+01  0.29358110078E+02  0.11115120121E+02  0.59301978757E+02  0.50000063338E+02 0.  0.
        -12    1    1    2    0    0 -0.55923007826E+01 -0.29358110078E+02 -0.11115120121E+02  0.31886021243E+02  0.00000000000E+00 0.  1.
         11    1    3    3    0    0  0.14641537191E+02  0.12873280703E+02  0.13253229749E+02  0.23574224619E+02  0.51100000000E-03 0. -1.
        -11    1    3    3    0    0  0.73772834811E+01 -0.55865236300E+00  0.71604134179E+01  0.10296014986E+02  0.51100000000E-03 0.  1.
        -12    1    3    3    0    0 -0.16426519889E+02  0.17043481738E+02 -0.92985230460E+01  0.25431739152E+02  0.00000000000E+00 0.  1.
</event>
<event>
 7    1  0.1335379E-011  0.5930200E+02  0.7816164E-02  0.1266605E+00
        -11   -1    0    0    0    0  0.00000000000E+00  0.00000000000E+00  0.45593999997E+02  0.45594000000E+02  0.51100000000E-03 0.  1.
         11   -1    0    0    0    0 -0.00000000000E+00 -0.00000000000E+00 -0.45593999997E+02  0.45594000000E+02  0.51100000000E-03 0. -1.
    9900012    2    1    2    0    0 -0.26433326609E+02 -0.94815406268E+01 -0.15102878581E+02  0.59301995080E+02  0.50000093108E+02 0.  0.
        -12    1    1    2    0    0  0.26433326609E+02  0.94815406268E+01  0.15102878581E+02  0.31886004920E+02  0.00000000000E+00 0.  1.
         11    1    3    3    0    0  0.12865196434E+02 -0.49742773249E+01 -0.23363612001E+01  0.13989828381E+02  0.51100000000E-03 0. -1.
        -11    1    3    3    0    0 -0.25717378531E+01 -0.54009059825E+01  0.10287985030E+01  0.60697650398E+01  0.51100000000E-03 0.  1.
        -12    1    3    3    0    0 -0.36726785191E+02  0.89364268065E+00 -0.13795315884E+02  0.39242401660E+02  0.00000000000E+00 0.  1.
</event>
<event>
 7    1  0.1335379E-011  0.5930193E+02  0.7816164E-02  0.1266605E+00
        -11   -1    0    0    0    0  0.00000000000E+00  0.00000000000E+00  0.45593999997E+02  0.45594000000E+02  0.51100000000E-03 0.  1.
         11   -1    0    0    0    0 -0.00000000000E+00 -0.00000000000E+00 -0.45593999997E+02  0.45594000000E+02  0.51100000000E-03 0. -1.
    9900012    2    1    2    0    0  0.25922342734E+02  0.17887698991E+02  0.49783271232E+01  0.59301931429E+02  0.49999977022E+02 0.  0.
        -12    1    1    2    0    0 -0.25922342734E+02 -0.17887698991E+02 -0.49783271232E+01  0.31886068571E+02  0.00000000000E+00 0.  1.
         11    1    3    3    0    0  0.80916367126E+00 -0.68387920025E+01  0.57950841485E+00  0.69108358514E+01  0.51100000000E-03 0. -1.
        -11    1    3    3    0    0 -0.20642872379E+01  0.24591158757E+02 -0.93275806652E+00  0.24695270978E+02  0.51100000000E-03 0.  1.
         12    1    3    3    0    0  0.27177466300E+02  0.13533223625E+00  0.53315767748E+01  0.27695824599E+02  0.00000000000E+00 0. -1.
</event>
<event>
 7    1  0.1335379E-011  0.5930218E+02  0.7816164E-02  0.1266604E+00
        -11   -1    0    0    0    0  0.00000000000E+00  0.00000000000E+00  0.45593999997E+02  0.45594000000E+02  0.51100000000E-03 0. -1.
         11   -1    0    0    0    0 -0.00000000000E+00 -0.00000000000E+00 -0.45593999997E+02  0.45594000000E+02  0.51100000000E-03 0.  1.
    9900012    2    1    2    0    0  0.10968971729E+01  0.31853792596E+02 -0.91542646125E+00  0.59302183533E+02  0.50000436798E+02 0.  0.
        -12    1    1    2    0    0 -0.10968971729E+01 -0.31853792596E+02  0.91542646125E+00  0.31885816467E+02  0.00000000000E+00 0.  1.
         11    1    3    3    0    0 -0.19318398723E+00 -0.22255445591E+01  0.14102520468E+02  0.14278356083E+02  0.51100000000E-03 0. -1.
        -11    1    3    3    0    0  0.60186470844E+01 -0.13571927107E+01  0.19066203384E+00  0.61727171532E+01  0.51100000000E-03 0.  1.
        -12    1    3    3    0    0 -0.47285659242E+01  0.35436529866E+02 -0.15208608963E+02  0.38851110296E+02  0.00000000000E+00 0.  1.
</event>
<event>
 7    1  0.1335379E-011  0.5930198E+02  0.7816164E-02  0.1266605E+00
        -11   -1    0    0    0    0  0.00000000000E+00  0.00000000000E+00  0.45593999997E+02  0.45594000000E+02  0.51100000000E-03 0.  1.
         11   -1    0    0    0    0 -0.00000000000E+00 -0.00000000000E+00 -0.45593999997E+02  0.45594000000E+02  0.51100000000E-03 0. -1.
    9900012    2    1    2    0    0 -0.23643035508E+02 -0.43221577394E+00 -0.21390143908E+02  0.59301981200E+02  0.50000067793E+02 0.  0.
        -12    1    1    2    0    0  0.23643035508E+02  0.43221577394E+00  0.21390143908E+02  0.31886018800E+02  0.00000000000E+00 0.  1.
         11    1    3    3    0    0 -0.15655071720E+02  0.29694992505E+01 -0.47448400541E+01  0.16625664010E+02  0.51100000000E-03 0. -1.
        -11    1    3    3    0    0  0.17008303812E+01  0.13363807897E+02 -0.18869792878E+02  0.23185195040E+02  0.51100000000E-03 0.  1.
        -12    1    3    3    0    0 -0.96887941688E+01 -0.16765522921E+02  0.22244890246E+01  0.19491122151E+02  0.00000000000E+00 0.  1.
</event>
<event>
 7    1  0.1335379E-011  0.5930194E+02  0.7816164E-02  0.1266605E+00
        -11   -1    0    0    0    0  0.00000000000E+00  0.00000000000E+00  0.45593999997E+02  0.45594000000E+02  0.51100000000E-03 0. -1.
         11   -1    0    0    0    0 -0.00000000000E+00 -0.00000000000E+00 -0.45593999997E+02  0.45594000000E+02  0.51100000000E-03 0.  1.
    9900012    2    1    2    0    0 -0.19290189906E+02 -0.13009223871E+02  0.21802971663E+02  0.59301938693E+02  0.49999990271E+02 0.  0.
        -12    1    1    2    0    0  0.19290189906E+02  0.13009223871E+02 -0.21802971663E+02  0.31886061307E+02  0.00000000000E+00 0.  1.
         11    1    3    3    0    0 -0.15052379389E+02 -0.43658382631E+01  0.28997468258E+02  0.32961914912E+02  0.51100000000E-03 0. -1.
        -11    1    3    3    0    0  0.61540261409E+00 -0.80169647524E+01  0.74119853003E+01  0.10935628495E+02  0.51100000000E-03 0.  1.
        -12    1    3    3    0    0 -0.48532131315E+01 -0.62642085532E+00 -0.14606481896E+02  0.15404395287E+02  0.00000000000E+00 0.  1.
</event>
<event>
 7    1  0.1335379E-011  0.5930193E+02  0.7816164E-02  0.1266605E+00
        -11   -1    0    0    0    0  0.00000000000E+00  0.00000000000E+00  0.45593999997E+02  0.45594000000E+02  0.51100000000E-03 0.  1.
         11   -1    0    0    0    0 -0.00000000000E+00 -0.00000000000E+00 -0.45593999997E+02  0.45594000000E+02  0.51100000000E-03 0. -1.
    9900012    2    1    2    0    0 -0.23947578832E+02  0.18766243125E+02 -0.95426846503E+01  0.59301933399E+02  0.49999980615E+02 0.  0.
        -12    1    1    2    0    0  0.23947578832E+02 -0.18766243125E+02  0.95426846503E+01  0.31886066601E+02  0.00000000000E+00 0.  1.
         11    1    3    3    0    0 -0.21201136351E+02  0.84523262166E+01  0.66775249501E+01  0.23780650553E+02  0.51100000000E-03 0. -1.
        -11    1    3    3    0    0  0.28152733741E+01  0.18240014933E+02 -0.23490690413E+01  0.18604892759E+02  0.51100000000E-03 0.  1.
         12    1    3    3    0    0 -0.55617158557E+01 -0.79260980246E+01 -0.13871140559E+02  0.16916390087E+02  0.00000000000E+00 0. -1.
</event>
<event>
 7    1  0.1335379E-011  0.5930183E+02  0.7816164E-02  0.1266605E+00
        -11   -1    0    0    0    0  0.00000000000E+00  0.00000000000E+00  0.45593999997E+02  0.45594000000E+02  0.51100000000E-03 0.  1.
         11   -1    0    0    0    0 -0.00000000000E+00 -0.00000000000E+00 -0.45593999997E+02  0.45594000000E+02  0.51100000000E-03 0. -1.
    9900012    2    1    2    0    0  0.95405134622E+01  0.19298673369E+02 -0.23521646649E+02  0.59301826632E+02  0.49999785898E+02 0.  0.
        -12    1    1    2    0    0 -0.95405134622E+01 -0.19298673369E+02  0.23521646649E+02  0.31886173368E+02  0.00000000000E+00 0.  1.
         11    1    3    3    0    0 -0.25479263169E+01  0.42633016597E+01 -0.53017809530E+01  0.72647471458E+01  0.51100000000E-03 0. -1.
        -11    1    3    3    0    0 -0.12909274207E+02  0.97588113862E+01  0.55827349865E+01  0.17118723388E+02  0.51100000000E-03 0.  1.
         12    1    3    3    0    0  0.24997713986E+02  0.52765603235E+01 -0.23802600683E+02  0.34918356099E+02  0.00000000000E+00 0. -1.
</event>
<event>
 7    1  0.1335379E-011  0.5930198E+02  0.7816164E-02  0.1266605E+00
        -11   -1    0    0    0    0  0.00000000000E+00  0.00000000000E+00  0.45593999997E+02  0.45594000000E+02  0.51100000000E-03 0.  1.
         11   -1    0    0    0    0 -0.00000000000E+00 -0.00000000000E+00 -0.45593999997E+02  0.45594000000E+02  0.51100000000E-03 0. -1.
    9900012    2    1    2    0    0  0.31411105505E+01  0.31628665549E+02  0.25454385468E+01  0.59301979281E+02  0.50000064293E+02 0.  0.
        -12    1    1    2    0    0 -0.31411105505E+01 -0.31628665549E+02 -0.25454385468E+01  0.31886020719E+02  0.00000000000E+00 0.  1.
         11    1    3    3    0    0 -0.16276006466E+02  0.78417171493E+01 -0.95972148664E+00  0.18092041895E+02  0.51100000000E-03 0. -1.
        -11    1    3    3    0    0  0.44793256261E+01 -0.22223241539E+00  0.11065547683E+02  0.11939853060E+02  0.51100000000E-03 0.  1.
         12    1    3    3    0    0  0.14937791390E+02  0.24009180815E+02 -0.75603876496E+01  0.29270084326E+02  0.00000000000E+00 0. -1.
</event>
<event>
 7    1  0.1335379E-011  0.5930194E+02  0.7816164E-02  0.1266605E+00
        -11   -1    0    0    0    0  0.00000000000E+00  0.00000000000E+00  0.45593999997E+02  0.45594000000E+02  0.51100000000E-03 0. -1.
         11   -1    0    0    0    0 -0.00000000000E+00 -0.00000000000E+00 -0.45593999997E+02  0.45594000000E+02  0.51100000000E-03 0.  1.
    9900012    2    1    2    0    0  0.10865496770E+02 -0.16116950721E+02  0.25276587318E+02  0.59301937417E+02  0.49999987944E+02 0.  0.
        -12    1    1    2    0    0 -0.10865496770E+02  0.16116950721E+02 -0.25276587318E+02  0.31886062583E+02  0.00000000000E+00 0.  1.
         11    1    3    3    0    0 -0.76704217527E+01 -0.13118753690E+02  0.17191244121E+02  0.22945063585E+02  0.51100000000E-03 0. -1.
        -11    1    3    3    0    0  0.10899437269E+02  0.65477713886E+01  0.16998565578E+02  0.21227865529E+02  0.51100000000E-03 0.  1.
        -12    1    3    3    0    0  0.76364812543E+01 -0.95459684197E+01 -0.89132223813E+01  0.15129008303E+02  0.00000000000E+00 0.  1.
</event>
<event>
 7    1  0.1335379E-011  0.5930194E+02  0.7816164E-02  0.1266605E+00
        -11   -1    0    0    0    0  0.00000000000E+00  0.00000000000E+00  0.45593999997E+02  0.45594000000E+02  0.51100000000E-03 0. -1.
         11   -1    0    0    0    0 -0.00000000000E+00 -0.00000000000E+00 -0.45593999997E+02  0.45594000000E+02  0.51100000000E-03 0.  1.
    9900012    2    1    2    0    0 -0.23362952971E+02 -0.73869400161E+01  0.20404073207E+02  0.59301942580E+02  0.49999997360E+02 0.  0.
        -12    1    1    2    0    0  0.23362952971E+02  0.73869400161E+01 -0.20404073207E+02  0.31886057420E+02  0.00000000000E+00 0.  1.
         11    1    3    3    0    0 -0.22751672668E+02 -0.77059242302E+01  0.19699929673E-02  0.24021238136E+02  0.51100000000E-03 0. -1.
        -11    1    3    3    0    0 -0.96115821024E+01 -0.97023304288E+01  0.43656903321E+01  0.14337955872E+02  0.51100000000E-03 0.  1.
         12    1    3    3    0    0  0.90003017991E+01  0.10021314643E+02  0.16036412882E+02  0.20942748572E+02  0.00000000000E+00 0. -1.
</event>
<event>
 7    1  0.1335379E-011  0.5930175E+02  0.7816164E-02  0.1266605E+00
        -11   -1    0    0    0    0  0.00000000000E+00  0.00000000000E+00  0.45593999997E+02  0.45594000000E+02  0.51100000000E-03 0.  1.
         11   -1    0    0    0    0 -0.00000000000E+00 -0.00000000000E+00 -0.45593999997E+02  0.45594000000E+02  0.51100000000E-03 0. -1.
    9900012    2    1    2    0    0  0.28065176538E+02 -0.13990015573E+02 -0.57756874242E+01  0.59301745358E+02  0.49999637673E+02 0.  0.
        -12    1    1    2    0    0 -0.28065176538E+02  0.13990015573E+02  0.57756874242E+01  0.31886254642E+02  0.00000000000E+00 0.  1.
         11    1    3    3    0    0 -0.28868367808E+01  0.28607906360E+01 -0.65464576324E+01  0.77054563432E+01  0.51100000000E-03 0. -1.
        -11    1    3    3    0    0  0.34390781768E+01  0.44115629890E+01 -0.13034915403E+02  0.14184433952E+02  0.51100000000E-03 0.  1.
         12    1    3    3    0    0  0.27512935142E+02 -0.21262369198E+02  0.13805685611E+02  0.37411855063E+02  0.00000000000E+00 0. -1.
</event>
<event>
 7    1  0.1335379E-011  0.5930197E+02  0.7816164E-02  0.1266605E+00
        -11   -1    0    0    0    0  0.00000000000E+00  0.00000000000E+00  0.45593999997E+02  0.45594000000E+02  0.51100000000E-03 0.  1.
         11   -1    0    0    0    0 -0.00000000000E+00 -0.00000000000E+00 -0.45593999997E+02  0.45594000000E+02  0.51100000000E-03 0. -1.
    9900012    2    1    2    0    0 -0.28435663497E+02 -0.78186757136E+01  0.12124375194E+02  0.59301966658E+02  0.50000041272E+02 0.  0.
        -12    1    1    2    0    0  0.28435663497E+02  0.78186757136E+01 -0.12124375194E+02  0.31886033342E+02  0.00000000000E+00 0.  1.
         11    1    3    3    0    0 -0.11028310402E+02 -0.67810555894E+01 -0.45937626224E+01  0.13737139459E+02  0.51100000000E-03 0. -1.
        -11    1    3    3    0    0  0.58740604729E+01 -0.79294006539E+01 -0.66233208033E+01  0.11884795324E+02  0.51100000000E-03 0.  1.
        -12    1    3    3    0    0 -0.23281413569E+02  0.68917805297E+01  0.23341458619E+02  0.33680031875E+02  0.00000000000E+00 0.  1.
</event>
<event>
 7    1  0.1335379E-011  0.5930195E+02  0.7816164E-02  0.1266605E+00
        -11   -1    0    0    0    0  0.00000000000E+00  0.00000000000E+00  0.45593999997E+02  0.45594000000E+02  0.51100000000E-03 0.  1.
         11   -1    0    0    0    0 -0.00000000000E+00 -0.00000000000E+00 -0.45593999997E+02  0.45594000000E+02  0.51100000000E-03 0. -1.
    9900012    2    1    2    0    0 -0.54935081166E+01 -0.26319003148E+02 -0.17142101693E+02  0.59301949624E+02  0.50000010207E+02 0.  0.
        -12    1    1    2    0    0  0.54935081166E+01  0.26319003148E+02  0.17142101693E+02  0.31886050376E+02  0.00000000000E+00 0.  1.
         11    1    3    3    0    0 -0.28078120668E+01  0.16132447452E+01 -0.30542544899E+01  0.44513860718E+01  0.51100000000E-03 0. -1.
        -11    1    3    3    0    0 -0.18592163232E+02  0.11819186241E+01  0.43565548277E+00  0.18634786321E+02  0.51100000000E-03 0.  1.
        -12    1    3    3    0    0  0.15906467182E+02 -0.29114166517E+02 -0.14523502686E+02  0.36215777231E+02  0.00000000000E+00 0.  1.
</event>
<event>
 7    1  0.1335379E-011  0.5930196E+02  0.7816164E-02  0.1266605E+00
        -11   -1    0    0    0    0  0.00000000000E+00  0.00000000000E+00  0.45593999997E+02  0.45594000000E+02  0.51100000000E-03 0. -1.
         11   -1    0    0    0    0 -0.00000000000E+00 -0.00000000000E+00 -0.45593999997E+02  0.45594000000E+02  0.51100000000E-03 0.  1.
    9900012    2    1    2    0    0  0.15486041345E+02  0.27872566124E+02  0.14957798800E+00  0.59301956149E+02  0.50000022106E+02 0.  0.
        -12    1    1    2    0    0 -0.15486041345E+02 -0.27872566124E+02 -0.14957798800E+00  0.31886043851E+02  0.00000000000E+00 0.  1.
         11    1    3    3    0    0  0.82035491310E+01  0.24219319298E+01  0.10593416125E+02  0.13615595399E+02  0.51100000000E-03 0. -1.
        -11    1    3    3    0    0  0.54669301786E+01 -0.86746051053E+01 -0.15080405169E+01  0.10363893369E+02  0.51100000000E-03 0.  1.
         12    1    3    3    0    0  0.18155620355E+01  0.34125239300E+02 -0.89357976198E+01  0.35322467381E+02  0.00000000000E+00 0. -1.
</event>
<event>
 7    1  0.1335379E-011  0.5930197E+02  0.7816164E-02  0.1266605E+00
        -11   -1    0    0    0    0  0.00000000000E+00  0.00000000000E+00  0.45593999997E+02  0.45594000000E+02  0.51100000000E-03 0.  1.
         11   -1    0    0    0    0 -0.00000000000E+00 -0.00000000000E+00 -0.45593999997E+02  0.45594000000E+02  0.51100000000E-03 0. -1.
    9900012    2    1    2    0    0 -0.89494124369E+01  0.25474266332E+02 -0.16961393359E+02  0.59301967121E+02  0.50000042116E+02 0.  0.
        -12    1    1    2    0    0  0.89494124369E+01 -0.25474266332E+02  0.16961393359E+02  0.31886032879E+02  0.00000000000E+00 0.  1.
         11    1    3    3    0    0  0.25067646714E+01 -0.92480997768E+01 -0.78472167986E+01  0.12385072884E+02  0.51100000000E-03 0. -1.
        -11    1    3    3    0    0 -0.35840862426E-01  0.21169840614E+02 -0.17352616953E+02  0.27372920041E+02  0.51100000000E-03 0.  1.
        -12    1    3    3    0    0 -0.11420336246E+02  0.13552525495E+02  0.82384403925E+01  0.19543974195E+02  0.00000000000E+00 0.  1.
</event>
<event>
 7    1  0.1335379E-011  0.5930194E+02  0.7816164E-02  0.1266605E+00
        -11   -1    0    0    0    0  0.00000000000E+00  0.00000000000E+00  0.45593999997E+02  0.45594000000E+02  0.51100000000E-03 0.  1.
         11   -1    0    0    0    0 -0.00000000000E+00 -0.00000000000E+00 -0.45593999997E+02  0.45594000000E+02  0.51100000000E-03 0. -1.
    9900012    2    1    2    0    0  0.57782617614E+01  0.72871371388E+01 -0.30499671709E+02  0.59301942686E+02  0.49999997553E+02 0.  0.
        -12    1    1    2    0    0 -0.57782617614E+01 -0.72871371388E+01  0.30499671709E+02  0.31886057314E+02  0.00000000000E+00 0.  1.
         11    1    3    3    0    0 -0.38074473529E+01  0.59131455115E+01 -0.18686895842E+02  0.19966522523E+02  0.51100000000E-03 0. -1.
        -11    1    3    3    0    0 -0.45914315440E+01 -0.14865657954E+02 -0.21311650684E+01  0.15703849682E+02  0.51100000000E-03 0.  1.
        -12    1    3    3    0    0  0.14177140658E+02  0.16239649581E+02 -0.96816107988E+01  0.23631570481E+02  0.00000000000E+00 0.  1.
</event>
<event>
 7    1  0.1335379E-011  0.5930191E+02  0.7816164E-02  0.1266605E+00
        -11   -1    0    0    0    0  0.00000000000E+00  0.00000000000E+00  0.45593999997E+02  0.45594000000E+02  0.51100000000E-03 0.  1.
         11   -1    0    0    0    0 -0.00000000000E+00 -0.00000000000E+00 -0.45593999997E+02  0.45594000000E+02  0.51100000000E-03 0. -1.
    9900012    2    1    2    0    0  0.17501910507E+02  0.15460575512E+02  0.21711200397E+02  0.59301913861E+02  0.49999944983E+02 0.  0.
        -12    1    1    2    0    0 -0.17501910507E+02 -0.15460575512E+02 -0.21711200397E+02  0.31886086139E+02  0.00000000000E+00 0.  1.
         11    1    3    3    0    0  0.19976360151E+01  0.25795729211E+02  0.35761823461E+01  0.26118944764E+02  0.51100000000E-03 0. -1.
        -11    1    3    3    0    0  0.11729209639E+02  0.24953997993E+01  0.15423001200E+02  0.19536385162E+02  0.51100000000E-03 0.  1.
         12    1    3    3    0    0  0.37750648529E+01 -0.12830553498E+02  0.27120168511E+01  0.13646583935E+02  0.00000000000E+00 0. -1.
</event>
<event>
 7    1  0.1335379E-011  0.5930196E+02  0.7816164E-02  0.1266605E+00
        -11   -1    0    0    0    0  0.00000000000E+00  0.00000000000E+00  0.45593999997E+02  0.45594000000E+02  0.51100000000E-03 0.  1.
         11   -1    0    0    0    0 -0.00000000000E+00 -0.00000000000E+00 -0.45593999997E+02  0.45594000000E+02  0.51100000000E-03 0. -1.
    9900012    2    1    2    0    0  0.26911213248E+01 -0.54985575990E+01 -0.31292859191E+02  0.59301963777E+02  0.50000036018E+02 0.  0.
        -12    1    1    2    0    0 -0.26911213248E+01  0.54985575990E+01  0.31292859191E+02  0.31886036223E+02  0.00000000000E+00 0.  1.
         11    1    3    3    0    0  0.11224990382E+01 -0.80414161570E+01 -0.26655568511E+02  0.27864739561E+02  0.51100000000E-03 0. -1.
        -11    1    3    3    0    0 -0.98333838008E+00  0.16689088561E+02 -0.23870628755E+01  0.16887590142E+02  0.51100000000E-03 0.  1.
         12    1    3    3    0    0  0.25519606667E+01 -0.14146230003E+02 -0.22502278048E+01  0.14549634075E+02  0.00000000000E+00 0. -1.
</event>
<event>
 7    1  0.1335379E-011  0.5930189E+02  0.7816164E-02  0.1266605E+00
        -11   -1    0    0    0    0  0.00000000000E+00  0.00000000000E+00  0.45593999997E+02  0.45594000000E+02  0.51100000000E-03 0. -1.
         11   -1    0    0    0    0 -0.00000000000E+00 -0.00000000000E+00 -0.45593999997E+02  0.45594000000E+02  0.51100000000E-03 0.  1.
    9900012    2    1    2    0    0 -0.31586720012E+02  0.30695010071E+01 -0.30953940427E+01  0.59301887320E+02  0.49999896579E+02 0.  0.
        -12    1    1    2    0    0  0.31586720012E+02 -0.30695010071E+01  0.30953940427E+01  0.31886112680E+02  0.00000000000E+00 0.  1.
         11    1    3    3    0    0 -0.92841894943E+01  0.86220456134E+01  0.13568669921E+02  0.18564607424E+02  0.51100000000E-03 0. -1.
        -11    1    3    3    0    0 -0.22499142603E+02  0.21189134206E+01 -0.23008417968E+00  0.22599870596E+02  0.51100000000E-03 0.  1.
        -12    1    3    3    0    0  0.19661208546E+00 -0.76714580269E+01 -0.16433979784E+02  0.18137409300E+02  0.00000000000E+00 0.  1.
</event>
<event>
 7    1  0.1335379E-011  0.5930193E+02  0.7816164E-02  0.1266605E+00
        -11   -1    0    0    0    0  0.00000000000E+00  0.00000000000E+00  0.45593999997E+02  0.45594000000E+02  0.51100000000E-03 0. -1.
         11   -1    0    0    0    0 -0.00000000000E+00 -0.00000000000E+00 -0.45593999997E+02  0.45594000000E+02  0.51100000000E-03 0.  1.
    9900012    2    1    2    0    0 -0.14230833502E+02  0.27486192522E+02  0.76625097115E+01  0.59301930054E+02  0.49999974515E+02 0.  0.
        -12    1    1    2    0    0  0.14230833502E+02 -0.27486192522E+02 -0.76625097115E+01  0.31886069946E+02  0.00000000000E+00 0.  1.
         11    1    3    3    0    0 -0.55364415243E+01  0.61956274855E+01  0.10046065884E+02  0.13036925431E+02  0.51100000000E-03 0. -1.
        -11    1    3    3    0    0  0.14153240301E+02  0.16792298816E+02 -0.58379750071E+01  0.22723940305E+02  0.51100000000E-03 0.  1.
         12    1    3    3    0    0 -0.22847632278E+02  0.44982662203E+01  0.34544188347E+01  0.23541064318E+02  0.00000000000E+00 0. -1.
</event>
<event>
 7    1  0.1335379E-011  0.5930200E+02  0.7816164E-02  0.1266605E+00
        -11   -1    0    0    0    0  0.00000000000E+00  0.00000000000E+00  0.45593999997E+02  0.45594000000E+02  0.51100000000E-03 0. -1.
         11   -1    0    0    0    0 -0.00000000000E+00 -0.00000000000E+00 -0.45593999997E+02  0.45594000000E+02  0.51100000000E-03 0.  1.
    9900012    2    1    2    0    0 -0.24475003622E+02  0.10571180717E+01  0.20410144771E+02  0.59301995069E+02  0.50000093086E+02 0.  0.
        -12    1    1    2    0    0  0.24475003622E+02 -0.10571180717E+01 -0.20410144771E+02  0.31886004931E+02  0.00000000000E+00 0.  1.
         11    1    3    3    0    0 -0.20701816044E+01  0.85050794438E+01  0.96092219042E+00  0.88059865965E+01  0.51100000000E-03 0. -1.
        -11    1    3    3    0    0 -0.85166924256E+01 -0.16763155791E+02 -0.62680001297E+01  0.19819820076E+02  0.51100000000E-03 0.  1.
         12    1    3    3    0    0 -0.13888129592E+02  0.93151944188E+01  0.25717222710E+02  0.30676188397E+02  0.00000000000E+00 0. -1.
</event>
<event>
 7    1  0.1335379E-011  0.5930189E+02  0.7816164E-02  0.1266605E+00
        -11   -1    0    0    0    0  0.00000000000E+00  0.00000000000E+00  0.45593999997E+02  0.45594000000E+02  0.51100000000E-03 0. -1.
         11   -1    0    0    0    0 -0.00000000000E+00 -0.00000000000E+00 -0.45593999997E+02  0.45594000000E+02  0.51100000000E-03 0.  1.
    9900012    2    1    2    0    0  0.56319856204E+01 -0.26559459311E+02  0.16721235745E+02  0.59301892276E+02  0.49999905618E+02 0.  0.
        -12    1    1    2    0    0 -0.56319856204E+01  0.26559459311E+02 -0.16721235745E+02  0.31886107724E+02  0.00000000000E+00 0.  1.
         11    1    3    3    0    0  0.10114249336E+02 -0.85507275942E+01 -0.18032795759E+01  0.13366555260E+02  0.51100000000E-03 0. -1.
        -11    1    3    3    0    0  0.48997512448E+01 -0.19046929840E+02 -0.52498162511E+01  0.20355679049E+02  0.51100000000E-03 0.  1.
        -12    1    3    3    0    0 -0.93820149602E+01  0.10381981238E+01  0.23774331572E+02  0.25579657968E+02  0.00000000000E+00 0.  1.
</event>
<event>
 7    1  0.1335379E-011  0.5930194E+02  0.7816164E-02  0.1266605E+00
        -11   -1    0    0    0    0  0.00000000000E+00  0.00000000000E+00  0.45593999997E+02  0.45594000000E+02  0.51100000000E-03 0. -1.
         11   -1    0    0    0    0 -0.00000000000E+00 -0.00000000000E+00 -0.45593999997E+02  0.45594000000E+02  0.51100000000E-03 0.  1.
    9900012    2    1    2    0    0 -0.47831414576E+01 -0.31172144879E+02  0.47052758107E+01  0.59301942247E+02  0.49999996753E+02 0.  0.
        -12    1    1    2    0    0  0.47831414576E+01  0.31172144879E+02 -0.47052758107E+01  0.31886057753E+02  0.00000000000E+00 0.  1.
         11    1    3    3    0    0 -0.13107656963E+02 -0.27042288676E+02  0.25582431114E+01  0.30160249600E+02  0.51100000000E-03 0. -1.
        -11    1    3    3    0    0 -0.10080581101E+02 -0.15045579192E+01 -0.11614742343E+01  0.10258208056E+02  0.51100000000E-03 0.  1.
         12    1    3    3    0    0  0.18405096606E+02 -0.26252982838E+01  0.33085069336E+01  0.18883484591E+02  0.00000000000E+00 0. -1.
</event>
<event>
 7    1  0.1335379E-011  0.5930190E+02  0.7816164E-02  0.1266605E+00
        -11   -1    0    0    0    0  0.00000000000E+00  0.00000000000E+00  0.45593999997E+02  0.45594000000E+02  0.51100000000E-03 0. -1.
         11   -1    0    0    0    0 -0.00000000000E+00 -0.00000000000E+00 -0.45593999997E+02  0.45594000000E+02  0.51100000000E-03 0.  1.
    9900012    2    1    2    0    0 -0.19933690294E+02  0.15768562310E+02  0.19254185577E+02  0.59301902273E+02  0.49999923848E+02 0.  0.
        -12    1    1    2    0    0  0.19933690294E+02 -0.15768562310E+02 -0.19254185577E+02  0.31886097727E+02  0.00000000000E+00 0.  1.
         11    1    3    3    0    0  0.74711730923E+00 -0.11585759443E+02  0.52401735291E+01  0.12737638126E+02  0.51100000000E-03 0.  1.
        -11    1    3    3    0    0 -0.27614883972E+02  0.24439787027E+02  0.11326680442E+02  0.38576919224E+02  0.51100000000E-03 0. -1.
         12    1    3    3    0    0  0.69340763686E+01  0.29145347268E+01  0.26873316058E+01  0.79873449230E+01  0.00000000000E+00 0. -1.
</event>
<event>
 7    1  0.1335379E-011  0.5930194E+02  0.7816164E-02  0.1266605E+00
        -11   -1    0    0    0    0  0.00000000000E+00  0.00000000000E+00  0.45593999997E+02  0.45594000000E+02  0.51100000000E-03 0. -1.
         11   -1    0    0    0    0 -0.00000000000E+00 -0.00000000000E+00 -0.45593999997E+02  0.45594000000E+02  0.51100000000E-03 0.  1.
    9900012    2    1    2    0    0 -0.29103424182E+01 -0.16327243539E+02 -0.27233647118E+02  0.59301944899E+02  0.50000001588E+02 0.  0.
        -12    1    1    2    0    0  0.29103424182E+01  0.16327243539E+02  0.27233647118E+02  0.31886055101E+02  0.00000000000E+00 0.  1.
         11    1    3    3    0    0 -0.47391465060E+01 -0.11762661677E+02 -0.17880849525E+01  0.12806910923E+02  0.51100000000E-03 0. -1.
        -11    1    3    3    0    0 -0.32422801070E+01  0.11759802713E+02 -0.26700528394E+02  0.29355128290E+02  0.51100000000E-03 0.  1.
         12    1    3    3    0    0  0.50710841947E+01 -0.16324384575E+02  0.12549662289E+01  0.17139905686E+02  0.00000000000E+00 0. -1.
</event>
<event>
 7    1  0.1335379E-011  0.5930201E+02  0.7816164E-02  0.1266605E+00
        -11   -1    0    0    0    0  0.00000000000E+00  0.00000000000E+00  0.45593999997E+02  0.45594000000E+02  0.51100000000E-03 0.  1.
         11   -1    0    0    0    0 -0.00000000000E+00 -0.00000000000E+00 -0.45593999997E+02  0.45594000000E+02  0.51100000000E-03 0. -1.
    9900012    2    1    2    0    0  0.28338261096E+02  0.10231741462E+02 -0.10438895480E+02  0.59302013829E+02  0.50000127300E+02 0.  0.
        -12    1    1    2    0    0 -0.28338261096E+02 -0.10231741462E+02  0.10438895480E+02  0.31885986171E+02  0.00000000000E+00 0.  1.
         11    1    3    3    0    0  0.22219253608E+02 -0.69112139651E+00 -0.68566434069E+01  0.23263414168E+02  0.51100000000E-03 0. -1.
        -11    1    3    3    0    0  0.15881144693E+02  0.17345837880E+02  0.86901741630E+00  0.23533891307E+02  0.51100000000E-03 0.  1.
         12    1    3    3    0    0 -0.97621372054E+01 -0.64229750214E+01 -0.44512694892E+01  0.12504708354E+02  0.00000000000E+00 0. -1.
</event>
<event>
 7    1  0.1335379E-011  0.5930194E+02  0.7816164E-02  0.1266605E+00
        -11   -1    0    0    0    0  0.00000000000E+00  0.00000000000E+00  0.45593999997E+02  0.45594000000E+02  0.51100000000E-03 0.  1.
         11   -1    0    0    0    0 -0.00000000000E+00 -0.00000000000E+00 -0.45593999997E+02  0.45594000000E+02  0.51100000000E-03 0. -1.
    9900012    2    1    2    0    0  0.15785726062E+02 -0.83564845150E+01 -0.26414022693E+02  0.59301943869E+02  0.49999999711E+02 0.  0.
        -12    1    1    2    0    0 -0.15785726062E+02  0.83564845150E+01  0.26414022693E+02  0.31886056131E+02  0.00000000000E+00 0.  1.
         11    1    3    3    0    0  0.24898680467E+01 -0.63386116963E+01 -0.16700429940E+01  0.70118817011E+01  0.51100000000E-03 0. -1.
        -11    1    3    3    0    0  0.15143536068E+02 -0.21298237724E+02 -0.10134985334E+02  0.28029619027E+02  0.51100000000E-03 0.  1.
         12    1    3    3    0    0 -0.18476780524E+01  0.19280364906E+02 -0.14608994364E+02  0.24260443142E+02  0.00000000000E+00 0. -1.
</event>
<event>
 7    1  0.1335379E-011  0.5930194E+02  0.7816164E-02  0.1266605E+00
        -11   -1    0    0    0    0  0.00000000000E+00  0.00000000000E+00  0.45593999997E+02  0.45594000000E+02  0.51100000000E-03 0.  1.
         11   -1    0    0    0    0 -0.00000000000E+00 -0.00000000000E+00 -0.45593999997E+02  0.45594000000E+02  0.51100000000E-03 0. -1.
    9900012    2    1    2    0    0  0.20547262145E+02  0.19116835258E+01 -0.24307953785E+02  0.59301935132E+02  0.49999983776E+02 0.  0.
        -12    1    1    2    0    0 -0.20547262145E+02 -0.19116835258E+01  0.24307953785E+02  0.31886064868E+02  0.00000000000E+00 0.  1.
         11    1    3    3    0    0 -0.80102755763E+01  0.17075342209E+00  0.18741078470E+01  0.82283626575E+01  0.51100000000E-03 0.  1.
        -11    1    3    3    0    0  0.10465835748E+02 -0.85382408612E+01  0.42926969641E+01  0.14172597588E+02  0.51100000000E-03 0. -1.
        -12    1    3    3    0    0  0.18091701974E+02  0.10279170965E+02 -0.30474758596E+02  0.36900974886E+02  0.00000000000E+00 0.  1.
</event>
<event>
 7    1  0.1335379E-011  0.5930194E+02  0.7816164E-02  0.1266605E+00
        -11   -1    0    0    0    0  0.00000000000E+00  0.00000000000E+00  0.45593999997E+02  0.45594000000E+02  0.51100000000E-03 0.  1.
         11   -1    0    0    0    0 -0.00000000000E+00 -0.00000000000E+00 -0.45593999997E+02  0.45594000000E+02  0.51100000000E-03 0. -1.
    9900012    2    1    2    0    0 -0.25971856468E+02  0.13386467710E+02 -0.12766591883E+02  0.59301941692E+02  0.49999995739E+02 0.  0.
        -12    1    1    2    0    0  0.25971856468E+02 -0.13386467710E+02  0.12766591883E+02  0.31886058308E+02  0.00000000000E+00 0.  1.
         11    1    3    3    0    0 -0.15503541708E+02 -0.18047900252E+01  0.49921097291E+01  0.16387136185E+02  0.51100000000E-03 0. -1.
        -11    1    3    3    0    0 -0.49470101275E+01  0.12576782148E+02  0.84928989052E+01  0.15961757123E+02  0.51100000000E-03 0.  1.
         12    1    3    3    0    0 -0.55213046320E+01  0.26144755878E+01 -0.26251600517E+02  0.26953048383E+02  0.00000000000E+00 0. -1.
</event>
<event>
 7    1  0.1335379E-011  0.5930194E+02  0.7816164E-02  0.1266605E+00
        -11   -1    0    0    0    0  0.00000000000E+00  0.00000000000E+00  0.45593999997E+02  0.45594000000E+02  0.51100000000E-03 0.  1.
         11   -1    0    0    0    0 -0.00000000000E+00 -0.00000000000E+00 -0.45593999997E+02  0.45594000000E+02  0.51100000000E-03 0. -1.
    9900012    2    1    2    0    0 -0.14818980104E+02 -0.55691563928E+01 -0.27678564586E+02  0.59301943301E+02  0.49999998675E+02 0.  0.
        -12    1    1    2    0    0  0.14818980104E+02  0.55691563928E+01  0.27678564586E+02  0.31886056699E+02  0.00000000000E+00 0.  1.
         11    1    3    3    0    0 -0.10590699010E+02 -0.35383793871E+01 -0.16809600049E+01  0.11291973300E+02  0.51100000000E-03 0. -1.
        -11    1    3    3    0    0 -0.96295457309E+01 -0.15426702281E+02  0.95715296690E-01  0.18185721210E+02  0.51100000000E-03 0.  1.
         12    1    3    3    0    0  0.54012646369E+01  0.13395925276E+02 -0.26093319878E+02  0.29824248791E+02  0.00000000000E+00 0. -1.
</event>
<event>
 7    1  0.1335379E-011  0.5930191E+02  0.7816164E-02  0.1266605E+00
        -11   -1    0    0    0    0  0.00000000000E+00  0.00000000000E+00  0.45593999997E+02  0.45594000000E+02  0.51100000000E-03 0.  1.
         11   -1    0    0    0    0 -0.00000000000E+00 -0.00000000000E+00 -0.45593999997E+02  0.45594000000E+02  0.51100000000E-03 0. -1.
    9900012    2    1    2    0    0  0.13883772200E-01  0.10673876117E+02 -0.30046483359E+02  0.59301906066E+02  0.49999930767E+02 0.  0.
        -12    1    1    2    0    0 -0.13883772200E-01 -0.10673876117E+02  0.30046483359E+02  0.31886093934E+02  0.00000000000E+00 0.  1.
         11    1    3    3    0    0  0.97851409663E+01  0.16975497795E+02 -0.23973004020E+02  0.30961612217E+02  0.51100000000E-03 0. -1.
        -11    1    3    3    0    0  0.57098622163E+01  0.39039588480E+01 -0.69126427864E+01  0.97789596466E+01  0.51100000000E-03 0.  1.
        -12    1    3    3    0    0 -0.15481119410E+02 -0.10205580526E+02  0.83916344714E+00  0.18561334202E+02  0.00000000000E+00 0.  1.
</event>
<event>
 7    1  0.1335379E-011  0.5930195E+02  0.7816164E-02  0.1266605E+00
        -11   -1    0    0    0    0  0.00000000000E+00  0.00000000000E+00  0.45593999997E+02  0.45594000000E+02  0.51100000000E-03 0. -1.
         11   -1    0    0    0    0 -0.00000000000E+00 -0.00000000000E+00 -0.45593999997E+02  0.45594000000E+02  0.51100000000E-03 0.  1.
    9900012    2    1    2    0    0  0.34802303168E+01  0.23200192531E+02  0.21595349380E+02  0.59301952089E+02  0.50000014701E+02 0.  0.
        -12    1    1    2    0    0 -0.34802303168E+01 -0.23200192531E+02 -0.21595349380E+02  0.31886047911E+02  0.00000000000E+00 0.  1.
         11    1    3    3    0    0 -0.14407351412E+02 -0.35047810674E+01 -0.13091932989E+01  0.14885202464E+02  0.51100000000E-03 0. -1.
        -11    1    3    3    0    0 -0.24147967621E+01 -0.18166145593E+01  0.22617575476E+01  0.37745038515E+01  0.51100000000E-03 0.  1.
        -12    1    3    3    0    0  0.20302378491E+02  0.28521588158E+02  0.20642785132E+02  0.40642245773E+02  0.00000000000E+00 0.  1.
</event>
<event>
 7    1  0.1335379E-011  0.5930195E+02  0.7816164E-02  0.1266605E+00
        -11   -1    0    0    0    0  0.00000000000E+00  0.00000000000E+00  0.45593999997E+02  0.45594000000E+02  0.51100000000E-03 0. -1.
         11   -1    0    0    0    0 -0.00000000000E+00 -0.00000000000E+00 -0.45593999997E+02  0.45594000000E+02  0.51100000000E-03 0.  1.
    9900012    2    1    2    0    0 -0.27511110698E+02 -0.13697036630E+02  0.85000210800E+01  0.59301946895E+02  0.50000005229E+02 0.  0.
        -12    1    1    2    0    0  0.27511110698E+02  0.13697036630E+02 -0.85000210800E+01  0.31886053105E+02  0.00000000000E+00 0.  1.
         11    1    3    3    0    0 -0.34691804478E+01  0.10755077973E+02  0.11175008915E+02  0.15893009146E+02  0.51100000000E-03 0. -1.
        -11    1    3    3    0    0  0.12484721611E+01  0.46119880791E+01  0.13253600803E+00  0.47798203766E+01  0.51100000000E-03 0.  1.
        -12    1    3    3    0    0 -0.25290402411E+02 -0.29064102682E+02 -0.28075238434E+01  0.38629117372E+02  0.00000000000E+00 0.  1.
</event>
<event>
 7    1  0.1335379E-011  0.5930193E+02  0.7816164E-02  0.1266605E+00
        -11   -1    0    0    0    0  0.00000000000E+00  0.00000000000E+00  0.45593999997E+02  0.45594000000E+02  0.51100000000E-03 0.  1.
         11   -1    0    0    0    0 -0.00000000000E+00 -0.00000000000E+00 -0.45593999997E+02  0.45594000000E+02  0.51100000000E-03 0. -1.
    9900012    2    1    2    0    0  0.20750145613E+02  0.65711460612E+01 -0.23301783059E+02  0.59301927849E+02  0.49999970494E+02 0.  0.
        -12    1    1    2    0    0 -0.20750145613E+02 -0.65711460612E+01  0.23301783059E+02  0.31886072151E+02  0.00000000000E+00 0.  1.
         11    1    3    3    0    0  0.25652404207E+00 -0.68327655120E+01 -0.15558872467E+02  0.16995028738E+02  0.51100000000E-03 0. -1.
        -11    1    3    3    0    0 -0.76278903945E+01 -0.38983037288E+01 -0.12591705725E+01  0.86583482619E+01  0.51100000000E-03 0.  1.
        -12    1    3    3    0    0  0.28121511965E+02  0.17302215302E+02 -0.64837400196E+01  0.33648550849E+02  0.00000000000E+00 0.  1.
</event>
<event>
 7    1  0.1335379E-011  0.5930195E+02  0.7816164E-02  0.1266605E+00
        -11   -1    0    0    0    0  0.00000000000E+00  0.00000000000E+00  0.45593999997E+02  0.45594000000E+02  0.51100000000E-03 0.  1.
         11   -1    0    0    0    0 -0.00000000000E+00 -0.00000000000E+00 -0.45593999997E+02  0.45594000000E+02  0.51100000000E-03 0. -1.
    9900012    2    1    2    0    0 -0.29541386246E+02 -0.11267893870E+02  0.41305194998E+01  0.59301950936E+02  0.50000012598E+02 0.  0.
        -12    1    1    2    0    0  0.29541386246E+02  0.11267893870E+02 -0.41305194998E+01  0.31886049064E+02  0.00000000000E+00 0.  1.
         11    1    3    3    0    0 -0.13536739948E+02  0.10955130953E+02 -0.85302912737E+01  0.19391340648E+02  0.51100000000E-03 0. -1.
        -11    1    3    3    0    0 -0.11029380504E+02  0.33829258632E+01  0.59301000758E+01  0.12971411214E+02  0.51100000000E-03 0.  1.
        -12    1    3    3    0    0 -0.49752657933E+01 -0.25605950687E+02  0.67307106977E+01  0.26939199074E+02  0.00000000000E+00 0.  1.
</event>
<event>
 7    1  0.1335379E-011  0.5930193E+02  0.7816164E-02  0.1266605E+00
        -11   -1    0    0    0    0  0.00000000000E+00  0.00000000000E+00  0.45593999997E+02  0.45594000000E+02  0.51100000000E-03 0. -1.
         11   -1    0    0    0    0 -0.00000000000E+00 -0.00000000000E+00 -0.45593999997E+02  0.45594000000E+02  0.51100000000E-03 0.  1.
    9900012    2    1    2    0    0  0.11248855690E+02 -0.12650844944E+02  0.27021113701E+02  0.59301933799E+02  0.49999981345E+02 0.  0.
        -12    1    1    2    0    0 -0.11248855690E+02  0.12650844944E+02 -0.27021113701E+02  0.31886066201E+02  0.00000000000E+00 0.  1.
         11    1    3    3    0    0  0.15670258766E+02  0.32914632224E+01  0.28934905092E+02  0.33069917945E+02  0.51100000000E-03 0. -1.
        -11    1    3    3    0    0  0.72604649291E+00  0.35555464959E+01  0.38179145084E+01  0.52674021917E+01  0.51100000000E-03 0.  1.
        -12    1    3    3    0    0 -0.51474495683E+01 -0.19497854662E+02 -0.57317058994E+01  0.20964613662E+02  0.00000000000E+00 0.  1.
</event>
<event>
 7    1  0.1335379E-011  0.5930194E+02  0.7816164E-02  0.1266605E+00
        -11   -1    0    0    0    0  0.00000000000E+00  0.00000000000E+00  0.45593999997E+02  0.45594000000E+02  0.51100000000E-03 0.  1.
         11   -1    0    0    0    0 -0.00000000000E+00 -0.00000000000E+00 -0.45593999997E+02  0.45594000000E+02  0.51100000000E-03 0. -1.
    9900012    2    1    2    0    0 -0.14561970179E+01  0.31072678661E+02 -0.70063601212E+01  0.59301937981E+02  0.49999988972E+02 0.  0.
        -12    1    1    2    0    0  0.14561970179E+01 -0.31072678661E+02  0.70063601212E+01  0.31886062019E+02  0.00000000000E+00 0.  1.
         11    1    3    3    0    0  0.35017296770E+00  0.20700879569E+02  0.32843389306E+01  0.20962726887E+02  0.51100000000E-03 0. -1.
        -11    1    3    3    0    0 -0.16674459091E+02  0.59690062338E+01  0.29430633084E+01  0.17953502257E+02  0.51100000000E-03 0.  1.
         12    1    3    3    0    0  0.14868089105E+02  0.44027928583E+01 -0.13233762360E+02  0.20385708837E+02  0.00000000000E+00 0. -1.
</event>
<event>
 7    1  0.1335379E-011  0.5930195E+02  0.7816164E-02  0.1266605E+00
        -11   -1    0    0    0    0  0.00000000000E+00  0.00000000000E+00  0.45593999997E+02  0.45594000000E+02  0.51100000000E-03 0.  1.
         11   -1    0    0    0    0 -0.00000000000E+00 -0.00000000000E+00 -0.45593999997E+02  0.45594000000E+02  0.51100000000E-03 0. -1.
    9900012    2    1    2    0    0 -0.28629149193E+01 -0.31756593837E+02 -0.20688634185E+00  0.59301947628E+02  0.50000006565E+02 0.  0.
        -12    1    1    2    0    0  0.28629149193E+01  0.31756593837E+02  0.20688634185E+00  0.31886052372E+02  0.00000000000E+00 0.  1.
         11    1    3    3    0    0  0.69242811715E+01 -0.52127346544E+01  0.57534754994E+01  0.10402920403E+02  0.51100000000E-03 0. -1.
        -11    1    3    3    0    0  0.10375860798E+02 -0.30684337808E+01  0.94161352938E+01  0.14343548281E+02  0.51100000000E-03 0.  1.
        -12    1    3    3    0    0 -0.20163056889E+02 -0.23475425401E+02 -0.15376497135E+02  0.34555478944E+02  0.00000000000E+00 0.  1.
</event>
<event>
 7    1  0.1335379E-011  0.5930194E+02  0.7816164E-02  0.1266605E+00
        -11   -1    0    0    0    0  0.00000000000E+00  0.00000000000E+00  0.45593999997E+02  0.45594000000E+02  0.51100000000E-03 0.  1.
         11   -1    0    0    0    0 -0.00000000000E+00 -0.00000000000E+00 -0.45593999997E+02  0.45594000000E+02  0.51100000000E-03 0. -1.
    9900012    2    1    2    0    0  0.19480989208E+02 -0.24733445079E+02  0.50466464807E+01  0.59301938990E+02  0.49999990813E+02 0.  0.
        -12    1    1    2    0    0 -0.19480989208E+02  0.24733445079E+02 -0.50466464807E+01  0.31886061010E+02  0.00000000000E+00 0.  1.
         11    1    3    3    0    0  0.22362325365E+02 -0.22503880950E+02  0.96832703000E+01  0.33170227276E+02  0.51100000000E-03 0. -1.
        -11    1    3    3    0    0  0.12223973554E+01 -0.12147217848E+02  0.34574516388E+01  0.12688700833E+02  0.51100000000E-03 0.  1.
         12    1    3    3    0    0 -0.41037335116E+01  0.99176537193E+01 -0.80940754581E+01  0.13443010881E+02  0.00000000000E+00 0. -1.
</event>
<event>
 7    1  0.1335379E-011  0.5930197E+02  0.7816164E-02  0.1266605E+00
        -11   -1    0    0    0    0  0.00000000000E+00  0.00000000000E+00  0.45593999997E+02  0.45594000000E+02  0.51100000000E-03 0.  1.
         11   -1    0    0    0    0 -0.00000000000E+00 -0.00000000000E+00 -0.45593999997E+02  0.45594000000E+02  0.51100000000E-03 0. -1.
    9900012    2    1    2    0    0 -0.89649000375E+00 -0.11039789066E+02 -0.29900472526E+02  0.59301970235E+02  0.50000047795E+02 0.  0.
        -12    1    1    2    0    0  0.89649000375E+00  0.11039789066E+02  0.29900472526E+02  0.31886029765E+02  0.00000000000E+00 0.  1.
         11    1    3    3    0    0 -0.14078323264E+01  0.10090052115E+02 -0.18156845127E+02  0.20819754292E+02  0.51100000000E-03 0. -1.
        -11    1    3    3    0    0 -0.13507106605E+02 -0.15259492704E+02 -0.11246520884E+02  0.23276131093E+02  0.51100000000E-03 0.  1.
        -12    1    3    3    0    0  0.14018448927E+02 -0.58703484771E+01 -0.49710651432E+00  0.15206084850E+02  0.00000000000E+00 0.  1.
</event>
<event>
 7    1  0.1335379E-011  0.5930186E+02  0.7816164E-02  0.1266605E+00
        -11   -1    0    0    0    0  0.00000000000E+00  0.00000000000E+00  0.45593999997E+02  0.45594000000E+02  0.51100000000E-03 0.  1.
         11   -1    0    0    0    0 -0.00000000000E+00 -0.00000000000E+00 -0.45593999997E+02  0.45594000000E+02  0.51100000000E-03 0. -1.
    9900012    2    1    2    0    0 -0.12829547035E+02 -0.98952677978E+01 -0.27462928663E+02  0.59301857984E+02  0.49999843076E+02 0.  0.
        -12    1    1    2    0    0  0.12829547035E+02  0.98952677978E+01  0.27462928663E+02  0.31886142016E+02  0.00000000000E+00 0.  1.
         11    1    3    3    0    0 -0.10054058717E+02  0.58906101909E+00  0.52165155095E+01  0.11342095216E+02  0.51100000000E-03 0.  1.
        -11    1    3    3    0    0 -0.10193874482E+01 -0.18663371159E+02 -0.54430067121E+01  0.19467585780E+02  0.51100000000E-03 0. -1.
         12    1    3    3    0    0 -0.17561008695E+01  0.81790423422E+01 -0.27236437461E+02  0.28492176987E+02  0.00000000000E+00 0. -1.
</event>
<event>
 7    1  0.1335379E-011  0.5930198E+02  0.7816164E-02  0.1266605E+00
        -11   -1    0    0    0    0  0.00000000000E+00  0.00000000000E+00  0.45593999997E+02  0.45594000000E+02  0.51100000000E-03 0.  1.
         11   -1    0    0    0    0 -0.00000000000E+00 -0.00000000000E+00 -0.45593999997E+02  0.45594000000E+02  0.51100000000E-03 0. -1.
    9900012    2    1    2    0    0 -0.15030171047E+02 -0.10250439121E+02 -0.26186654910E+02  0.59301977369E+02  0.50000060806E+02 0.  0.
        -12    1    1    2    0    0  0.15030171047E+02  0.10250439121E+02  0.26186654910E+02  0.31886022631E+02  0.00000000000E+00 0.  1.
         11    1    3    3    0    0  0.45002984138E+01  0.13355924171E+02 -0.35487483140E+01  0.14533650991E+02  0.51100000000E-03 0. -1.
        -11    1    3    3    0    0 -0.13332476200E+02 -0.70177747508E+00 -0.23646767541E+01  0.13558728172E+02  0.51100000000E-03 0.  1.
         12    1    3    3    0    0 -0.61979932609E+01 -0.22904585817E+02 -0.20273229842E+02  0.31209598205E+02  0.00000000000E+00 0. -1.
</event>
<event>
 7    1  0.1335379E-011  0.5930191E+02  0.7816164E-02  0.1266605E+00
        -11   -1    0    0    0    0  0.00000000000E+00  0.00000000000E+00  0.45593999997E+02  0.45594000000E+02  0.51100000000E-03 0.  1.
         11   -1    0    0    0    0 -0.00000000000E+00 -0.00000000000E+00 -0.45593999997E+02  0.45594000000E+02  0.51100000000E-03 0. -1.
    9900012    2    1    2    0    0  0.13027333774E+01 -0.93997559076E+01 -0.30441259619E+02  0.59301908791E+02  0.49999935737E+02 0.  0.
        -12    1    1    2    0    0 -0.13027333774E+01  0.93997559076E+01  0.30441259619E+02  0.31886091209E+02  0.00000000000E+00 0.  1.
         11    1    3    3    0    0 -0.39947289901E+01 -0.29066174250E+00 -0.16208407476E+02  0.16695952118E+02  0.51100000000E-03 0. -1.
        -11    1    3    3    0    0 -0.34508868234E+01  0.11562960155E+02  0.49850439196E+01  0.13056084044E+02  0.51100000000E-03 0.  1.
         12    1    3    3    0    0  0.87483491908E+01 -0.20672054320E+02 -0.19217896062E+02  0.29549872630E+02  0.00000000000E+00 0. -1.
</event>
<event>
 7    1  0.1335379E-011  0.5930198E+02  0.7816164E-02  0.1266605E+00
        -11   -1    0    0    0    0  0.00000000000E+00  0.00000000000E+00  0.45593999997E+02  0.45594000000E+02  0.51100000000E-03 0.  1.
         11   -1    0    0    0    0 -0.00000000000E+00 -0.00000000000E+00 -0.45593999997E+02  0.45594000000E+02  0.51100000000E-03 0. -1.
    9900012    2    1    2    0    0  0.98918935349E+01 -0.29794590258E+02  0.55813127213E+01  0.59301980837E+02  0.50000067132E+02 0.  0.
        -12    1    1    2    0    0 -0.98918935349E+01  0.29794590258E+02 -0.55813127213E+01  0.31886019163E+02  0.00000000000E+00 0.  1.
         11    1    3    3    0    0 -0.44601364934E+01 -0.53659784673E+01 -0.66265124544E+01  0.96227444121E+01  0.51100000000E-03 0. -1.
        -11    1    3    3    0    0  0.25787462999E+01 -0.30712350267E+02 -0.10900275198E+01  0.30839691173E+02  0.51100000000E-03 0.  1.
        -12    1    3    3    0    0  0.11773283728E+02  0.62837384765E+01  0.13297852695E+02  0.18839545252E+02  0.00000000000E+00 0.  1.
</event>
<event>
 7    1  0.1335379E-011  0.5930196E+02  0.7816164E-02  0.1266605E+00
        -11   -1    0    0    0    0  0.00000000000E+00  0.00000000000E+00  0.45593999997E+02  0.45594000000E+02  0.51100000000E-03 0.  1.
         11   -1    0    0    0    0 -0.00000000000E+00 -0.00000000000E+00 -0.45593999997E+02  0.45594000000E+02  0.51100000000E-03 0. -1.
    9900012    2    1    2    0    0  0.31114573183E+02  0.21447309616E+01 -0.66334934038E+01  0.59301956501E+02  0.50000022749E+02 0.  0.
        -12    1    1    2    0    0 -0.31114573183E+02 -0.21447309616E+01  0.66334934038E+01  0.31886043499E+02  0.00000000000E+00 0.  1.
         11    1    3    3    0    0  0.14631187446E+02 -0.20467031169E+02  0.87993090873E+01  0.26653308456E+02  0.51100000000E-03 0. -1.
        -11    1    3    3    0    0  0.71949712669E+01  0.57963747604E+01 -0.73541893236E+01  0.11808881097E+02  0.51100000000E-03 0.  1.
        -12    1    3    3    0    0  0.92884144698E+01  0.16815387370E+02 -0.80786131674E+01  0.20839766949E+02  0.00000000000E+00 0.  1.
</event>
<event>
 7    1  0.1335379E-011  0.5930194E+02  0.7816164E-02  0.1266605E+00
        -11   -1    0    0    0    0  0.00000000000E+00  0.00000000000E+00  0.45593999997E+02  0.45594000000E+02  0.51100000000E-03 0.  1.
         11   -1    0    0    0    0 -0.00000000000E+00 -0.00000000000E+00 -0.45593999997E+02  0.45594000000E+02  0.51100000000E-03 0. -1.
    9900012    2    1    2    0    0  0.36559556815E+01  0.20381514543E+02 -0.24247651053E+02  0.59301941469E+02  0.49999995334E+02 0.  0.
        -12    1    1    2    0    0 -0.36559556815E+01 -0.20381514543E+02  0.24247651053E+02  0.31886058531E+02  0.00000000000E+00 0.  1.
         11    1    3    3    0    0 -0.16043331440E+02  0.19538413115E+02 -0.20468348109E+02  0.32528316054E+02  0.51100000000E-03 0. -1.
        -11    1    3    3    0    0  0.85602567443E+01  0.91999767595E+01 -0.22221326648E+01  0.12761482741E+02  0.51100000000E-03 0.  1.
        -12    1    3    3    0    0  0.11139030377E+02 -0.83568753310E+01 -0.15571702793E+01  0.14012142674E+02  0.00000000000E+00 0.  1.
</event>
<event>
 7    1  0.1335379E-011  0.5930170E+02  0.7816164E-02  0.1266606E+00
        -11   -1    0    0    0    0  0.00000000000E+00  0.00000000000E+00  0.45593999997E+02  0.45594000000E+02  0.51100000000E-03 0.  1.
         11   -1    0    0    0    0 -0.00000000000E+00 -0.00000000000E+00 -0.45593999997E+02  0.45594000000E+02  0.51100000000E-03 0. -1.
    9900012    2    1    2    0    0 -0.22364060163E+02  0.21144232756E+02 -0.83370349130E+01  0.59301703305E+02  0.49999560977E+02 0.  0.
        -12    1    1    2    0    0  0.22364060163E+02 -0.21144232756E+02  0.83370349130E+01  0.31886296695E+02  0.00000000000E+00 0.  1.
         11    1    3    3    0    0 -0.12016628842E+02 -0.15377807393E+01  0.27559786803E+01  0.12424152167E+02  0.51100000000E-03 0. -1.
        -11    1    3    3    0    0 -0.19640149829E+02  0.81015508175E+01  0.64930610765E+01  0.22215545309E+02  0.51100000000E-03 0.  1.
         12    1    3    3    0    0  0.92927185089E+01  0.14580462678E+02 -0.17586074670E+02  0.24662005828E+02  0.00000000000E+00 0. -1.
</event>
<event>
 7    1  0.1335379E-011  0.5930195E+02  0.7816164E-02  0.1266605E+00
        -11   -1    0    0    0    0  0.00000000000E+00  0.00000000000E+00  0.45593999997E+02  0.45594000000E+02  0.51100000000E-03 0.  1.
         11   -1    0    0    0    0 -0.00000000000E+00 -0.00000000000E+00 -0.45593999997E+02  0.45594000000E+02  0.51100000000E-03 0. -1.
    9900012    2    1    2    0    0 -0.30092635045E+02 -0.72765972624E+01  0.76291972618E+01  0.59301949719E+02  0.50000010380E+02 0.  0.
        -12    1    1    2    0    0  0.30092635045E+02  0.72765972624E+01 -0.76291972618E+01  0.31886050281E+02  0.00000000000E+00 0.  1.
         11    1    3    3    0    0 -0.47157108609E+01  0.15411280909E+01  0.14048830781E+02  0.14899082230E+02  0.51100000000E-03 0. -1.
        -11    1    3    3    0    0 -0.47892540012E+01  0.37679709826E+01  0.12390250324E+02  0.13807710258E+02  0.51100000000E-03 0.  1.
         12    1    3    3    0    0 -0.20587670183E+02 -0.12585696336E+02 -0.18809883843E+02  0.30595157231E+02  0.00000000000E+00 0. -1.
</event>
<event>
 7    1  0.1335379E-011  0.5930192E+02  0.7816164E-02  0.1266605E+00
        -11   -1    0    0    0    0  0.00000000000E+00  0.00000000000E+00  0.45593999997E+02  0.45594000000E+02  0.51100000000E-03 0.  1.
         11   -1    0    0    0    0 -0.00000000000E+00 -0.00000000000E+00 -0.45593999997E+02  0.45594000000E+02  0.51100000000E-03 0. -1.
    9900012    2    1    2    0    0  0.23296544652E+02  0.59003957303E+01 -0.20956591502E+02  0.59301915420E+02  0.49999947826E+02 0.  0.
        -12    1    1    2    0    0 -0.23296544652E+02 -0.59003957303E+01  0.20956591502E+02  0.31886084580E+02  0.00000000000E+00 0.  1.
         11    1    3    3    0    0  0.19651056602E+02  0.78703032140E+01 -0.83474456074E+01  0.22754901597E+02  0.51100000000E-03 0. -1.
        -11    1    3    3    0    0  0.11824447680E+02 -0.12774120197E+02 -0.14765333290E+02  0.22825660498E+02  0.51100000000E-03 0.  1.
        -12    1    3    3    0    0 -0.81789596297E+01  0.10804212714E+02  0.21561873955E+01  0.13721353325E+02  0.00000000000E+00 0.  1.
</event>
<event>
 7    1  0.1335379E-011  0.5930195E+02  0.7816164E-02  0.1266605E+00
        -11   -1    0    0    0    0  0.00000000000E+00  0.00000000000E+00  0.45593999997E+02  0.45594000000E+02  0.51100000000E-03 0.  1.
         11   -1    0    0    0    0 -0.00000000000E+00 -0.00000000000E+00 -0.45593999997E+02  0.45594000000E+02  0.51100000000E-03 0. -1.
    9900012    2    1    2    0    0  0.13936670776E+02 -0.90329917605E+00 -0.28664843611E+02  0.59301952879E+02  0.50000016143E+02 0.  0.
        -12    1    1    2    0    0 -0.13936670776E+02  0.90329917605E+00  0.28664843611E+02  0.31886047121E+02  0.00000000000E+00 0.  1.
         11    1    3    3    0    0  0.87873301997E+01 -0.97184905247E+01 -0.14260380692E+01  0.13179522562E+02  0.51100000000E-03 0. -1.
        -11    1    3    3    0    0  0.89145943477E+01  0.84370855755E+00  0.66192983595E+01  0.11135391666E+02  0.51100000000E-03 0.  1.
         12    1    3    3    0    0 -0.37652537711E+01  0.79714827911E+01 -0.33858103901E+02  0.34987038652E+02  0.00000000000E+00 0. -1.
</event>
<event>
 7    1  0.1335379E-011  0.5930197E+02  0.7816164E-02  0.1266605E+00
        -11   -1    0    0    0    0  0.00000000000E+00  0.00000000000E+00  0.45593999997E+02  0.45594000000E+02  0.51100000000E-03 0.  1.
         11   -1    0    0    0    0 -0.00000000000E+00 -0.00000000000E+00 -0.45593999997E+02  0.45594000000E+02  0.51100000000E-03 0. -1.
    9900012    2    1    2    0    0  0.68606028731E+01 -0.29994890286E+02 -0.83640788022E+01  0.59301966549E+02  0.50000041073E+02 0.  0.
        -12    1    1    2    0    0 -0.68606028731E+01  0.29994890286E+02  0.83640788022E+01  0.31886033451E+02  0.00000000000E+00 0.  1.
         11    1    3    3    0    0 -0.90127831343E+01 -0.32382565850E+02  0.19172796062E+00  0.33613949347E+02  0.51100000000E-03 0. -1.
        -11    1    3    3    0    0  0.33627083302E+01 -0.58098273973E+01 -0.83704919091E+01  0.10729726779E+02  0.51100000000E-03 0.  1.
        -12    1    3    3    0    0  0.12510677677E+02  0.81975029616E+01 -0.18531485376E+00  0.14958290422E+02  0.00000000000E+00 0.  1.
</event>
<event>
 7    1  0.1335379E-011  0.5930194E+02  0.7816164E-02  0.1266605E+00
        -11   -1    0    0    0    0  0.00000000000E+00  0.00000000000E+00  0.45593999997E+02  0.45594000000E+02  0.51100000000E-03 0. -1.
         11   -1    0    0    0    0 -0.00000000000E+00 -0.00000000000E+00 -0.45593999997E+02  0.45594000000E+02  0.51100000000E-03 0.  1.
    9900012    2    1    2    0    0  0.26271106999E+02 -0.34351352427E+00  0.18067428293E+02  0.59301936749E+02  0.49999986726E+02 0.  0.
        -12    1    1    2    0    0 -0.26271106999E+02  0.34351352427E+00 -0.18067428293E+02  0.31886063251E+02  0.00000000000E+00 0.  1.
         11    1    3    3    0    0  0.15434191755E+02  0.44138693042E+01  0.13503420296E+02  0.20977103644E+02  0.51100000000E-03 0. -1.
        -11    1    3    3    0    0  0.11402206348E+02 -0.19454364644E+02  0.65546367021E+01  0.23482884744E+02  0.51100000000E-03 0.  1.
        -12    1    3    3    0    0 -0.56529110380E+00  0.14696981816E+02 -0.19906287046E+01  0.14841948361E+02  0.00000000000E+00 0.  1.
</event>
<event>
 7    1  0.1335379E-011  0.5930196E+02  0.7816164E-02  0.1266605E+00
        -11   -1    0    0    0    0  0.00000000000E+00  0.00000000000E+00  0.45593999997E+02  0.45594000000E+02  0.51100000000E-03 0. -1.
         11   -1    0    0    0    0 -0.00000000000E+00 -0.00000000000E+00 -0.45593999997E+02  0.45594000000E+02  0.51100000000E-03 0.  1.
    9900012    2    1    2    0    0  0.11847604491E+02 -0.12063926911E+02  0.27033599421E+02  0.59301959757E+02  0.50000028687E+02 0.  0.
        -12    1    1    2    0    0 -0.11847604491E+02  0.12063926911E+02 -0.27033599421E+02  0.31886040243E+02  0.00000000000E+00 0.  1.
         11    1    3    3    0    0  0.73980421559E+01 -0.21225145052E+01 -0.50785054032E+00  0.77132358967E+01  0.51100000000E-03 0. -1.
        -11    1    3    3    0    0 -0.56963568339E+01  0.15099372458E+02  0.67330661471E+01  0.17486386414E+02  0.51100000000E-03 0.  1.
         12    1    3    3    0    0  0.10145919169E+02 -0.25040784864E+02  0.20808383814E+02  0.34102337447E+02  0.00000000000E+00 0. -1.
</event>
<event>
 7    1  0.1335379E-011  0.5930194E+02  0.7816164E-02  0.1266605E+00
        -11   -1    0    0    0    0  0.00000000000E+00  0.00000000000E+00  0.45593999997E+02  0.45594000000E+02  0.51100000000E-03 0.  1.
         11   -1    0    0    0    0 -0.00000000000E+00 -0.00000000000E+00 -0.45593999997E+02  0.45594000000E+02  0.51100000000E-03 0. -1.
    9900012    2    1    2    0    0  0.13175798631E+02 -0.62933163347E+01 -0.28346308896E+02  0.59301941478E+02  0.49999995350E+02 0.  0.
        -12    1    1    2    0    0 -0.13175798631E+02  0.62933163347E+01  0.28346308896E+02  0.31886058522E+02  0.00000000000E+00 0.  1.
         11    1    3    3    0    0 -0.66350149473E+01  0.77522864149E+01  0.52952698233E+00  0.10217718292E+02  0.51100000000E-03 0. -1.
        -11    1    3    3    0    0  0.24659475874E+02 -0.10730847808E+02 -0.90006362783E+01  0.28359342353E+02  0.51100000000E-03 0.  1.
         12    1    3    3    0    0 -0.48486622953E+01 -0.33147549415E+01 -0.19875199600E+02  0.20724880832E+02  0.00000000000E+00 0. -1.
</event>
<event>
 7    1  0.1335379E-011  0.5930194E+02  0.7816164E-02  0.1266605E+00
        -11   -1    0    0    0    0  0.00000000000E+00  0.00000000000E+00  0.45593999997E+02  0.45594000000E+02  0.51100000000E-03 0. -1.
         11   -1    0    0    0    0 -0.00000000000E+00 -0.00000000000E+00 -0.45593999997E+02  0.45594000000E+02  0.51100000000E-03 0.  1.
    9900012    2    1    2    0    0  0.14022252562E+02  0.97063513931E+01  0.26942232538E+02  0.59301941630E+02  0.49999995626E+02 0.  0.
        -12    1    1    2    0    0 -0.14022252562E+02 -0.97063513931E+01 -0.26942232538E+02  0.31886058370E+02  0.00000000000E+00 0.  1.
         11    1    3    3    0    0 -0.12443877763E+01  0.99654327399E+00  0.34752058576E+02  0.34788606971E+02  0.51100000000E-03 0. -1.
        -11    1    3    3    0    0  0.69654578164E+01  0.89386936354E+00  0.40130915745E+01  0.80883564015E+01  0.51100000000E-03 0.  1.
        -12    1    3    3    0    0  0.83011825217E+01  0.78159387556E+01 -0.11822917612E+02  0.16424978258E+02  0.00000000000E+00 0.  1.
</event>
<event>
 7    1  0.1335379E-011  0.5930197E+02  0.7816164E-02  0.1266605E+00
        -11   -1    0    0    0    0  0.00000000000E+00  0.00000000000E+00  0.45593999997E+02  0.45594000000E+02  0.51100000000E-03 0. -1.
         11   -1    0    0    0    0 -0.00000000000E+00 -0.00000000000E+00 -0.45593999997E+02  0.45594000000E+02  0.51100000000E-03 0.  1.
    9900012    2    1    2    0    0 -0.71318226924E+00 -0.27418264561E+02  0.16261898111E+02  0.59301965586E+02  0.50000039317E+02 0.  0.
        -12    1    1    2    0    0  0.71318226924E+00  0.27418264561E+02 -0.16261898111E+02  0.31886034414E+02  0.00000000000E+00 0.  1.
         11    1    3    3    0    0 -0.81513839144E+01 -0.19695056231E+01  0.55175605184E+01  0.10038300974E+02  0.51100000000E-03 0. -1.
        -11    1    3    3    0    0 -0.10005372243E+02 -0.15359200600E+02 -0.95456261400E+01  0.20667159830E+02  0.51100000000E-03 0.  1.
         12    1    3    3    0    0  0.17443573888E+02 -0.10089558338E+02  0.20289963732E+02  0.28596504781E+02  0.00000000000E+00 0. -1.
</event>
<event>
 7    1  0.1335379E-011  0.5930191E+02  0.7816164E-02  0.1266605E+00
        -11   -1    0    0    0    0  0.00000000000E+00  0.00000000000E+00  0.45593999997E+02  0.45594000000E+02  0.51100000000E-03 0. -1.
         11   -1    0    0    0    0 -0.00000000000E+00 -0.00000000000E+00 -0.45593999997E+02  0.45594000000E+02  0.51100000000E-03 0.  1.
    9900012    2    1    2    0    0 -0.18576641009E+02  0.71800890951E+01  0.24901357335E+02  0.59301907927E+02  0.49999934160E+02 0.  0.
        -12    1    1    2    0    0  0.18576641009E+02 -0.71800890951E+01 -0.24901357335E+02  0.31886092073E+02  0.00000000000E+00 0.  1.
         11    1    3    3    0    0 -0.39005800102E+01 -0.60613444437E+01 -0.86940497253E+01  0.11293401692E+02  0.51100000000E-03 0.  1.
        -11    1    3    3    0    0 -0.26859199673E+01  0.20075694752E+02  0.22718319345E+02  0.30436322380E+02  0.51100000000E-03 0. -1.
         12    1    3    3    0    0 -0.11990141031E+02 -0.68342612135E+01  0.10877087715E+02  0.17572183855E+02  0.00000000000E+00 0. -1.
</event>
<event>
 7    1  0.1335379E-011  0.5930195E+02  0.7816164E-02  0.1266605E+00
        -11   -1    0    0    0    0  0.00000000000E+00  0.00000000000E+00  0.45593999997E+02  0.45594000000E+02  0.51100000000E-03 0.  1.
         11   -1    0    0    0    0 -0.00000000000E+00 -0.00000000000E+00 -0.45593999997E+02  0.45594000000E+02  0.51100000000E-03 0. -1.
    9900012    2    1    2    0    0 -0.19093184880E+02 -0.12311851638E+02 -0.22373848350E+02  0.59301945218E+02  0.50000002170E+02 0.  0.
        -12    1    1    2    0    0  0.19093184880E+02  0.12311851638E+02  0.22373848350E+02  0.31886054782E+02  0.00000000000E+00 0.  1.
         11    1    3    3    0    0 -0.59970838680E+01 -0.12951945186E+02 -0.33771136970E+02  0.36663436712E+02  0.51100000000E-03 0. -1.
        -11    1    3    3    0    0 -0.11029245501E+01  0.18714781469E+01 -0.30986241388E+01  0.37842231478E+01  0.51100000000E-03 0.  1.
        -12    1    3    3    0    0 -0.11993176461E+02 -0.12313845984E+01  0.14495912759E+02  0.18854285358E+02  0.00000000000E+00 0.  1.
</event>
<event>
 7    1  0.1335379E-011  0.5930195E+02  0.7816164E-02  0.1266605E+00
        -11   -1    0    0    0    0  0.00000000000E+00  0.00000000000E+00  0.45593999997E+02  0.45594000000E+02  0.51100000000E-03 0.  1.
         11   -1    0    0    0    0 -0.00000000000E+00 -0.00000000000E+00 -0.45593999997E+02  0.45594000000E+02  0.51100000000E-03 0. -1.
    9900012    2    1    2    0    0  0.33154516454E+01 -0.11120464387E+02 -0.29699549602E+02  0.59301949847E+02  0.50000010612E+02 0.  0.
        -12    1    1    2    0    0 -0.33154516454E+01  0.11120464387E+02  0.29699549602E+02  0.31886050153E+02  0.00000000000E+00 0.  1.
         11    1    3    3    0    0  0.57171595642E+01 -0.59484401862E+01 -0.26014140296E+02  0.27291122178E+02  0.51100000000E-03 0. -1.
        -11    1    3    3    0    0  0.11430452684E+02 -0.10963973529E+02 -0.57987193295E+01  0.16866804980E+02  0.51100000000E-03 0.  1.
        -12    1    3    3    0    0 -0.13832160602E+02  0.57919493283E+01  0.21133100231E+01  0.15144022689E+02  0.00000000000E+00 0.  1.
</event>
<event>
 7    1  0.1335379E-011  0.5930192E+02  0.7816164E-02  0.1266605E+00
        -11   -1    0    0    0    0  0.00000000000E+00  0.00000000000E+00  0.45593999997E+02  0.45594000000E+02  0.51100000000E-03 0. -1.
         11   -1    0    0    0    0 -0.00000000000E+00 -0.00000000000E+00 -0.45593999997E+02  0.45594000000E+02  0.51100000000E-03 0.  1.
    9900012    2    1    2    0    0  0.10613378139E+02  0.29801506600E+02 -0.39935247140E+01  0.59301924187E+02  0.49999963815E+02 0.  0.
        -12    1    1    2    0    0 -0.10613378139E+02 -0.29801506600E+02  0.39935247140E+01  0.31886075813E+02  0.00000000000E+00 0.  1.
         11    1    3    3    0    0  0.10759323292E+02  0.17094770616E+01 -0.11420483639E+02  0.15783307522E+02  0.51100000000E-03 0. -1.
        -11    1    3    3    0    0  0.46571473769E+01 -0.63906194421E+01  0.28406500379E+01  0.84022813237E+01  0.51100000000E-03 0.  1.
        -12    1    3    3    0    0 -0.48030925300E+01  0.34482648980E+02  0.45863088875E+01  0.35116335341E+02  0.00000000000E+00 0.  1.
</event>
<event>
 7    1  0.1335379E-011  0.5930194E+02  0.7816164E-02  0.1266605E+00
        -11   -1    0    0    0    0  0.00000000000E+00  0.00000000000E+00  0.45593999997E+02  0.45594000000E+02  0.51100000000E-03 0.  1.
         11   -1    0    0    0    0 -0.00000000000E+00 -0.00000000000E+00 -0.45593999997E+02  0.45594000000E+02  0.51100000000E-03 0. -1.
    9900012    2    1    2    0    0 -0.14718390938E+02 -0.10710403297E+02 -0.26179709184E+02  0.59301938099E+02  0.49999989188E+02 0.  0.
        -12    1    1    2    0    0  0.14718390938E+02  0.10710403297E+02  0.26179709184E+02  0.31886061901E+02  0.00000000000E+00 0.  1.
         11    1    3    3    0    0 -0.18583488061E+02 -0.45485045450E+01 -0.79279677891E+01  0.20709601533E+02  0.51100000000E-03 0. -1.
        -11    1    3    3    0    0 -0.14714420939E+02 -0.27338441236E+01 -0.63130603954E+01  0.16243239180E+02  0.51100000000E-03 0.  1.
         12    1    3    3    0    0  0.18579518062E+02 -0.34280546282E+01 -0.11938681000E+02  0.22349097386E+02  0.00000000000E+00 0. -1.
</event>
<event>
 7    1  0.1335379E-011  0.5930194E+02  0.7816164E-02  0.1266605E+00
        -11   -1    0    0    0    0  0.00000000000E+00  0.00000000000E+00  0.45593999997E+02  0.45594000000E+02  0.51100000000E-03 0.  1.
         11   -1    0    0    0    0 -0.00000000000E+00 -0.00000000000E+00 -0.45593999997E+02  0.45594000000E+02  0.51100000000E-03 0. -1.
    9900012    2    1    2    0    0 -0.60757325232E+01 -0.27447233568E+02 -0.15048444280E+02  0.59301939856E+02  0.49999992392E+02 0.  0.
        -12    1    1    2    0    0  0.60757325232E+01  0.27447233568E+02  0.15048444280E+02  0.31886060144E+02  0.00000000000E+00 0.  1.
         11    1    3    3    0    0 -0.93335699539E+01  0.38618769911E+01  0.24940801348E+01  0.10404328809E+02  0.51100000000E-03 0. -1.
        -11    1    3    3    0    0 -0.13689351330E+02 -0.13133895555E+02 -0.90630152437E+00  0.18992602113E+02  0.51100000000E-03 0.  1.
         12    1    3    3    0    0  0.16947188761E+02 -0.18175215004E+02 -0.16636222891E+02  0.29905008935E+02  0.00000000000E+00 0. -1.
</event>
<event>
 7    1  0.1335379E-011  0.5930183E+02  0.7816164E-02  0.1266605E+00
        -11   -1    0    0    0    0  0.00000000000E+00  0.00000000000E+00  0.45593999997E+02  0.45594000000E+02  0.51100000000E-03 0. -1.
         11   -1    0    0    0    0 -0.00000000000E+00 -0.00000000000E+00 -0.45593999997E+02  0.45594000000E+02  0.51100000000E-03 0.  1.
    9900012    2    1    2    0    0 -0.28779116050E+02  0.13691931883E+02  0.10105231557E+01  0.59301832523E+02  0.49999796642E+02 0.  0.
        -12    1    1    2    0    0  0.28779116050E+02 -0.13691931883E+02 -0.10105231557E+01  0.31886167477E+02  0.00000000000E+00 0.  1.
         11    1    3    3    0    0 -0.34590391064E+01  0.33574977351E+01  0.16026542956E+02  0.16735824508E+02  0.51100000000E-03 0. -1.
        -11    1    3    3    0    0  0.41410716192E+01  0.34939078336E+01 -0.10728157187E+02  0.12018703050E+02  0.51100000000E-03 0.  1.
        -12    1    3    3    0    0 -0.29461148562E+02  0.68405263147E+01 -0.42878626127E+01  0.30547304966E+02  0.00000000000E+00 0.  1.
</event>
<event>
 7    1  0.1335379E-011  0.5930194E+02  0.7816164E-02  0.1266605E+00
        -11   -1    0    0    0    0  0.00000000000E+00  0.00000000000E+00  0.45593999997E+02  0.45594000000E+02  0.51100000000E-03 0.  1.
         11   -1    0    0    0    0 -0.00000000000E+00 -0.00000000000E+00 -0.45593999997E+02  0.45594000000E+02  0.51100000000E-03 0. -1.
    9900012    2    1    2    0    0 -0.24726471633E+02  0.11617224051E+02 -0.16442706142E+02  0.59301939106E+02  0.49999991024E+02 0.  0.
        -12    1    1    2    0    0  0.24726471633E+02 -0.11617224051E+02  0.16442706142E+02  0.31886060894E+02  0.00000000000E+00 0.  1.
         11    1    3    3    0    0  0.78673245277E+00 -0.18933798990E+01 -0.14483975855E+02  0.14628376268E+02  0.51100000000E-03 0. -1.
        -11    1    3    3    0    0 -0.22242016646E+02  0.24221689448E+02  0.15965048805E+01  0.32923340844E+02  0.51100000000E-03 0.  1.
         12    1    3    3    0    0 -0.32711874395E+01 -0.10711085499E+02 -0.35552351671E+01  0.11750221995E+02  0.00000000000E+00 0. -1.
</event>
<event>
 7    1  0.1335379E-011  0.5930195E+02  0.7816164E-02  0.1266605E+00
        -11   -1    0    0    0    0  0.00000000000E+00  0.00000000000E+00  0.45593999997E+02  0.45594000000E+02  0.51100000000E-03 0.  1.
         11   -1    0    0    0    0 -0.00000000000E+00 -0.00000000000E+00 -0.45593999997E+02  0.45594000000E+02  0.51100000000E-03 0. -1.
    9900012    2    1    2    0    0  0.69509441964E+01  0.24216024747E+02 -0.19544531857E+02  0.59301949675E+02  0.50000010300E+02 0.  0.
        -12    1    1    2    0    0 -0.69509441964E+01 -0.24216024747E+02  0.19544531857E+02  0.31886050325E+02  0.00000000000E+00 0.  1.
         11    1    3    3    0    0  0.18079657007E+01 -0.85968558007E+01 -0.72699459599E+01  0.11402928753E+02  0.51100000000E-03 0. -1.
        -11    1    3    3    0    0  0.58240537076E+00  0.29885012670E+02  0.45392023105E+01  0.30233384465E+02  0.51100000000E-03 0.  1.
         12    1    3    3    0    0  0.45605731249E+01  0.29278678777E+01 -0.16813788208E+02  0.17665636457E+02  0.00000000000E+00 0. -1.
</event>
<event>
 7    1  0.1335379E-011  0.5930193E+02  0.7816164E-02  0.1266605E+00
        -11   -1    0    0    0    0  0.00000000000E+00  0.00000000000E+00  0.45593999997E+02  0.45594000000E+02  0.51100000000E-03 0. -1.
         11   -1    0    0    0    0 -0.00000000000E+00 -0.00000000000E+00 -0.45593999997E+02  0.45594000000E+02  0.51100000000E-03 0.  1.
    9900012    2    1    2    0    0  0.31711945690E+02  0.20198212600E+01  0.26446787606E+01  0.59301929325E+02  0.49999973185E+02 0.  0.
        -12    1    1    2    0    0 -0.31711945690E+02 -0.20198212600E+01 -0.26446787606E+01  0.31886070675E+02  0.00000000000E+00 0.  1.
         11    1    3    3    0    0 -0.19870527990E+01  0.88582416882E+01 -0.48538194330E+01  0.10294483376E+02  0.51100000000E-03 0. -1.
        -11    1    3    3    0    0  0.22631344402E+02  0.11585941435E+02 -0.20123020681E+01  0.25504139826E+02  0.51100000000E-03 0.  1.
        -12    1    3    3    0    0  0.11067654087E+02 -0.18424361864E+02  0.95108002618E+01  0.23503306122E+02  0.00000000000E+00 0.  1.
</event>
<event>
 7    1  0.1335379E-011  0.5930190E+02  0.7816164E-02  0.1266605E+00
        -11   -1    0    0    0    0  0.00000000000E+00  0.00000000000E+00  0.45593999997E+02  0.45594000000E+02  0.51100000000E-03 0. -1.
         11   -1    0    0    0    0 -0.00000000000E+00 -0.00000000000E+00 -0.45593999997E+02  0.45594000000E+02  0.51100000000E-03 0.  1.
    9900012    2    1    2    0    0  0.23800041552E+02 -0.17534885923E+02  0.11950280926E+02  0.59301899322E+02  0.49999918468E+02 0.  0.
        -12    1    1    2    0    0 -0.23800041552E+02  0.17534885923E+02 -0.11950280926E+02  0.31886100678E+02  0.00000000000E+00 0.  1.
         11    1    3    3    0    0  0.17618068085E+02 -0.96551452412E+01  0.57506973688E+01  0.20897097243E+02  0.51100000000E-03 0. -1.
        -11    1    3    3    0    0  0.95966480030E-01 -0.22244540387E+02  0.26196892154E+01  0.22398472234E+02  0.51100000000E-03 0.  1.
        -12    1    3    3    0    0  0.60860069873E+01  0.14364799705E+02  0.35798943417E+01  0.16006329845E+02  0.00000000000E+00 0.  1.
</event>
<event>
 7    1  0.1335379E-011  0.5930194E+02  0.7816164E-02  0.1266605E+00
        -11   -1    0    0    0    0  0.00000000000E+00  0.00000000000E+00  0.45593999997E+02  0.45594000000E+02  0.51100000000E-03 0. -1.
         11   -1    0    0    0    0 -0.00000000000E+00 -0.00000000000E+00 -0.45593999997E+02  0.45594000000E+02  0.51100000000E-03 0.  1.
    9900012    2    1    2    0    0  0.17189045457E+02 -0.22254552560E+02  0.15033036441E+02  0.59301943831E+02  0.49999999641E+02 0.  0.
        -12    1    1    2    0    0 -0.17189045457E+02  0.22254552560E+02 -0.15033036441E+02  0.31886056169E+02  0.00000000000E+00 0.  1.
         11    1    3    3    0    0 -0.71731319264E+01  0.58866512489E+00  0.10686097604E+02  0.12883828256E+02  0.51100000000E-03 0. -1.
        -11    1    3    3    0    0  0.10790468709E+02  0.33334781483E+01  0.11456648059E+02  0.16087295501E+02  0.51100000000E-03 0.  1.
        -12    1    3    3    0    0  0.13571708675E+02 -0.26176695834E+02 -0.71097092223E+01  0.30330820074E+02  0.00000000000E+00 0.  1.
</event>
<event>
 7    1  0.1335379E-011  0.5930194E+02  0.7816164E-02  0.1266605E+00
        -11   -1    0    0    0    0  0.00000000000E+00  0.00000000000E+00  0.45593999997E+02  0.45594000000E+02  0.51100000000E-03 0.  1.
         11   -1    0    0    0    0 -0.00000000000E+00 -0.00000000000E+00 -0.45593999997E+02  0.45594000000E+02  0.51100000000E-03 0. -1.
    9900012    2    1    2    0    0  0.70976010098E+01  0.25048139107E+02 -0.18410199576E+02  0.59301942526E+02  0.49999997262E+02 0.  0.
        -12    1    1    2    0    0 -0.70976010098E+01 -0.25048139107E+02  0.18410199576E+02  0.31886057474E+02  0.00000000000E+00 0.  1.
         11    1    3    3    0    0 -0.35640444624E+01 -0.83718016705E+00  0.27367852100E+01  0.45709164408E+01  0.51100000000E-03 0. -1.
        -11    1    3    3    0    0  0.15494971101E+02  0.27563027338E+02  0.13607696563E+01  0.31649112148E+02  0.51100000000E-03 0.  1.
         12    1    3    3    0    0 -0.48333256290E+01 -0.16777080641E+01 -0.22507754442E+02  0.23081913937E+02  0.00000000000E+00 0. -1.
</event>
<event>
 7    1  0.1335379E-011  0.5930194E+02  0.7816164E-02  0.1266605E+00
        -11   -1    0    0    0    0  0.00000000000E+00  0.00000000000E+00  0.45593999997E+02  0.45594000000E+02  0.51100000000E-03 0. -1.
         11   -1    0    0    0    0 -0.00000000000E+00 -0.00000000000E+00 -0.45593999997E+02  0.45594000000E+02  0.51100000000E-03 0.  1.
    9900012    2    1    2    0    0 -0.40443202634E+01  0.31435165435E+02  0.34921313142E+01  0.59301935121E+02  0.49999983757E+02 0.  0.
        -12    1    1    2    0    0  0.40443202634E+01 -0.31435165435E+02 -0.34921313142E+01  0.31886064879E+02  0.00000000000E+00 0.  1.
         11    1    3    3    0    0  0.63695445966E+00  0.21961642919E+02  0.39128757051E+01  0.22316587267E+02  0.51100000000E-03 0. -1.
        -11    1    3    3    0    0  0.65992547824E+01  0.20079506900E+02  0.23132972255E+01  0.21262363588E+02  0.51100000000E-03 0.  1.
        -12    1    3    3    0    0 -0.11280529505E+02 -0.10605984384E+02 -0.27340416164E+01  0.15722984266E+02  0.00000000000E+00 0.  1.
</event>
<event>
 7    1  0.1335379E-011  0.5930193E+02  0.7816164E-02  0.1266605E+00
        -11   -1    0    0    0    0  0.00000000000E+00  0.00000000000E+00  0.45593999997E+02  0.45594000000E+02  0.51100000000E-03 0.  1.
         11   -1    0    0    0    0 -0.00000000000E+00 -0.00000000000E+00 -0.45593999997E+02  0.45594000000E+02  0.51100000000E-03 0. -1.
    9900012    2    1    2    0    0 -0.86057942261E+01  0.12923978186E+02 -0.27850185739E+02  0.59301925420E+02  0.49999966063E+02 0.  0.
        -12    1    1    2    0    0  0.86057942261E+01 -0.12923978186E+02  0.27850185739E+02  0.31886074580E+02  0.00000000000E+00 0.  1.
         11    1    3    3    0    0 -0.18839798187E+02  0.15434342927E+02 -0.48616283124E+01  0.24835304859E+02  0.51100000000E-03 0. -1.
        -11    1    3    3    0    0 -0.17912734811E+01  0.88631682448E+01 -0.67968442487E+01  0.11312007073E+02  0.51100000000E-03 0.  1.
        -12    1    3    3    0    0  0.12025277442E+02 -0.11373532986E+02 -0.16191713178E+02  0.23154613488E+02  0.00000000000E+00 0.  1.
</event>
<event>
 7    1  0.1335379E-011  0.5930203E+02  0.7816164E-02  0.1266604E+00
        -11   -1    0    0    0    0  0.00000000000E+00  0.00000000000E+00  0.45593999997E+02  0.45594000000E+02  0.51100000000E-03 0.  1.
         11   -1    0    0    0    0 -0.00000000000E+00 -0.00000000000E+00 -0.45593999997E+02  0.45594000000E+02  0.51100000000E-03 0. -1.
    9900012    2    1    2    0    0 -0.14698417924E+01 -0.31347521231E+02  0.56469151905E+01  0.59302028580E+02  0.50000154202E+02 0.  0.
        -12    1    1    2    0    0  0.14698417924E+01  0.31347521231E+02 -0.56469151905E+01  0.31885971420E+02  0.00000000000E+00 0.  1.
         11    1    3    3    0    0  0.15609153174E+02 -0.29920826172E+02  0.12625754222E+02  0.36032085307E+02  0.51100000000E-03 0. -1.
        -11    1    3    3    0    0 -0.96820617023E+00  0.51515573843E+00 -0.69566143987E+01  0.70425345421E+01  0.51100000000E-03 0.  1.
        -12    1    3    3    0    0 -0.16110788797E+02 -0.19418507980E+01 -0.22224633205E-01  0.16227408730E+02  0.00000000000E+00 0.  1.
</event>
<event>
 7    1  0.1335379E-011  0.5930192E+02  0.7816164E-02  0.1266605E+00
        -11   -1    0    0    0    0  0.00000000000E+00  0.00000000000E+00  0.45593999997E+02  0.45594000000E+02  0.51100000000E-03 0.  1.
         11   -1    0    0    0    0 -0.00000000000E+00 -0.00000000000E+00 -0.45593999997E+02  0.45594000000E+02  0.51100000000E-03 0. -1.
    9900012    2    1    2    0    0 -0.19288710173E+02 -0.21463385873E+02 -0.13564315508E+02  0.59301922655E+02  0.49999961022E+02 0.  0.
        -12    1    1    2    0    0  0.19288710173E+02  0.21463385873E+02  0.13564315508E+02  0.31886077345E+02  0.00000000000E+00 0.  1.
         11    1    3    3    0    0  0.10527244518E+01 -0.21874271810E+02 -0.86676079858E+00  0.21916734942E+02  0.51100000000E-03 0. -1.
        -11    1    3    3    0    0  0.33049660488E+01  0.14965799856E+01  0.61409444321E+01  0.71325837546E+01  0.51100000000E-03 0.  1.
         12    1    3    3    0    0 -0.23646400673E+02 -0.10856940484E+01 -0.18838499141E+02  0.30252603958E+02  0.00000000000E+00 0. -1.
</event>
<event>
 7    1  0.1335379E-011  0.5930195E+02  0.7816164E-02  0.1266605E+00
        -11   -1    0    0    0    0  0.00000000000E+00  0.00000000000E+00  0.45593999997E+02  0.45594000000E+02  0.51100000000E-03 0.  1.
         11   -1    0    0    0    0 -0.00000000000E+00 -0.00000000000E+00 -0.45593999997E+02  0.45594000000E+02  0.51100000000E-03 0. -1.
    9900012    2    1    2    0    0  0.10865520605E+02  0.16794425424E+01 -0.29930590494E+02  0.59301947993E+02  0.50000007231E+02 0.  0.
        -12    1    1    2    0    0 -0.10865520605E+02 -0.16794425424E+01  0.29930590494E+02  0.31886052007E+02  0.00000000000E+00 0.  1.
         11    1    3    3    0    0 -0.10746515516E+02 -0.12295501952E+01  0.86550062559E+00  0.10851197216E+02  0.51100000000E-03 0. -1.
        -11    1    3    3    0    0 -0.28297236245E+01  0.93993843104E+01 -0.18063867341E+01  0.99809215256E+01  0.51100000000E-03 0.  1.
         12    1    3    3    0    0  0.24441759746E+02 -0.64903915728E+01 -0.28989704386E+02  0.38469829251E+02  0.00000000000E+00 0. -1.
</event>
<event>
 7    1  0.1335379E-011  0.5930193E+02  0.7816164E-02  0.1266605E+00
        -11   -1    0    0    0    0  0.00000000000E+00  0.00000000000E+00  0.45593999997E+02  0.45594000000E+02  0.51100000000E-03 0.  1.
         11   -1    0    0    0    0 -0.00000000000E+00 -0.00000000000E+00 -0.45593999997E+02  0.45594000000E+02  0.51100000000E-03 0. -1.
    9900012    2    1    2    0    0  0.28095405291E+02 -0.11425293773E+02 -0.98403380176E+01  0.59301931121E+02  0.49999976461E+02 0.  0.
        -12    1    1    2    0    0 -0.28095405291E+02  0.11425293773E+02  0.98403380176E+01  0.31886068879E+02  0.00000000000E+00 0.  1.
         11    1    3    3    0    0  0.23710113651E+00 -0.36208468665E+01  0.18138916357E+00  0.36331324321E+01  0.51100000000E-03 0.  1.
        -11    1    3    3    0    0  0.33964864275E+02  0.49970379756E+01 -0.18647898279E+02  0.39068228834E+02  0.51100000000E-03 0. -1.
         12    1    3    3    0    0 -0.61065601205E+01 -0.12801484882E+02  0.86261710978E+01  0.16600569855E+02  0.00000000000E+00 0. -1.
</event>
<event>
 7    1  0.1335379E-011  0.5930195E+02  0.7816164E-02  0.1266605E+00
        -11   -1    0    0    0    0  0.00000000000E+00  0.00000000000E+00  0.45593999997E+02  0.45594000000E+02  0.51100000000E-03 0.  1.
         11   -1    0    0    0    0 -0.00000000000E+00 -0.00000000000E+00 -0.45593999997E+02  0.45594000000E+02  0.51100000000E-03 0. -1.
    9900012    2    1    2    0    0  0.52778770934E+01 -0.50471718910E+01 -0.31038530663E+02  0.59301947933E+02  0.50000007123E+02 0.  0.
        -12    1    1    2    0    0 -0.52778770934E+01  0.50471718910E+01  0.31038530663E+02  0.31886052067E+02  0.00000000000E+00 0.  1.
         11    1    3    3    0    0 -0.78578919491E+01 -0.37218961534E+01 -0.10392125280E+02  0.13549732283E+02  0.51100000000E-03 0.  1.
        -11    1    3    3    0    0  0.16645081822E+02  0.15620369165E+02 -0.75252492572E+01  0.24035058943E+02  0.51100000000E-03 0. -1.
         12    1    3    3    0    0 -0.35093127799E+01 -0.16945644903E+02 -0.13121156126E+02  0.21717156707E+02  0.00000000000E+00 0. -1.
</event>
<event>
 7    1  0.1335379E-011  0.5930191E+02  0.7816164E-02  0.1266605E+00
        -11   -1    0    0    0    0  0.00000000000E+00  0.00000000000E+00  0.45593999997E+02  0.45594000000E+02  0.51100000000E-03 0.  1.
         11   -1    0    0    0    0 -0.00000000000E+00 -0.00000000000E+00 -0.45593999997E+02  0.45594000000E+02  0.51100000000E-03 0. -1.
    9900012    2    1    2    0    0  0.31030601858E+02  0.18640898957E+01 -0.70957581194E+01  0.59301907952E+02  0.49999934207E+02 0.  0.
        -12    1    1    2    0    0 -0.31030601858E+02 -0.18640898957E+01  0.70957581194E+01  0.31886092048E+02  0.00000000000E+00 0.  1.
         11    1    3    3    0    0  0.61910199281E+01  0.12997693655E+02 -0.57200381834E+01  0.15491533338E+02  0.51100000000E-03 0. -1.
        -11    1    3    3    0    0 -0.82822149809E+01 -0.55533387254E+01 -0.22007687573E+01  0.10211661930E+02  0.51100000000E-03 0.  1.
        -12    1    3    3    0    0  0.33121796911E+02 -0.55802650338E+01  0.82504882132E+00  0.33598712684E+02  0.00000000000E+00 0.  1.
</event>
<event>
 7    1  0.1335379E-011  0.5930194E+02  0.7816164E-02  0.1266605E+00
        -11   -1    0    0    0    0  0.00000000000E+00  0.00000000000E+00  0.45593999997E+02  0.45594000000E+02  0.51100000000E-03 0.  1.
         11   -1    0    0    0    0 -0.00000000000E+00 -0.00000000000E+00 -0.45593999997E+02  0.45594000000E+02  0.51100000000E-03 0. -1.
    9900012    2    1    2    0    0 -0.19328173672E+02 -0.24761744622E+01 -0.25239083025E+02  0.59301936439E+02  0.49999986161E+02 0.  0.
        -12    1    1    2    0    0  0.19328173672E+02  0.24761744622E+01  0.25239083025E+02  0.31886063561E+02  0.00000000000E+00 0.  1.
         11    1    3    3    0    0  0.89973335959E+00  0.88272609673E+01  0.57175020483E+01  0.10555561863E+02  0.51100000000E-03 0. -1.
        -11    1    3    3    0    0 -0.19946524114E+01  0.86065431758E+01 -0.18112213897E+01  0.90184115488E+01  0.51100000000E-03 0.  1.
         12    1    3    3    0    0 -0.18233254620E+02 -0.19909978605E+02 -0.29145363684E+02  0.39727963028E+02  0.00000000000E+00 0. -1.
</event>
<event>
 7    1  0.1335379E-011  0.5930196E+02  0.7816164E-02  0.1266605E+00
        -11   -1    0    0    0    0  0.00000000000E+00  0.00000000000E+00  0.45593999997E+02  0.45594000000E+02  0.51100000000E-03 0. -1.
         11   -1    0    0    0    0 -0.00000000000E+00 -0.00000000000E+00 -0.45593999997E+02  0.45594000000E+02  0.51100000000E-03 0.  1.
    9900012    2    1    2    0    0 -0.44973840040E+01  0.30396787566E+02  0.85163631297E+01  0.59301959196E+02  0.50000027663E+02 0.  0.
        -12    1    1    2    0    0  0.44973840040E+01 -0.30396787566E+02 -0.85163631297E+01  0.31886040804E+02  0.00000000000E+00 0.  1.
         11    1    3    3    0    0 -0.84870467602E+01 -0.51915396448E+01  0.37595190053E+01  0.10635602005E+02  0.51100000000E-03 0. -1.
        -11    1    3    3    0    0 -0.87842114418E+01  0.45872524420E+01 -0.80567399091E+01  0.12771699724E+02  0.51100000000E-03 0.  1.
        -12    1    3    3    0    0  0.12773874198E+02  0.31001074769E+02  0.12813584034E+02  0.35894657467E+02  0.00000000000E+00 0.  1.
</event>
<event>
 7    1  0.1335379E-011  0.5930217E+02  0.7816164E-02  0.1266604E+00
        -11   -1    0    0    0    0  0.00000000000E+00  0.00000000000E+00  0.45593999997E+02  0.45594000000E+02  0.51100000000E-03 0.  1.
         11   -1    0    0    0    0 -0.00000000000E+00 -0.00000000000E+00 -0.45593999997E+02  0.45594000000E+02  0.51100000000E-03 0. -1.
    9900012    2    1    2    0    0  0.12941199796E+02  0.19523074624E+02 -0.21635185354E+02  0.59302167092E+02  0.50000406813E+02 0.  0.
        -12    1    1    2    0    0 -0.12941199796E+02 -0.19523074624E+02  0.21635185354E+02  0.31885832908E+02  0.00000000000E+00 0.  1.
         11    1    3    3    0    0  0.37660154286E+01 -0.38429727926E+01 -0.14900643462E+02  0.15842363711E+02  0.51100000000E-03 0. -1.
        -11    1    3    3    0    0  0.10384304745E+02 -0.15276368092E+01  0.91338666460E+01  0.13913841289E+02  0.51100000000E-03 0.  1.
         12    1    3    3    0    0 -0.12091203768E+01  0.24893684226E+02 -0.15868408538E+02  0.29545962092E+02  0.00000000000E+00 0. -1.
</event>
<event>
 7    1  0.1335379E-011  0.5930194E+02  0.7816164E-02  0.1266605E+00
        -11   -1    0    0    0    0  0.00000000000E+00  0.00000000000E+00  0.45593999997E+02  0.45594000000E+02  0.51100000000E-03 0.  1.
         11   -1    0    0    0    0 -0.00000000000E+00 -0.00000000000E+00 -0.45593999997E+02  0.45594000000E+02  0.51100000000E-03 0. -1.
    9900012    2    1    2    0    0  0.25130981974E+02 -0.67806705026E+01 -0.18416765273E+02  0.59301937362E+02  0.49999987844E+02 0.  0.
        -12    1    1    2    0    0 -0.25130981974E+02  0.67806705026E+01  0.18416765273E+02  0.31886062638E+02  0.00000000000E+00 0.  1.
         11    1    3    3    0    0  0.12677142560E+02 -0.49841849041E+01 -0.26527029443E+01  0.13877639418E+02  0.51100000000E-03 0. -1.
        -11    1    3    3    0    0  0.99737181373E+00  0.13570382934E+02 -0.21476069976E+02  0.25423839706E+02  0.51100000000E-03 0.  1.
         12    1    3    3    0    0  0.11456467600E+02 -0.15366868533E+02  0.57120076479E+01  0.20000458238E+02  0.00000000000E+00 0. -1.
</event>
<event>
 7    1  0.1335379E-011  0.5930193E+02  0.7816164E-02  0.1266605E+00
        -11   -1    0    0    0    0  0.00000000000E+00  0.00000000000E+00  0.45593999997E+02  0.45594000000E+02  0.51100000000E-03 0.  1.
         11   -1    0    0    0    0 -0.00000000000E+00 -0.00000000000E+00 -0.45593999997E+02  0.45594000000E+02  0.51100000000E-03 0. -1.
    9900012    2    1    2    0    0  0.31123326002E+02 -0.20216739229E+01 -0.66311849514E+01  0.59301934066E+02  0.49999981832E+02 0.  0.
        -12    1    1    2    0    0 -0.31123326002E+02  0.20216739229E+01  0.66311849514E+01  0.31886065934E+02  0.00000000000E+00 0.  1.
         11    1    3    3    0    0  0.34196933643E+02 -0.72810649391E+01 -0.13558410926E+02  0.37500329123E+02  0.51100000000E-03 0. -1.
        -11    1    3    3    0    0  0.70972834826E+01 -0.26197752686E+01  0.98276754834E+00  0.76289244069E+01  0.51100000000E-03 0.  1.
        -12    1    3    3    0    0 -0.10170891124E+02  0.78791662849E+01  0.59444584260E+01  0.14172680536E+02  0.00000000000E+00 0.  1.
</event>
<event>
 7    1  0.1335379E-011  0.5930195E+02  0.7816164E-02  0.1266605E+00
        -11   -1    0    0    0    0  0.00000000000E+00  0.00000000000E+00  0.45593999997E+02  0.45594000000E+02  0.51100000000E-03 0. -1.
         11   -1    0    0    0    0 -0.00000000000E+00 -0.00000000000E+00 -0.45593999997E+02  0.45594000000E+02  0.51100000000E-03 0.  1.
    9900012    2    1    2    0    0  0.19758393416E+02 -0.18576962897E+02  0.16769692136E+02  0.59301949206E+02  0.50000009445E+02 0.  0.
        -12    1    1    2    0    0 -0.19758393416E+02  0.18576962897E+02 -0.16769692136E+02  0.31886050794E+02  0.00000000000E+00 0.  1.
         11    1    3    3    0    0  0.16192142147E+02  0.11224835298E+01  0.22220463918E+02  0.27517166525E+02  0.51100000000E-03 0. -1.
        -11    1    3    3    0    0  0.33200373442E+01 -0.11802987309E+02  0.90719090079E+01  0.15252301161E+02  0.51100000000E-03 0.  1.
        -12    1    3    3    0    0  0.24621392443E+00 -0.78964591181E+01 -0.14522680790E+02  0.16532481520E+02  0.00000000000E+00 0.  1.
</event>
<event>
 7    1  0.1335379E-011  0.5930196E+02  0.7816164E-02  0.1266605E+00
        -11   -1    0    0    0    0  0.00000000000E+00  0.00000000000E+00  0.45593999997E+02  0.45594000000E+02  0.51100000000E-03 0.  1.
         11   -1    0    0    0    0 -0.00000000000E+00 -0.00000000000E+00 -0.45593999997E+02  0.45594000000E+02  0.51100000000E-03 0. -1.
    9900012    2    1    2    0    0 -0.18830674983E+02  0.12254364043E+02 -0.22626435669E+02  0.59301963095E+02  0.50000034774E+02 0.  0.
        -12    1    1    2    0    0  0.18830674983E+02 -0.12254364043E+02  0.22626435669E+02  0.31886036905E+02  0.00000000000E+00 0.  1.
         11    1    3    3    0    0  0.39980654910E+01 -0.61521135472E+01  0.33710481944E+01  0.80744656144E+01  0.51100000000E-03 0. -1.
        -11    1    3    3    0    0 -0.38380693961E+01 -0.34269930954E+01 -0.21298882021E+02  0.21911582188E+02  0.51100000000E-03 0.  1.
        -12    1    3    3    0    0 -0.18990671078E+02  0.21833470685E+02 -0.46986018426E+01  0.29315915292E+02  0.00000000000E+00 0.  1.
</event>
<event>
 7    1  0.1335379E-011  0.5930196E+02  0.7816164E-02  0.1266605E+00
        -11   -1    0    0    0    0  0.00000000000E+00  0.00000000000E+00  0.45593999997E+02  0.45594000000E+02  0.51100000000E-03 0. -1.
         11   -1    0    0    0    0 -0.00000000000E+00 -0.00000000000E+00 -0.45593999997E+02  0.45594000000E+02  0.51100000000E-03 0.  1.
    9900012    2    1    2    0    0 -0.19231973429E+02 -0.18933324622E+02 -0.16981756534E+02  0.59301958568E+02  0.50000026518E+02 0.  0.
        -12    1    1    2    0    0  0.19231973429E+02  0.18933324622E+02  0.16981756534E+02  0.31886041432E+02  0.00000000000E+00 0.  1.
         11    1    3    3    0    0 -0.28509175943E+00 -0.72684011628E+01 -0.44832629422E+01  0.85446228498E+01  0.51100000000E-03 0. -1.
        -11    1    3    3    0    0  0.50602572423E+00 -0.24312290133E+02  0.17654455013E+00  0.24318196516E+02  0.51100000000E-03 0.  1.
         12    1    3    3    0    0 -0.19452907394E+02  0.12647366674E+02 -0.12675038142E+02  0.26439139202E+02  0.00000000000E+00 0. -1.
</event>
<event>
 7    1  0.1335379E-011  0.5930193E+02  0.7816164E-02  0.1266605E+00
        -11   -1    0    0    0    0  0.00000000000E+00  0.00000000000E+00  0.45593999997E+02  0.45594000000E+02  0.51100000000E-03 0.  1.
         11   -1    0    0    0    0 -0.00000000000E+00 -0.00000000000E+00 -0.45593999997E+02  0.45594000000E+02  0.51100000000E-03 0. -1.
    9900012    2    1    2    0    0 -0.18660015272E+02 -0.34497634378E+01 -0.25624679173E+02  0.59301933757E+02  0.49999981270E+02 0.  0.
        -12    1    1    2    0    0  0.18660015272E+02  0.34497634378E+01  0.25624679173E+02  0.31886066243E+02  0.00000000000E+00 0.  1.
         11    1    3    3    0    0  0.80317254873E+01 -0.82944011185E+01 -0.19743804805E+01  0.11713406113E+02  0.51100000000E-03 0. -1.
        -11    1    3    3    0    0 -0.18870419418E+02  0.13219788777E+02 -0.20431636391E+01  0.23130716856E+02  0.51100000000E-03 0.  1.
         12    1    3    3    0    0 -0.78213213406E+01 -0.83751510963E+01 -0.21607135053E+02  0.24457810789E+02  0.00000000000E+00 0. -1.
</event>
<event>
 7    1  0.1335379E-011  0.5930195E+02  0.7816164E-02  0.1266605E+00
        -11   -1    0    0    0    0  0.00000000000E+00  0.00000000000E+00  0.45593999997E+02  0.45594000000E+02  0.51100000000E-03 0. -1.
         11   -1    0    0    0    0 -0.00000000000E+00 -0.00000000000E+00 -0.45593999997E+02  0.45594000000E+02  0.51100000000E-03 0.  1.
    9900012    2    1    2    0    0 -0.10605771344E+02  0.22178877270E+02  0.20306032350E+02  0.59301953952E+02  0.50000018100E+02 0.  0.
        -12    1    1    2    0    0  0.10605771344E+02 -0.22178877270E+02 -0.20306032350E+02  0.31886046048E+02  0.00000000000E+00 0.  1.
         11    1    3    3    0    0 -0.96310153247E+01  0.23701745565E+02  0.17964653240E+02  0.31261125464E+02  0.51100000000E-03 0. -1.
        -11    1    3    3    0    0 -0.13372119220E+02  0.37913726808E+01  0.39685743677E+01  0.14454676130E+02  0.51100000000E-03 0.  1.
         12    1    3    3    0    0  0.12397363202E+02 -0.53142409755E+01 -0.16271952574E+01  0.13586152358E+02  0.00000000000E+00 0. -1.
</event>
<event>
 7    1  0.1350890E-011  0.5930195E+02  0.7816164E-02  0.1266605E+00
        -11   -1    0    0    0    0  0.00000000000E+00  0.00000000000E+00  0.45593999997E+02  0.45594000000E+02  0.51100000000E-03 0.  1.
         11   -1    0    0    0    0 -0.00000000000E+00 -0.00000000000E+00 -0.45593999997E+02  0.45594000000E+02  0.51100000000E-03 0. -1.
    9900012    2    1    2    0    0 -0.15386163995E+02 -0.16748670300E+02  0.22348783864E+02  0.59301950708E+02  0.50000012183E+02 0.  0.
        -12    1    1    2    0    0  0.15386163995E+02  0.16748670300E+02 -0.22348783864E+02  0.31886049292E+02  0.00000000000E+00 0.  1.
         11    1    3    3    0    0 -0.37617699225E+01 -0.20023301467E+01 -0.84363019996E+01  0.94515305986E+01  0.51100000000E-03 0. -1.
        -11    1    3    3    0    0  0.84929431416E+01  0.47086150877E+01  0.24294112752E+01  0.10010153778E+02  0.51100000000E-03 0.  1.
         12    1    3    3    0    0 -0.20117337214E+02 -0.19454955241E+02  0.28355674588E+02  0.39840266331E+02  0.00000000000E+00 0. -1.
</event>
<event>
 7    1  0.1335379E-011  0.5930193E+02  0.7816164E-02  0.1266605E+00
        -11   -1    0    0    0    0  0.00000000000E+00  0.00000000000E+00  0.45593999997E+02  0.45594000000E+02  0.51100000000E-03 0.  1.
         11   -1    0    0    0    0 -0.00000000000E+00 -0.00000000000E+00 -0.45593999997E+02  0.45594000000E+02  0.51100000000E-03 0. -1.
    9900012    2    1    2    0    0 -0.95845757688E+00 -0.28568719718E+02 -0.14129091241E+02  0.59301927702E+02  0.49999970226E+02 0.  0.
        -12    1    1    2    0    0  0.95845757688E+00  0.28568719718E+02  0.14129091241E+02  0.31886072298E+02  0.00000000000E+00 0.  1.
         11    1    3    3    0    0  0.99456413680E+01 -0.94193505227E+01 -0.25831506583E+02  0.29238787237E+02  0.51100000000E-03 0. -1.
        -11    1    3    3    0    0  0.93662055728E+00 -0.40308674509E+01 -0.36182705945E+01  0.54970021676E+01  0.51100000000E-03 0.  1.
        -12    1    3    3    0    0 -0.11840719502E+02 -0.15118501745E+02  0.15320685936E+02  0.24566138298E+02  0.00000000000E+00 0.  1.
</event>
<event>
 7    1  0.1335379E-011  0.5930194E+02  0.7816164E-02  0.1266605E+00
        -11   -1    0    0    0    0  0.00000000000E+00  0.00000000000E+00  0.45593999997E+02  0.45594000000E+02  0.51100000000E-03 0. -1.
         11   -1    0    0    0    0 -0.00000000000E+00 -0.00000000000E+00 -0.45593999997E+02  0.45594000000E+02  0.51100000000E-03 0.  1.
    9900012    2    1    2    0    0 -0.25747200494E+02 -0.18448707845E+02 -0.36670796161E+01  0.59301943057E+02  0.49999998230E+02 0.  0.
        -12    1    1    2    0    0  0.25747200494E+02  0.18448707845E+02  0.36670796161E+01  0.31886056943E+02  0.00000000000E+00 0.  1.
         11    1    3    3    0    0 -0.10522876534E+02 -0.13566767587E+02  0.87220946002E+01  0.19257804854E+02  0.51100000000E-03 0. -1.
        -11    1    3    3    0    0 -0.84688212220E+01 -0.18064534799E+02  0.11388183962E+01  0.19983624746E+02  0.51100000000E-03 0.  1.
        -12    1    3    3    0    0 -0.67555027380E+01  0.13182594541E+02 -0.13527992613E+02  0.20060513458E+02  0.00000000000E+00 0.  1.
</event>
<event>
 7    1  0.1335379E-011  0.5930194E+02  0.7816164E-02  0.1266605E+00
        -11   -1    0    0    0    0  0.00000000000E+00  0.00000000000E+00  0.45593999997E+02  0.45594000000E+02  0.51100000000E-03 0.  1.
         11   -1    0    0    0    0 -0.00000000000E+00 -0.00000000000E+00 -0.45593999997E+02  0.45594000000E+02  0.51100000000E-03 0. -1.
    9900012    2    1    2    0    0 -0.20252913504E+02 -0.50163440920E+01  0.24111752399E+02  0.59301940081E+02  0.49999992802E+02 0.  0.
        -12    1    1    2    0    0  0.20252913504E+02  0.50163440920E+01 -0.24111752399E+02  0.31886059919E+02  0.00000000000E+00 0.  1.
         11    1    3    3    0    0 -0.11261770305E+02  0.10391580553E+02  0.21942622419E+02  0.26763615146E+02  0.51100000000E-03 0. -1.
        -11    1    3    3    0    0 -0.72811085896E+01  0.36083869785E+01  0.91239168629E+01  0.12218054594E+02  0.51100000000E-03 0.  1.
        -12    1    3    3    0    0 -0.17100346089E+01 -0.19016311624E+02 -0.69547868829E+01  0.20320270341E+02  0.00000000000E+00 0.  1.
</event>
<event>
 7    1  0.1335379E-011  0.5930183E+02  0.7816164E-02  0.1266605E+00
        -11   -1    0    0    0    0  0.00000000000E+00  0.00000000000E+00  0.45593999997E+02  0.45594000000E+02  0.51100000000E-03 0.  1.
         11   -1    0    0    0    0 -0.00000000000E+00 -0.00000000000E+00 -0.45593999997E+02  0.45594000000E+02  0.51100000000E-03 0. -1.
    9900012    2    1    2    0    0 -0.16938006305E+02 -0.81418401788E+01 -0.25759314265E+02  0.59301829165E+02  0.49999790518E+02 0.  0.
        -12    1    1    2    0    0  0.16938006305E+02  0.81418401788E+01  0.25759314265E+02  0.31886170835E+02  0.00000000000E+00 0.  1.
         11    1    3    3    0    0 -0.40254150543E+00 -0.99652433259E+01 -0.12914238228E+02  0.16317035989E+02  0.51100000000E-03 0. -1.
        -11    1    3    3    0    0  0.76443151522E+00 -0.81392510840E+01  0.98225587893E+01  0.12779453243E+02  0.51100000000E-03 0.  1.
         12    1    3    3    0    0 -0.17299896315E+02  0.99626542311E+01 -0.22667634827E+02  0.30205339933E+02  0.00000000000E+00 0. -1.
</event>
<event>
 7    1  0.1335379E-011  0.5930193E+02  0.7816164E-02  0.1266605E+00
        -11   -1    0    0    0    0  0.00000000000E+00  0.00000000000E+00  0.45593999997E+02  0.45594000000E+02  0.51100000000E-03 0.  1.
         11   -1    0    0    0    0 -0.00000000000E+00 -0.00000000000E+00 -0.45593999997E+02  0.45594000000E+02  0.51100000000E-03 0. -1.
    9900012    2    1    2    0    0  0.15893207465E+01  0.24359498325E+02 -0.20513655251E+02  0.59301934849E+02  0.49999983260E+02 0.  0.
        -12    1    1    2    0    0 -0.15893207465E+01 -0.24359498325E+02  0.20513655251E+02  0.31886065151E+02  0.00000000000E+00 0.  1.
         11    1    3    3    0    0 -0.19157864972E+01  0.16157955229E+02  0.10712610125E+02  0.19481010524E+02  0.51100000000E-03 0. -1.
        -11    1    3    3    0    0  0.28072213234E+01  0.55617016462E+01  0.19534161263E+01  0.65290773915E+01  0.51100000000E-03 0.  1.
         12    1    3    3    0    0  0.69788592026E+00  0.26398414496E+01 -0.33179681502E+02  0.33291846933E+02  0.00000000000E+00 0. -1.
</event>
<event>
 7    1  0.1335379E-011  0.5930196E+02  0.7816164E-02  0.1266605E+00
        -11   -1    0    0    0    0  0.00000000000E+00  0.00000000000E+00  0.45593999997E+02  0.45594000000E+02  0.51100000000E-03 0.  1.
         11   -1    0    0    0    0 -0.00000000000E+00 -0.00000000000E+00 -0.45593999997E+02  0.45594000000E+02  0.51100000000E-03 0. -1.
    9900012    2    1    2    0    0 -0.58481115970E+01  0.29803536951E+02 -0.97091882689E+01  0.59301959781E+02  0.50000028730E+02 0.  0.
        -12    1    1    2    0    0  0.58481115970E+01 -0.29803536951E+02  0.97091882689E+01  0.31886040219E+02  0.00000000000E+00 0.  1.
         11    1    3    3    0    0  0.11521203338E+02 -0.21133022964E+01 -0.91516056283E+01  0.14864590771E+02  0.51100000000E-03 0. -1.
        -11    1    3    3    0    0 -0.19538244413E+02  0.14333599741E+02 -0.75647922438E+01  0.25385451705E+02  0.51100000000E-03 0.  1.
        -12    1    3    3    0    0  0.21689294785E+01  0.17583239506E+02  0.70072096032E+01  0.19051917306E+02  0.00000000000E+00 0.  1.
</event>
<event>
 7    1  0.1335379E-011  0.5930194E+02  0.7816164E-02  0.1266605E+00
        -11   -1    0    0    0    0  0.00000000000E+00  0.00000000000E+00  0.45593999997E+02  0.45594000000E+02  0.51100000000E-03 0.  1.
         11   -1    0    0    0    0 -0.00000000000E+00 -0.00000000000E+00 -0.45593999997E+02  0.45594000000E+02  0.51100000000E-03 0. -1.
    9900012    2    1    2    0    0  0.21867434286E+02  0.19160053332E+02  0.13093072357E+02  0.59301939257E+02  0.49999991299E+02 0.  0.
        -12    1    1    2    0    0 -0.21867434286E+02 -0.19160053332E+02 -0.13093072357E+02  0.31886060743E+02  0.00000000000E+00 0.  1.
         11    1    3    3    0    0  0.11765266376E+02  0.29894374351E+01  0.15618180040E+02  0.19780944798E+02  0.51100000000E-03 0. -1.
        -11    1    3    3    0    0  0.10730645340E+02 -0.10161555977E+00  0.13112670236E+02  0.16944001774E+02  0.51100000000E-03 0.  1.
         12    1    3    3    0    0 -0.62847742947E+00  0.16272231457E+02 -0.15637777919E+02  0.22576992685E+02  0.00000000000E+00 0. -1.
</event>
<event>
 7    1  0.1335379E-011  0.5930197E+02  0.7816164E-02  0.1266605E+00
        -11   -1    0    0    0    0  0.00000000000E+00  0.00000000000E+00  0.45593999997E+02  0.45594000000E+02  0.51100000000E-03 0. -1.
         11   -1    0    0    0    0 -0.00000000000E+00 -0.00000000000E+00 -0.45593999997E+02  0.45594000000E+02  0.51100000000E-03 0.  1.
    9900012    2    1    2    0    0  0.28692026293E+02  0.84952250994E+01 -0.11014440403E+02  0.59301966699E+02  0.50000041347E+02 0.  0.
        -12    1    1    2    0    0 -0.28692026293E+02 -0.84952250994E+01  0.11014440403E+02  0.31886033301E+02  0.00000000000E+00 0.  1.
         11    1    3    3    0    0 -0.21836983461E+01  0.81633645405E+01  0.51489950227E+01  0.98955145947E+01  0.51100000000E-03 0. -1.
        -11    1    3    3    0    0  0.46075624956E+01  0.10837697165E+02 -0.17488890612E+02  0.21084273928E+02  0.51100000000E-03 0.  1.
         12    1    3    3    0    0  0.26268162143E+02 -0.10505836606E+02  0.13254551859E+01  0.28322178176E+02  0.00000000000E+00 0. -1.
</event>
<event>
 7    1  0.1335379E-011  0.5930212E+02  0.7816164E-02  0.1266604E+00
        -11   -1    0    0    0    0  0.00000000000E+00  0.00000000000E+00  0.45593999997E+02  0.45594000000E+02  0.51100000000E-03 0. -1.
         11   -1    0    0    0    0 -0.00000000000E+00 -0.00000000000E+00 -0.45593999997E+02  0.45594000000E+02  0.51100000000E-03 0.  1.
    9900012    2    1    2    0    0 -0.19047490603E+02 -0.24765849657E+02  0.63682665190E+01  0.59302124977E+02  0.50000330007E+02 0.  0.
        -12    1    1    2    0    0  0.19047490603E+02  0.24765849657E+02 -0.63682665190E+01  0.31885875023E+02  0.00000000000E+00 0.  1.
         11    1    3    3    0    0  0.24599451319E+01  0.31512382006E+01  0.11413761123E+02  0.12093617138E+02  0.51100000000E-03 0. -1.
        -11    1    3    3    0    0 -0.21312538574E+01 -0.25591473740E+02  0.34753252303E+01  0.25914159391E+02  0.51100000000E-03 0.  1.
        -12    1    3    3    0    0 -0.19376181877E+02 -0.23256141176E+01 -0.85208198346E+01  0.21294348448E+02  0.00000000000E+00 0.  1.
</event>
<event>
 7    1  0.1335379E-011  0.5930195E+02  0.7816164E-02  0.1266605E+00
        -11   -1    0    0    0    0  0.00000000000E+00  0.00000000000E+00  0.45593999997E+02  0.45594000000E+02  0.51100000000E-03 0. -1.
         11   -1    0    0    0    0 -0.00000000000E+00 -0.00000000000E+00 -0.45593999997E+02  0.45594000000E+02  0.51100000000E-03 0.  1.
    9900012    2    1    2    0    0  0.25238368051E+02 -0.17167750741E+02  0.92202800778E+01  0.59301945805E+02  0.50000003241E+02 0.  0.
        -12    1    1    2    0    0 -0.25238368051E+02  0.17167750741E+02 -0.92202800778E+01  0.31886054195E+02  0.00000000000E+00 0.  1.
         11    1    3    3    0    0 -0.64384176399E+01 -0.13168408055E+02  0.83410551307E+01  0.16865153227E+02  0.51100000000E-03 0. -1.
        -11    1    3    3    0    0  0.11932706480E+02  0.15622626756E+01 -0.12965025975E+02  0.17689602805E+02  0.51100000000E-03 0.  1.
         12    1    3    3    0    0  0.19744079211E+02 -0.55616053618E+01  0.13844250922E+02  0.24747189773E+02  0.00000000000E+00 0. -1.
</event>
<event>
 7    1  0.1335379E-011  0.5930185E+02  0.7816164E-02  0.1266605E+00
        -11   -1    0    0    0    0  0.00000000000E+00  0.00000000000E+00  0.45593999997E+02  0.45594000000E+02  0.51100000000E-03 0. -1.
         11   -1    0    0    0    0 -0.00000000000E+00 -0.00000000000E+00 -0.45593999997E+02  0.45594000000E+02  0.51100000000E-03 0.  1.
    9900012    2    1    2    0    0 -0.23179751942E+02  0.21883540491E+02 -0.73223410728E+00  0.59301852360E+02  0.49999832820E+02 0.  0.
        -12    1    1    2    0    0  0.23179751942E+02 -0.21883540491E+02  0.73223410728E+00  0.31886147640E+02  0.00000000000E+00 0.  1.
         11    1    3    3    0    0 -0.10842145591E+02 -0.10129327557E+02  0.34048117057E+01  0.15223276283E+02  0.51100000000E-03 0. -1.
        -11    1    3    3    0    0 -0.73945046608E+01  0.78196624023E+01 -0.13853489549E+02  0.17542662062E+02  0.51100000000E-03 0.  1.
         12    1    3    3    0    0 -0.49431016901E+01  0.24193205646E+02  0.97164437362E+01  0.26535914015E+02  0.00000000000E+00 0. -1.
</event>
<event>
 7    1  0.1335379E-011  0.5930194E+02  0.7816164E-02  0.1266605E+00
        -11   -1    0    0    0    0  0.00000000000E+00  0.00000000000E+00  0.45593999997E+02  0.45594000000E+02  0.51100000000E-03 0.  1.
         11   -1    0    0    0    0 -0.00000000000E+00 -0.00000000000E+00 -0.45593999997E+02  0.45594000000E+02  0.51100000000E-03 0. -1.
    9900012    2    1    2    0    0  0.28740939195E+02  0.97780050866E+01  0.97503879056E+01  0.59301936687E+02  0.49999986612E+02 0.  0.
        -12    1    1    2    0    0 -0.28740939195E+02 -0.97780050866E+01 -0.97503879056E+01  0.31886063313E+02  0.00000000000E+00 0.  1.
         11    1    3    3    0    0 -0.58566397533E+01 -0.30107886503E+01  0.11093324059E+01  0.66780009092E+01  0.51100000000E-03 0. -1.
        -11    1    3    3    0    0 -0.19133571528E+01 -0.47925177203E+01 -0.74163808102E+01  0.90350354884E+01  0.51100000000E-03 0.  1.
        -12    1    3    3    0    0  0.36510936102E+02  0.17581311457E+02  0.16057436310E+02  0.43588900289E+02  0.00000000000E+00 0.  1.
</event>
<event>
 7    1  0.1335379E-011  0.5930192E+02  0.7816164E-02  0.1266605E+00
        -11   -1    0    0    0    0  0.00000000000E+00  0.00000000000E+00  0.45593999997E+02  0.45594000000E+02  0.51100000000E-03 0.  1.
         11   -1    0    0    0    0 -0.00000000000E+00 -0.00000000000E+00 -0.45593999997E+02  0.45594000000E+02  0.51100000000E-03 0. -1.
    9900012    2    1    2    0    0  0.21356309874E+02  0.13031186637E+02 -0.19769120426E+02  0.59301922803E+02  0.49999961292E+02 0.  0.
        -12    1    1    2    0    0 -0.21356309874E+02 -0.13031186637E+02  0.19769120426E+02  0.31886077197E+02  0.00000000000E+00 0.  1.
         11    1    3    3    0    0  0.15814412605E+02  0.27011480208E+01 -0.30475457190E+02  0.34440460767E+02  0.51100000000E-03 0. -1.
        -11    1    3    3    0    0  0.10879325463E+02  0.49229766189E+00  0.30793137911E+01  0.11317431387E+02  0.51100000000E-03 0.  1.
        -12    1    3    3    0    0 -0.53374281933E+01  0.98377409542E+01  0.76270229731E+01  0.13544030649E+02  0.00000000000E+00 0.  1.
</event>
<event>
 7    1  0.1335379E-011  0.5930190E+02  0.7816164E-02  0.1266605E+00
        -11   -1    0    0    0    0  0.00000000000E+00  0.00000000000E+00  0.45593999997E+02  0.45594000000E+02  0.51100000000E-03 0.  1.
         11   -1    0    0    0    0 -0.00000000000E+00 -0.00000000000E+00 -0.45593999997E+02  0.45594000000E+02  0.51100000000E-03 0. -1.
    9900012    2    1    2    0    0  0.98901425004E+01  0.15522832376E+02 -0.26037474870E+02  0.59301900501E+02  0.49999920618E+02 0.  0.
        -12    1    1    2    0    0 -0.98901425004E+01 -0.15522832376E+02  0.26037474870E+02  0.31886099499E+02  0.00000000000E+00 0.  1.
         11    1    3    3    0    0  0.18452742740E+02  0.41009490101E+01 -0.65813424239E+01  0.20015882837E+02  0.51100000000E-03 0. -1.
        -11    1    3    3    0    0 -0.66208572170E+00  0.19753805969E+01 -0.25488221366E+02  0.25573226521E+02  0.51100000000E-03 0.  1.
        -12    1    3    3    0    0 -0.79005145175E+01  0.94465027685E+01  0.60320889199E+01  0.13712791143E+02  0.00000000000E+00 0.  1.
</event>
<event>
 7    1  0.1335379E-011  0.5930188E+02  0.7816164E-02  0.1266605E+00
        -11   -1    0    0    0    0  0.00000000000E+00  0.00000000000E+00  0.45593999997E+02  0.45594000000E+02  0.51100000000E-03 0.  1.
         11   -1    0    0    0    0 -0.00000000000E+00 -0.00000000000E+00 -0.45593999997E+02  0.45594000000E+02  0.51100000000E-03 0. -1.
    9900012    2    1    2    0    0  0.29468514567E+02 -0.29578721945E+01 -0.11814495221E+02  0.59301879885E+02  0.49999883018E+02 0.  0.
        -12    1    1    2    0    0 -0.29468514567E+02  0.29578721945E+01  0.11814495221E+02  0.31886120115E+02  0.00000000000E+00 0.  1.
         11    1    3    3    0    0 -0.86964241325E+01 -0.66931291107E+01 -0.51844701448E+00  0.10986107480E+02  0.51100000000E-03 0. -1.
        -11    1    3    3    0    0  0.11559747684E+02  0.78678290597E+01  0.71241292575E+01  0.15693429153E+02  0.51100000000E-03 0.  1.
        -12    1    3    3    0    0  0.26605191015E+02 -0.41325721435E+01 -0.18420177464E+02  0.32622343252E+02  0.00000000000E+00 0.  1.
</event>
<event>
 7    1  0.1335379E-011  0.5930194E+02  0.7816164E-02  0.1266605E+00
        -11   -1    0    0    0    0  0.00000000000E+00  0.00000000000E+00  0.45593999997E+02  0.45594000000E+02  0.51100000000E-03 0. -1.
         11   -1    0    0    0    0 -0.00000000000E+00 -0.00000000000E+00 -0.45593999997E+02  0.45594000000E+02  0.51100000000E-03 0.  1.
    9900012    2    1    2    0    0  0.76766038642E+00 -0.31644759346E+02 -0.38393395200E+01  0.59301943102E+02  0.49999998312E+02 0.  0.
        -12    1    1    2    0    0 -0.76766038642E+00  0.31644759346E+02  0.38393395200E+01  0.31886056898E+02  0.00000000000E+00 0.  1.
         11    1    3    3    0    0  0.96180886397E+01  0.29631278892E+01  0.15269000912E+01  0.10179350673E+02  0.51100000000E-03 0. -1.
        -11    1    3    3    0    0 -0.11303809172E+02 -0.81241617670E+01 -0.15342138564E+02  0.20716160894E+02  0.51100000000E-03 0.  1.
         12    1    3    3    0    0  0.24533809183E+01 -0.26483725469E+02  0.99758989532E+01  0.28406431535E+02  0.00000000000E+00 0. -1.
</event>
<event>
 7    1  0.1335379E-011  0.5930196E+02  0.7816164E-02  0.1266605E+00
        -11   -1    0    0    0    0  0.00000000000E+00  0.00000000000E+00  0.45593999997E+02  0.45594000000E+02  0.51100000000E-03 0.  1.
         11   -1    0    0    0    0 -0.00000000000E+00 -0.00000000000E+00 -0.45593999997E+02  0.45594000000E+02  0.51100000000E-03 0. -1.
    9900012    2    1    2    0    0  0.26798125132E+02 -0.73990212185E+01  0.15615210113E+02  0.59301955835E+02  0.50000021534E+02 0.  0.
        -12    1    1    2    0    0 -0.26798125132E+02  0.73990212185E+01 -0.15615210113E+02  0.31886044165E+02  0.00000000000E+00 0.  1.
         11    1    3    3    0    0  0.29050410349E+02 -0.95309385821E+01  0.99862931981E+01  0.32163507019E+02  0.51100000000E-03 0. -1.
        -11    1    3    3    0    0  0.63148621691E+00 -0.50803391550E+01  0.14482409922E+02  0.15360625579E+02  0.51100000000E-03 0.  1.
         12    1    3    3    0    0 -0.28837714336E+01  0.72122565186E+01 -0.88534930070E+01  0.11777823237E+02  0.00000000000E+00 0. -1.
</event>
<event>
 7    1  0.1335379E-011  0.5930195E+02  0.7816164E-02  0.1266605E+00
        -11   -1    0    0    0    0  0.00000000000E+00  0.00000000000E+00  0.45593999997E+02  0.45594000000E+02  0.51100000000E-03 0. -1.
         11   -1    0    0    0    0 -0.00000000000E+00 -0.00000000000E+00 -0.45593999997E+02  0.45594000000E+02  0.51100000000E-03 0.  1.
    9900012    2    1    2    0    0  0.10885238409E+02  0.69467929387E+01  0.29154307120E+02  0.59301953349E+02  0.50000017000E+02 0.  0.
        -12    1    1    2    0    0 -0.10885238409E+02 -0.69467929387E+01 -0.29154307120E+02  0.31886046651E+02  0.00000000000E+00 0.  1.
         11    1    3    3    0    0  0.39170890444E+01 -0.76523602420E+01  0.17800367457E+02  0.19767531098E+02  0.51100000000E-03 0. -1.
        -11    1    3    3    0    0 -0.99703619188E+01 -0.50174272986E+01  0.72093685366E+01  0.13287501212E+02  0.51100000000E-03 0.  1.
        -12    1    3    3    0    0  0.16938511284E+02  0.19616580479E+02  0.41445711265E+01  0.26246921039E+02  0.00000000000E+00 0.  1.
</event>
<event>
 7    1  0.1335379E-011  0.5930201E+02  0.7816164E-02  0.1266605E+00
        -11   -1    0    0    0    0  0.00000000000E+00  0.00000000000E+00  0.45593999997E+02  0.45594000000E+02  0.51100000000E-03 0.  1.
         11   -1    0    0    0    0 -0.00000000000E+00 -0.00000000000E+00 -0.45593999997E+02  0.45594000000E+02  0.51100000000E-03 0. -1.
    9900012    2    1    2    0    0  0.77389856732E+01  0.30932469166E+02  0.81271503437E-01  0.59302013219E+02  0.50000126189E+02 0.  0.
        -12    1    1    2    0    0 -0.77389856732E+01 -0.30932469166E+02 -0.81271503437E-01  0.31885986781E+02  0.00000000000E+00 0.  1.
         11    1    3    3    0    0  0.96836938893E+01  0.76732510775E+01 -0.14998323804E+02  0.19431994921E+02  0.51100000000E-03 0. -1.
        -11    1    3    3    0    0 -0.13864872169E+02  0.15239312837E+02  0.24625031901E+01  0.20749343562E+02  0.51100000000E-03 0.  1.
        -12    1    3    3    0    0  0.11920163953E+02  0.80199052505E+01  0.12617092117E+02  0.19120674736E+02  0.00000000000E+00 0.  1.
</event>
<event>
 7    1  0.1335379E-011  0.5930194E+02  0.7816164E-02  0.1266605E+00
        -11   -1    0    0    0    0  0.00000000000E+00  0.00000000000E+00  0.45593999997E+02  0.45594000000E+02  0.51100000000E-03 0. -1.
         11   -1    0    0    0    0 -0.00000000000E+00 -0.00000000000E+00 -0.45593999997E+02  0.45594000000E+02  0.51100000000E-03 0.  1.
    9900012    2    1    2    0    0  0.12958873905E+02 -0.29061966418E+02 -0.20470989617E+01  0.59301938483E+02  0.49999989887E+02 0.  0.
        -12    1    1    2    0    0 -0.12958873905E+02  0.29061966418E+02  0.20470989617E+01  0.31886061517E+02  0.00000000000E+00 0.  1.
         11    1    3    3    0    0  0.74805675302E+01 -0.15992569752E+02 -0.67213107194E+01  0.18891722947E+02  0.51100000000E-03 0. -1.
        -11    1    3    3    0    0  0.55671532397E+00  0.62444766306E+01 -0.12575229134E+02  0.14051327638E+02  0.51100000000E-03 0.  1.
         12    1    3    3    0    0  0.49215910503E+01 -0.19313873296E+02  0.17249440892E+02  0.26358887898E+02  0.00000000000E+00 0. -1.
</event>
<event>
 7    1  0.1335379E-011  0.5930195E+02  0.7816164E-02  0.1266605E+00
        -11   -1    0    0    0    0  0.00000000000E+00  0.00000000000E+00  0.45593999997E+02  0.45594000000E+02  0.51100000000E-03 0.  1.
         11   -1    0    0    0    0 -0.00000000000E+00 -0.00000000000E+00 -0.45593999997E+02  0.45594000000E+02  0.51100000000E-03 0. -1.
    9900012    2    1    2    0    0  0.13509480361E+02  0.17226165508E+02 -0.23183467081E+02  0.59301953151E+02  0.50000016639E+02 0.  0.
        -12    1    1    2    0    0 -0.13509480361E+02 -0.17226165508E+02  0.23183467081E+02  0.31886046849E+02  0.00000000000E+00 0.  1.
         11    1    3    3    0    0  0.25700756694E+02  0.98558374914E+01 -0.75687119081E+00  0.27536145002E+02  0.51100000000E-03 0.  1.
        -11    1    3    3    0    0 -0.17963688322E+01  0.11154368945E+02 -0.95822499725E+01  0.14814398480E+02  0.51100000000E-03 0. -1.
        -12    1    3    3    0    0 -0.10394907501E+02 -0.37840409281E+01 -0.12844345918E+02  0.16951409669E+02  0.00000000000E+00 0.  1.
</event>
<event>
 7    1  0.1335379E-011  0.5930187E+02  0.7816164E-02  0.1266605E+00
        -11   -1    0    0    0    0  0.00000000000E+00  0.00000000000E+00  0.45593999997E+02  0.45594000000E+02  0.51100000000E-03 0.  1.
         11   -1    0    0    0    0 -0.00000000000E+00 -0.00000000000E+00 -0.45593999997E+02  0.45594000000E+02  0.51100000000E-03 0. -1.
    9900012    2    1    2    0    0 -0.18294448135E+02 -0.15188966796E+02 -0.21244613848E+02  0.59301871943E+02  0.49999868534E+02 0.  0.
        -12    1    1    2    0    0  0.18294448135E+02  0.15188966796E+02  0.21244613848E+02  0.31886128057E+02  0.00000000000E+00 0.  1.
         11    1    3    3    0    0  0.52622345543E+01 -0.67793594364E+01 -0.21616124790E+01  0.88500506012E+01  0.51100000000E-03 0. -1.
        -11    1    3    3    0    0  0.63803379205E-01  0.24519400372E+01  0.10665513582E+02  0.10943914338E+02  0.51100000000E-03 0.  1.
        -12    1    3    3    0    0 -0.23620486069E+02 -0.10861547397E+02 -0.29748514951E+02  0.39507907003E+02  0.00000000000E+00 0.  1.
</event>
<event>
 7    1  0.1335379E-011  0.5930195E+02  0.7816164E-02  0.1266605E+00
        -11   -1    0    0    0    0  0.00000000000E+00  0.00000000000E+00  0.45593999997E+02  0.45594000000E+02  0.51100000000E-03 0. -1.
         11   -1    0    0    0    0 -0.00000000000E+00 -0.00000000000E+00 -0.45593999997E+02  0.45594000000E+02  0.51100000000E-03 0.  1.
    9900012    2    1    2    0    0  0.79141168587E+00  0.26142168620E+02  0.18239544526E+02  0.59301948236E+02  0.50000007674E+02 0.  0.
        -12    1    1    2    0    0 -0.79141168587E+00 -0.26142168620E+02 -0.18239544526E+02  0.31886051764E+02  0.00000000000E+00 0.  1.
         11    1    3    3    0    0 -0.39019683361E+01  0.11123821700E+02  0.13930934303E+02  0.18249265654E+02  0.51100000000E-03 0. -1.
        -11    1    3    3    0    0 -0.70532883354E+01  0.15447215434E+02  0.16809072578E+02  0.23893728512E+02  0.51100000000E-03 0.  1.
        -12    1    3    3    0    0  0.11746668357E+02 -0.42886851470E+00 -0.12500462354E+02  0.17158954070E+02  0.00000000000E+00 0.  1.
</event>
<event>
 7    1  0.1335379E-011  0.5930195E+02  0.7816164E-02  0.1266605E+00
        -11   -1    0    0    0    0  0.00000000000E+00  0.00000000000E+00  0.45593999997E+02  0.45594000000E+02  0.51100000000E-03 0.  1.
         11   -1    0    0    0    0 -0.00000000000E+00 -0.00000000000E+00 -0.45593999997E+02  0.45594000000E+02  0.51100000000E-03 0. -1.
    9900012    2    1    2    0    0 -0.26162269572E+02 -0.13914635377E+02 -0.11774502860E+02  0.59301947494E+02  0.50000006321E+02 0.  0.
        -12    1    1    2    0    0  0.26162269572E+02  0.13914635377E+02  0.11774502860E+02  0.31886052506E+02  0.00000000000E+00 0.  1.
         11    1    3    3    0    0 -0.38944454601E+01 -0.26486284887E+01 -0.29605973545E+01  0.55630095514E+01  0.51100000000E-03 0. -1.
        -11    1    3    3    0    0 -0.28520965433E+02  0.78016561388E+01 -0.14428757381E+02  0.32901373034E+02  0.51100000000E-03 0.  1.
        -12    1    3    3    0    0  0.62531413209E+01 -0.19067663027E+02  0.56148518754E+01  0.20837564908E+02  0.00000000000E+00 0.  1.
</event>
<event>
 7    1  0.1335379E-011  0.5930194E+02  0.7816164E-02  0.1266605E+00
        -11   -1    0    0    0    0  0.00000000000E+00  0.00000000000E+00  0.45593999997E+02  0.45594000000E+02  0.51100000000E-03 0. -1.
         11   -1    0    0    0    0 -0.00000000000E+00 -0.00000000000E+00 -0.45593999997E+02  0.45594000000E+02  0.51100000000E-03 0.  1.
    9900012    2    1    2    0    0 -0.13414149562E+02 -0.16464186330E+02  0.23784707190E+02  0.59301935080E+02  0.49999983682E+02 0.  0.
        -12    1    1    2    0    0  0.13414149562E+02  0.16464186330E+02 -0.23784707190E+02  0.31886064920E+02  0.00000000000E+00 0.  1.
         11    1    3    3    0    0  0.30830157608E+01 -0.13734134179E+02  0.52147848248E+01  0.15010843043E+02  0.51100000000E-03 0.  1.
        -11    1    3    3    0    0  0.66706229067E+01  0.77834923099E+00 -0.69367919588E+01  0.96551603006E+01  0.51100000000E-03 0. -1.
         12    1    3    3    0    0 -0.23167788229E+02 -0.35084013820E+01  0.25506714324E+02  0.34635931737E+02  0.00000000000E+00 0. -1.
</event>
<event>
 7    1  0.1335379E-011  0.5930195E+02  0.7816164E-02  0.1266605E+00
        -11   -1    0    0    0    0  0.00000000000E+00  0.00000000000E+00  0.45593999997E+02  0.45594000000E+02  0.51100000000E-03 0. -1.
         11   -1    0    0    0    0 -0.00000000000E+00 -0.00000000000E+00 -0.45593999997E+02  0.45594000000E+02  0.51100000000E-03 0.  1.
    9900012    2    1    2    0    0 -0.61540815249E+00 -0.28901821840E+02  0.13454591440E+02  0.59301951896E+02  0.50000014349E+02 0.  0.
        -12    1    1    2    0    0  0.61540815249E+00  0.28901821840E+02 -0.13454591440E+02  0.31886048104E+02  0.00000000000E+00 0.  1.
         11    1    3    3    0    0  0.87338511752E+01 -0.20256933204E+02  0.57243903853E+01  0.22790176496E+02  0.51100000000E-03 0. -1.
        -11    1    3    3    0    0  0.32167751137E+01 -0.10867287834E+02 -0.96944556980E+01  0.14914022212E+02  0.51100000000E-03 0.  1.
         12    1    3    3    0    0 -0.12566034441E+02  0.22223991975E+01  0.17424656753E+02  0.21597753187E+02  0.00000000000E+00 0. -1.
</event>
<event>
 7    1  0.1335379E-011  0.5930197E+02  0.7816164E-02  0.1266605E+00
        -11   -1    0    0    0    0  0.00000000000E+00  0.00000000000E+00  0.45593999997E+02  0.45594000000E+02  0.51100000000E-03 0.  1.
         11   -1    0    0    0    0 -0.00000000000E+00 -0.00000000000E+00 -0.45593999997E+02  0.45594000000E+02  0.51100000000E-03 0. -1.
    9900012    2    1    2    0    0 -0.73463329407E+01 -0.23964326027E+02  0.19709427719E+02  0.59301967469E+02  0.50000042751E+02 0.  0.
        -12    1    1    2    0    0  0.73463329407E+01  0.23964326027E+02 -0.19709427719E+02  0.31886032531E+02  0.00000000000E+00 0.  1.
         11    1    3    3    0    0 -0.32507204108E+01 -0.16316464136E+02  0.24148703100E+02  0.29324973091E+02  0.51100000000E-03 0. -1.
        -11    1    3    3    0    0 -0.80449554432E+01 -0.72063710631E+01  0.10171039955E+02  0.14835873618E+02  0.51100000000E-03 0.  1.
         12    1    3    3    0    0  0.39493429133E+01 -0.44149082700E+00 -0.14610315337E+02  0.15141120759E+02  0.00000000000E+00 0. -1.
</event>
<event>
 7    1  0.1335379E-011  0.5930194E+02  0.7816164E-02  0.1266605E+00
        -11   -1    0    0    0    0  0.00000000000E+00  0.00000000000E+00  0.45593999997E+02  0.45594000000E+02  0.51100000000E-03 0. -1.
         11   -1    0    0    0    0 -0.00000000000E+00 -0.00000000000E+00 -0.45593999997E+02  0.45594000000E+02  0.51100000000E-03 0.  1.
    9900012    2    1    2    0    0 -0.28757288600E+02 -0.10869507072E+02  0.84612571081E+01  0.59301941864E+02  0.49999996054E+02 0.  0.
        -12    1    1    2    0    0  0.28757288600E+02  0.10869507072E+02 -0.84612571081E+01  0.31886058136E+02  0.00000000000E+00 0.  1.
         11    1    3    3    0    0 -0.10074135217E+02 -0.86622411853E+01  0.10131583472E+01  0.13324755638E+02  0.51100000000E-03 0. -1.
        -11    1    3    3    0    0 -0.21274228338E+02  0.79446528056E+01 -0.10636475843E+02  0.25076780460E+02  0.51100000000E-03 0.  1.
         12    1    3    3    0    0  0.25910749555E+01 -0.10151918692E+02  0.18084574604E+02  0.20900405766E+02  0.00000000000E+00 0. -1.
</event>
<event>
 7    1  0.1335379E-011  0.5930194E+02  0.7816164E-02  0.1266605E+00
        -11   -1    0    0    0    0  0.00000000000E+00  0.00000000000E+00  0.45593999997E+02  0.45594000000E+02  0.51100000000E-03 0.  1.
         11   -1    0    0    0    0 -0.00000000000E+00 -0.00000000000E+00 -0.45593999997E+02  0.45594000000E+02  0.51100000000E-03 0. -1.
    9900012    2    1    2    0    0 -0.59910700204E+01 -0.31318009566E+02  0.99664738604E-01  0.59301943859E+02  0.49999999691E+02 0.  0.
        -12    1    1    2    0    0  0.59910700204E+01  0.31318009566E+02 -0.99664738604E-01  0.31886056141E+02  0.00000000000E+00 0.  1.
         11    1    3    3    0    0  0.32210143667E+01 -0.67580485435E+01 -0.11062974948E+01  0.75676976733E+01  0.51100000000E-03 0.  1.
        -11    1    3    3    0    0  0.76446844813E+01  0.85591196860E+01 -0.73131389769E+01  0.13608149491E+02  0.51100000000E-03 0. -1.
         12    1    3    3    0    0 -0.16856768868E+02 -0.33119080709E+02  0.85191012104E+01  0.38126096694E+02  0.00000000000E+00 0. -1.
</event>
<event>
 7    1  0.1335379E-011  0.5930198E+02  0.7816164E-02  0.1266605E+00
        -11   -1    0    0    0    0  0.00000000000E+00  0.00000000000E+00  0.45593999997E+02  0.45594000000E+02  0.51100000000E-03 0.  1.
         11   -1    0    0    0    0 -0.00000000000E+00 -0.00000000000E+00 -0.45593999997E+02  0.45594000000E+02  0.51100000000E-03 0. -1.
    9900012    2    1    2    0    0  0.15807488423E+02  0.26626213813E+02 -0.76083244677E+01  0.59301975578E+02  0.50000057539E+02 0.  0.
        -12    1    1    2    0    0 -0.15807488423E+02 -0.26626213813E+02  0.76083244677E+01  0.31886024422E+02  0.00000000000E+00 0.  1.
         11    1    3    3    0    0 -0.16537302689E+01 -0.41525370648E+01  0.40161856706E+01  0.60090045330E+01  0.51100000000E-03 0. -1.
        -11    1    3    3    0    0 -0.87415325411E+01  0.53192765966E+01  0.68888295603E+01  0.12335520567E+02  0.51100000000E-03 0.  1.
         12    1    3    3    0    0  0.26202751233E+02  0.25459474281E+02 -0.18513339699E+02  0.40957450478E+02  0.00000000000E+00 0. -1.
</event>
<event>
 7    1  0.1335379E-011  0.5930193E+02  0.7816164E-02  0.1266605E+00
        -11   -1    0    0    0    0  0.00000000000E+00  0.00000000000E+00  0.45593999997E+02  0.45594000000E+02  0.51100000000E-03 0.  1.
         11   -1    0    0    0    0 -0.00000000000E+00 -0.00000000000E+00 -0.45593999997E+02  0.45594000000E+02  0.51100000000E-03 0. -1.
    9900012    2    1    2    0    0 -0.19795723563E+02 -0.18809466859E+02 -0.16463732269E+02  0.59301934154E+02  0.49999981993E+02 0.  0.
        -12    1    1    2    0    0  0.19795723563E+02  0.18809466859E+02  0.16463732269E+02  0.31886065846E+02  0.00000000000E+00 0.  1.
         11    1    3    3    0    0  0.16759381285E+01  0.46537956624E+00 -0.27669156037E+01  0.32682057723E+01  0.51100000000E-03 0. -1.
        -11    1    3    3    0    0 -0.78753847258E+01  0.63859215405E+01 -0.23329577326E+02  0.25437587483E+02  0.51100000000E-03 0.  1.
         12    1    3    3    0    0 -0.13596276966E+02 -0.25660767966E+02  0.96327606606E+01  0.30596140899E+02  0.00000000000E+00 0. -1.
</event>
<event>
 7    1  0.1335379E-011  0.5930193E+02  0.7816164E-02  0.1266605E+00
        -11   -1    0    0    0    0  0.00000000000E+00  0.00000000000E+00  0.45593999997E+02  0.45594000000E+02  0.51100000000E-03 0.  1.
         11   -1    0    0    0    0 -0.00000000000E+00 -0.00000000000E+00 -0.45593999997E+02  0.45594000000E+02  0.51100000000E-03 0. -1.
    9900012    2    1    2    0    0 -0.24738209587E+02 -0.17824704803E+02 -0.93285615219E+01  0.59301934471E+02  0.49999982570E+02 0.  0.
        -12    1    1    2    0    0  0.24738209587E+02  0.17824704803E+02  0.93285615219E+01  0.31886065529E+02  0.00000000000E+00 0.  1.
         11    1    3    3    0    0 -0.22751141668E+02 -0.15258734528E+02 -0.52949130559E+01  0.27901246050E+02  0.51100000000E-03 0. -1.
        -11    1    3    3    0    0 -0.13305305592E+02 -0.24656297249E+01 -0.11568965828E+02  0.17803130551E+02  0.51100000000E-03 0.  1.
        -12    1    3    3    0    0  0.11318237673E+02 -0.10034054983E+00  0.75353173621E+01  0.13597557869E+02  0.00000000000E+00 0.  1.
</event>
<event>
 7    1  0.1335379E-011  0.5930193E+02  0.7816164E-02  0.1266605E+00
        -11   -1    0    0    0    0  0.00000000000E+00  0.00000000000E+00  0.45593999997E+02  0.45594000000E+02  0.51100000000E-03 0. -1.
         11   -1    0    0    0    0 -0.00000000000E+00 -0.00000000000E+00 -0.45593999997E+02  0.45594000000E+02  0.51100000000E-03 0.  1.
    9900012    2    1    2    0    0 -0.17302971138E+02  0.12509252422E+02  0.23682207867E+02  0.59301934457E+02  0.49999982546E+02 0.  0.
        -12    1    1    2    0    0  0.17302971138E+02 -0.12509252422E+02 -0.23682207867E+02  0.31886065543E+02  0.00000000000E+00 0.  1.
         11    1    3    3    0    0 -0.18558687439E+02  0.35178738333E+01  0.42458008193E+01  0.19360453007E+02  0.51100000000E-03 0. -1.
        -11    1    3    3    0    0 -0.39067732404E+01 -0.82297258194E+01 -0.43743626287E+01  0.10105756423E+02  0.51100000000E-03 0.  1.
        -12    1    3    3    0    0  0.51624895421E+01  0.17221104408E+02  0.23810769676E+02  0.29835725027E+02  0.00000000000E+00 0.  1.
</event>
<event>
 7    1  0.1335379E-011  0.5930190E+02  0.7816164E-02  0.1266605E+00
        -11   -1    0    0    0    0  0.00000000000E+00  0.00000000000E+00  0.45593999997E+02  0.45594000000E+02  0.51100000000E-03 0. -1.
         11   -1    0    0    0    0 -0.00000000000E+00 -0.00000000000E+00 -0.45593999997E+02  0.45594000000E+02  0.51100000000E-03 0.  1.
    9900012    2    1    2    0    0 -0.23510106462E+02  0.10238888340E+02  0.18951601404E+02  0.59301903718E+02  0.49999926486E+02 0.  0.
        -12    1    1    2    0    0  0.23510106462E+02 -0.10238888340E+02 -0.18951601404E+02  0.31886096282E+02  0.00000000000E+00 0.  1.
         11    1    3    3    0    0  0.20316282802E+01 -0.74235160553E+01  0.31736631143E+01  0.83251571707E+01  0.51100000000E-03 0. -1.
        -11    1    3    3    0    0 -0.21114316891E+02  0.10906243454E+02 -0.86174266915E+01  0.25278856128E+02  0.51100000000E-03 0.  1.
         12    1    3    3    0    0 -0.44274178508E+01  0.67561609414E+01  0.24395364981E+02  0.25697890420E+02  0.00000000000E+00 0. -1.
</event>
<event>
 7    1  0.1335379E-011  0.5930193E+02  0.7816164E-02  0.1266605E+00
        -11   -1    0    0    0    0  0.00000000000E+00  0.00000000000E+00  0.45593999997E+02  0.45594000000E+02  0.51100000000E-03 0. -1.
         11   -1    0    0    0    0 -0.00000000000E+00 -0.00000000000E+00 -0.45593999997E+02  0.45594000000E+02  0.51100000000E-03 0.  1.
    9900012    2    1    2    0    0 -0.10506779903E+02 -0.28209811854E+02 -0.10513583550E+02  0.59301931760E+02  0.49999977626E+02 0.  0.
        -12    1    1    2    0    0  0.10506779903E+02  0.28209811854E+02  0.10513583550E+02  0.31886068240E+02  0.00000000000E+00 0.  1.
         11    1    3    3    0    0 -0.62087763782E+01  0.63280167381E+01 -0.10301092384E+02  0.13590629291E+02  0.51100000000E-03 0. -1.
        -11    1    3    3    0    0  0.12731400784E+02 -0.14813461770E+02 -0.17256062035E+01  0.19608797326E+02  0.51100000000E-03 0.  1.
         12    1    3    3    0    0 -0.17029404308E+02 -0.19724366822E+02  0.15131150370E+01  0.26102505143E+02  0.00000000000E+00 0. -1.
</event>
<event>
 7    1  0.1335379E-011  0.5930199E+02  0.7816164E-02  0.1266605E+00
        -11   -1    0    0    0    0  0.00000000000E+00  0.00000000000E+00  0.45593999997E+02  0.45594000000E+02  0.51100000000E-03 0. -1.
         11   -1    0    0    0    0 -0.00000000000E+00 -0.00000000000E+00 -0.45593999997E+02  0.45594000000E+02  0.51100000000E-03 0.  1.
    9900012    2    1    2    0    0  0.42173548519E+01 -0.31416851238E+02 -0.34515669515E+01  0.59301985227E+02  0.50000075138E+02 0.  0.
        -12    1    1    2    0    0 -0.42173548519E+01  0.31416851238E+02  0.34515669515E+01  0.31886014773E+02  0.00000000000E+00 0.  1.
         11    1    3    3    0    0  0.10588765507E+02 -0.14629579860E+02 -0.29522024467E+01  0.18299236634E+02  0.51100000000E-03 0. -1.
        -11    1    3    3    0    0  0.39644677454E+01  0.76097521752E+01 -0.97038403797E+01  0.12953372188E+02  0.51100000000E-03 0.  1.
         12    1    3    3    0    0 -0.10335878401E+02 -0.24397023553E+02  0.92044758749E+01  0.28049376405E+02  0.00000000000E+00 0. -1.
</event>
<event>
 7    1  0.1335379E-011  0.5930194E+02  0.7816164E-02  0.1266605E+00
        -11   -1    0    0    0    0  0.00000000000E+00  0.00000000000E+00  0.45593999997E+02  0.45594000000E+02  0.51100000000E-03 0.  1.
         11   -1    0    0    0    0 -0.00000000000E+00 -0.00000000000E+00 -0.45593999997E+02  0.45594000000E+02  0.51100000000E-03 0. -1.
    9900012    2    1    2    0    0 -0.67087434042E+01 -0.29183487399E+02 -0.10956177991E+02  0.59301937042E+02  0.49999987259E+02 0.  0.
        -12    1    1    2    0    0  0.67087434042E+01  0.29183487399E+02  0.10956177991E+02  0.31886062958E+02  0.00000000000E+00 0.  1.
         11    1    3    3    0    0  0.25659648909E+01 -0.16857657828E+02 -0.17648637015E+00  0.17052740277E+02  0.51100000000E-03 0. -1.
        -11    1    3    3    0    0 -0.21553728369E+02 -0.14796745231E+02 -0.66915070932E+00  0.26152526435E+02  0.51100000000E-03 0.  1.
         12    1    3    3    0    0  0.12279020074E+02  0.24709156596E+01 -0.10110540912E+02  0.16096670329E+02  0.00000000000E+00 0. -1.
</event>
<event>
 7    1  0.1335379E-011  0.5930199E+02  0.7816164E-02  0.1266605E+00
        -11   -1    0    0    0    0  0.00000000000E+00  0.00000000000E+00  0.45593999997E+02  0.45594000000E+02  0.51100000000E-03 0.  1.
         11   -1    0    0    0    0 -0.00000000000E+00 -0.00000000000E+00 -0.45593999997E+02  0.45594000000E+02  0.51100000000E-03 0. -1.
    9900012    2    1    2    0    0  0.27964496318E+01 -0.31668243269E+02  0.24535251961E+01  0.59301991342E+02  0.50000086290E+02 0.  0.
        -12    1    1    2    0    0 -0.27964496318E+01  0.31668243269E+02 -0.24535251961E+01  0.31886008658E+02  0.00000000000E+00 0.  1.
         11    1    3    3    0    0 -0.37808887742E+01  0.28207409897E+01 -0.53499929082E+01  0.71326099034E+01  0.51100000000E-03 0. -1.
        -11    1    3    3    0    0 -0.73468368795E+01  0.48110889741E+01 -0.26724331212E+01  0.91795690693E+01  0.51100000000E-03 0.  1.
        -12    1    3    3    0    0  0.13924175285E+02 -0.39300073232E+02  0.10475951226E+02  0.42989812369E+02  0.00000000000E+00 0.  1.
</event>
<event>
 7    1  0.1335379E-011  0.5930194E+02  0.7816164E-02  0.1266605E+00
        -11   -1    0    0    0    0  0.00000000000E+00  0.00000000000E+00  0.45593999997E+02  0.45594000000E+02  0.51100000000E-03 0.  1.
         11   -1    0    0    0    0 -0.00000000000E+00 -0.00000000000E+00 -0.45593999997E+02  0.45594000000E+02  0.51100000000E-03 0. -1.
    9900012    2    1    2    0    0 -0.17196566682E+02 -0.26744910692E+02  0.23893241916E+01  0.59301936843E+02  0.49999986897E+02 0.  0.
        -12    1    1    2    0    0  0.17196566682E+02  0.26744910692E+02 -0.23893241916E+01  0.31886063157E+02  0.00000000000E+00 0.  1.
         11    1    3    3    0    0 -0.14735441294E+02  0.27467235535E+01  0.13282708823E+02  0.20027682700E+02  0.51100000000E-03 0. -1.
        -11    1    3    3    0    0  0.54689569622E+01 -0.26614056856E+01  0.42892983843E+01  0.74424895948E+01  0.51100000000E-03 0.  1.
         12    1    3    3    0    0 -0.79300823496E+01 -0.26830228560E+02 -0.15182683016E+02  0.31831764548E+02  0.00000000000E+00 0. -1.
</event>
<event>
 7    1  0.1335379E-011  0.5930188E+02  0.7816164E-02  0.1266605E+00
        -11   -1    0    0    0    0  0.00000000000E+00  0.00000000000E+00  0.45593999997E+02  0.45594000000E+02  0.51100000000E-03 0. -1.
         11   -1    0    0    0    0 -0.00000000000E+00 -0.00000000000E+00 -0.45593999997E+02  0.45594000000E+02  0.51100000000E-03 0.  1.
    9900012    2    1    2    0    0  0.38992175649E+01  0.30777620413E+02  0.73660741289E+01  0.59301876624E+02  0.49999877071E+02 0.  0.
        -12    1    1    2    0    0 -0.38992175649E+01 -0.30777620413E+02 -0.73660741289E+01  0.31886123376E+02  0.00000000000E+00 0.  1.
         11    1    3    3    0    0 -0.71089890979E+01 -0.43231643067E+01 -0.28439681528E+01  0.87929307248E+01  0.51100000000E-03 0. -1.
        -11    1    3    3    0    0  0.15011152434E+01 -0.64164457262E+01 -0.44452612166E+00  0.66046745919E+01  0.51100000000E-03 0.  1.
        -12    1    3    3    0    0  0.95070914194E+01  0.41517230446E+02  0.10654568403E+02  0.43904271307E+02  0.00000000000E+00 0.  1.
</event>
<event>
 7    1  0.1335379E-011  0.5930200E+02  0.7816164E-02  0.1266605E+00
        -11   -1    0    0    0    0  0.00000000000E+00  0.00000000000E+00  0.45593999997E+02  0.45594000000E+02  0.51100000000E-03 0.  1.
         11   -1    0    0    0    0 -0.00000000000E+00 -0.00000000000E+00 -0.45593999997E+02  0.45594000000E+02  0.51100000000E-03 0. -1.
    9900012    2    1    2    0    0  0.27638686197E+02 -0.13380080325E+02 -0.85902964888E+01  0.59302004360E+02  0.50000110031E+02 0.  0.
        -12    1    1    2    0    0 -0.27638686197E+02  0.13380080325E+02  0.85902964888E+01  0.31885995640E+02  0.00000000000E+00 0.  1.
         11    1    3    3    0    0 -0.70584680782E+01 -0.15023500041E+02 -0.36513183711E+01  0.16995871593E+02  0.51100000000E-03 0. -1.
        -11    1    3    3    0    0  0.13004185111E+01  0.32573555849E+01  0.61497651113E+01  0.70796232171E+01  0.51100000000E-03 0.  1.
         12    1    3    3    0    0  0.33396735764E+02 -0.16139358694E+01 -0.11088743229E+02  0.35226509550E+02  0.00000000000E+00 0. -1.
</event>
<event>
 7    1  0.1335379E-011  0.5930196E+02  0.7816164E-02  0.1266605E+00
        -11   -1    0    0    0    0  0.00000000000E+00  0.00000000000E+00  0.45593999997E+02  0.45594000000E+02  0.51100000000E-03 0. -1.
         11   -1    0    0    0    0 -0.00000000000E+00 -0.00000000000E+00 -0.45593999997E+02  0.45594000000E+02  0.51100000000E-03 0.  1.
    9900012    2    1    2    0    0  0.22263778997E+02 -0.13477501891E+02 -0.18422830390E+02  0.59301959292E+02  0.50000027839E+02 0.  0.
        -12    1    1    2    0    0 -0.22263778997E+02  0.13477501891E+02  0.18422830390E+02  0.31886040708E+02  0.00000000000E+00 0.  1.
         11    1    3    3    0    0  0.45527352113E+01 -0.10799797427E+02 -0.42068297657E+01  0.12452326663E+02  0.51100000000E-03 0. -1.
        -11    1    3    3    0    0 -0.37532550945E+01  0.71261759905E+01 -0.20838364890E+02  0.22340697384E+02  0.51100000000E-03 0.  1.
         12    1    3    3    0    0  0.21464298880E+02 -0.98038804541E+01  0.66223642662E+01  0.24508935245E+02  0.00000000000E+00 0. -1.
</event>
<event>
 7    1  0.1335379E-011  0.5930193E+02  0.7816164E-02  0.1266605E+00
        -11   -1    0    0    0    0  0.00000000000E+00  0.00000000000E+00  0.45593999997E+02  0.45594000000E+02  0.51100000000E-03 0.  1.
         11   -1    0    0    0    0 -0.00000000000E+00 -0.00000000000E+00 -0.45593999997E+02  0.45594000000E+02  0.51100000000E-03 0. -1.
    9900012    2    1    2    0    0 -0.33703785300E+01  0.30059759075E+02 -0.10088264300E+02  0.59301927121E+02  0.49999969166E+02 0.  0.
        -12    1    1    2    0    0  0.33703785300E+01 -0.30059759075E+02  0.10088264300E+02  0.31886072879E+02  0.00000000000E+00 0.  1.
         11    1    3    3    0    0 -0.14036562787E+00  0.18732275073E+02 -0.18370179348E+02  0.26237021962E+02  0.51100000000E-03 0. -1.
        -11    1    3    3    0    0 -0.12619313950E+02  0.16881504986E+02  0.60757935230E+01  0.21935076074E+02  0.51100000000E-03 0.  1.
         12    1    3    3    0    0  0.93893010482E+01 -0.55540209843E+01  0.22061215256E+01  0.11129829085E+02  0.00000000000E+00 0. -1.
</event>
<event>
 7    1  0.1335379E-011  0.5930195E+02  0.7816164E-02  0.1266605E+00
        -11   -1    0    0    0    0  0.00000000000E+00  0.00000000000E+00  0.45593999997E+02  0.45594000000E+02  0.51100000000E-03 0. -1.
         11   -1    0    0    0    0 -0.00000000000E+00 -0.00000000000E+00 -0.45593999997E+02  0.45594000000E+02  0.51100000000E-03 0.  1.
    9900012    2    1    2    0    0  0.20510179215E+02  0.14290783312E+02  0.19794607023E+02  0.59301946524E+02  0.50000004552E+02 0.  0.
        -12    1    1    2    0    0 -0.20510179215E+02 -0.14290783312E+02 -0.19794607023E+02  0.31886053476E+02  0.00000000000E+00 0.  1.
         11    1    3    3    0    0  0.27199309312E+01 -0.46811984728E+00  0.10520245961E+02  0.10876246402E+02  0.51100000000E-03 0. -1.
        -11    1    3    3    0    0 -0.11124274988E+02  0.12587653472E+02  0.97551309207E+01  0.19425784244E+02  0.51100000000E-03 0.  1.
        -12    1    3    3    0    0  0.28914523272E+02  0.21712496870E+01 -0.48076985877E+00  0.28999915878E+02  0.00000000000E+00 0.  1.
</event>
<event>
 7    1  0.1335379E-011  0.5930193E+02  0.7816164E-02  0.1266605E+00
        -11   -1    0    0    0    0  0.00000000000E+00  0.00000000000E+00  0.45593999997E+02  0.45594000000E+02  0.51100000000E-03 0. -1.
         11   -1    0    0    0    0 -0.00000000000E+00 -0.00000000000E+00 -0.45593999997E+02  0.45594000000E+02  0.51100000000E-03 0.  1.
    9900012    2    1    2    0    0 -0.87055381561E+01 -0.28185610152E+02  0.12103972480E+02  0.59301934642E+02  0.49999982883E+02 0.  0.
        -12    1    1    2    0    0  0.87055381561E+01  0.28185610152E+02 -0.12103972480E+02  0.31886065358E+02  0.00000000000E+00 0.  1.
         11    1    3    3    0    0 -0.70846150916E+01 -0.27299836879E+02 -0.52188545861E+01  0.28682909686E+02  0.51100000000E-03 0. -1.
        -11    1    3    3    0    0  0.78908914185E+01 -0.94573878231E+01  0.69649083480E+01  0.14149851603E+02  0.51100000000E-03 0.  1.
         12    1    3    3    0    0 -0.95118144830E+01  0.85716145506E+01  0.10357918718E+02  0.16469173353E+02  0.00000000000E+00 0. -1.
</event>
<event>
 7    1  0.1335379E-011  0.5930195E+02  0.7816164E-02  0.1266605E+00
        -11   -1    0    0    0    0  0.00000000000E+00  0.00000000000E+00  0.45593999997E+02  0.45594000000E+02  0.51100000000E-03 0. -1.
         11   -1    0    0    0    0 -0.00000000000E+00 -0.00000000000E+00 -0.45593999997E+02  0.45594000000E+02  0.51100000000E-03 0.  1.
    9900012    2    1    2    0    0  0.63108592777E+01  0.11285211180E+02  0.29146826851E+02  0.59301945812E+02  0.50000003253E+02 0.  0.
        -12    1    1    2    0    0 -0.63108592777E+01 -0.11285211180E+02 -0.29146826851E+02  0.31886054188E+02  0.00000000000E+00 0.  1.
         11    1    3    3    0    0 -0.67054933963E+01  0.57969444397E+00  0.16473333666E+02  0.17795235589E+02  0.51100000000E-03 0. -1.
        -11    1    3    3    0    0  0.20564363817E+01  0.14634127135E+02  0.22059334992E+02  0.26551852443E+02  0.51100000000E-03 0.  1.
        -12    1    3    3    0    0  0.10959916292E+02 -0.39286103980E+01 -0.93858418070E+01  0.14954857780E+02  0.00000000000E+00 0.  1.
</event>
<event>
 7    1  0.1335379E-011  0.5930212E+02  0.7816164E-02  0.1266604E+00
        -11   -1    0    0    0    0  0.00000000000E+00  0.00000000000E+00  0.45593999997E+02  0.45594000000E+02  0.51100000000E-03 0.  1.
         11   -1    0    0    0    0 -0.00000000000E+00 -0.00000000000E+00 -0.45593999997E+02  0.45594000000E+02  0.51100000000E-03 0. -1.
    9900012    2    1    2    0    0  0.28924449449E+02 -0.34808499252E+00 -0.13415073779E+02  0.59302123133E+02  0.50000326644E+02 0.  0.
        -12    1    1    2    0    0 -0.28924449449E+02  0.34808499252E+00  0.13415073779E+02  0.31885876867E+02  0.00000000000E+00 0.  1.
         11    1    3    3    0    0  0.17968194365E+02  0.14601507782E+02 -0.12198965276E+02  0.26170112577E+02  0.51100000000E-03 0. -1.
        -11    1    3    3    0    0  0.11367988016E+02 -0.13573783403E+01 -0.11389558353E+02  0.16149169242E+02  0.51100000000E-03 0.  1.
        -12    1    3    3    0    0 -0.41173293141E+00 -0.13592214435E+02  0.10173449850E+02  0.16982841314E+02  0.00000000000E+00 0.  1.
</event>
<event>
 7    1  0.1335379E-011  0.5930196E+02  0.7816164E-02  0.1266605E+00
        -11   -1    0    0    0    0  0.00000000000E+00  0.00000000000E+00  0.45593999997E+02  0.45594000000E+02  0.51100000000E-03 0.  1.
         11   -1    0    0    0    0 -0.00000000000E+00 -0.00000000000E+00 -0.45593999997E+02  0.45594000000E+02  0.51100000000E-03 0. -1.
    9900012    2    1    2    0    0  0.19442332203E+02  0.32568256866E+01 -0.25062092381E+02  0.59301958076E+02  0.50000025622E+02 0.  0.
        -12    1    1    2    0    0 -0.19442332203E+02 -0.32568256866E+01  0.25062092381E+02  0.31886041924E+02  0.00000000000E+00 0.  1.
         11    1    3    3    0    0  0.37199266953E+01  0.52543530280E+01  0.68069830019E+01  0.93691567502E+01  0.51100000000E-03 0.  1.
        -11    1    3    3    0    0 -0.35559968289E+00 -0.94332276240E+01 -0.30768977524E+02  0.32184502679E+02  0.51100000000E-03 0. -1.
         12    1    3    3    0    0  0.16078005190E+02  0.74357002826E+01 -0.11000978591E+01  0.17748298648E+02  0.00000000000E+00 0. -1.
</event>
<event>
 7    1  0.1335379E-011  0.5930194E+02  0.7816164E-02  0.1266605E+00
        -11   -1    0    0    0    0  0.00000000000E+00  0.00000000000E+00  0.45593999997E+02  0.45594000000E+02  0.51100000000E-03 0.  1.
         11   -1    0    0    0    0 -0.00000000000E+00 -0.00000000000E+00 -0.45593999997E+02  0.45594000000E+02  0.51100000000E-03 0. -1.
    9900012    2    1    2    0    0  0.27036674428E+02 -0.71113120358E+01 -0.15335206866E+02  0.59301935762E+02  0.49999984925E+02 0.  0.
        -12    1    1    2    0    0 -0.27036674428E+02  0.71113120358E+01  0.15335206866E+02  0.31886064238E+02  0.00000000000E+00 0.  1.
         11    1    3    3    0    0 -0.11832375012E+01 -0.89262736041E+01  0.27781867311E+01  0.94232018557E+01  0.51100000000E-03 0. -1.
        -11    1    3    3    0    0  0.23654811941E+02  0.11054584591E+02  0.31006297847E+01  0.26293875214E+02  0.51100000000E-03 0.  1.
         12    1    3    3    0    0  0.45650999880E+01 -0.92396230230E+01 -0.21214023381E+02  0.23584858692E+02  0.00000000000E+00 0. -1.
</event>
<event>
 7    1  0.1335379E-011  0.5930203E+02  0.7816164E-02  0.1266604E+00
        -11   -1    0    0    0    0  0.00000000000E+00  0.00000000000E+00  0.45593999997E+02  0.45594000000E+02  0.51100000000E-03 0.  1.
         11   -1    0    0    0    0 -0.00000000000E+00 -0.00000000000E+00 -0.45593999997E+02  0.45594000000E+02  0.51100000000E-03 0. -1.
    9900012    2    1    2    0    0  0.27177546898E+02 -0.16371198372E+02 -0.31748826086E+01  0.59302030183E+02  0.50000157127E+02 0.  0.
        -12    1    1    2    0    0 -0.27177546898E+02  0.16371198372E+02  0.31748826086E+01  0.31885969817E+02  0.00000000000E+00 0.  1.
         11    1    3    3    0    0 -0.31369500324E+01 -0.91204587669E+01 -0.14266499565E+01  0.97497976381E+01  0.51100000000E-03 0.  1.
        -11    1    3    3    0    0  0.11678996648E+02 -0.19544895755E+02 -0.11120767220E+02  0.25339166849E+02  0.51100000000E-03 0. -1.
        -12    1    3    3    0    0  0.18635500283E+02  0.12294156149E+02  0.93725345676E+01  0.24213065697E+02  0.00000000000E+00 0.  1.
</event>
<event>
 7    1  0.1335379E-011  0.5930190E+02  0.7816164E-02  0.1266605E+00
        -11   -1    0    0    0    0  0.00000000000E+00  0.00000000000E+00  0.45593999997E+02  0.45594000000E+02  0.51100000000E-03 0.  1.
         11   -1    0    0    0    0 -0.00000000000E+00 -0.00000000000E+00 -0.45593999997E+02  0.45594000000E+02  0.51100000000E-03 0. -1.
    9900012    2    1    2    0    0 -0.30944635503E+02  0.40989476630E+01 -0.65078212610E+01  0.59301896821E+02  0.49999913906E+02 0.  0.
        -12    1    1    2    0    0  0.30944635503E+02 -0.40989476630E+01  0.65078212610E+01  0.31886103179E+02  0.00000000000E+00 0.  1.
         11    1    3    3    0    0 -0.15475370069E+02 -0.12835499764E+02 -0.62145068722E+01  0.21044173277E+02  0.51100000000E-03 0. -1.
        -11    1    3    3    0    0 -0.24015881667E+02  0.70893065593E+01  0.15620355750E+01  0.25089057279E+02  0.51100000000E-03 0.  1.
        -12    1    3    3    0    0  0.85466162330E+01  0.98451408674E+01 -0.18553499637E+01  0.13168666266E+02  0.00000000000E+00 0.  1.
</event>
<event>
 7    1  0.1335379E-011  0.5930192E+02  0.7816164E-02  0.1266605E+00
        -11   -1    0    0    0    0  0.00000000000E+00  0.00000000000E+00  0.45593999997E+02  0.45594000000E+02  0.51100000000E-03 0. -1.
         11   -1    0    0    0    0 -0.00000000000E+00 -0.00000000000E+00 -0.45593999997E+02  0.45594000000E+02  0.51100000000E-03 0.  1.
    9900012    2    1    2    0    0 -0.35881607671E+01  0.20753497490E+02  0.23940329384E+02  0.59301922682E+02  0.49999961070E+02 0.  0.
        -12    1    1    2    0    0  0.35881607671E+01 -0.20753497490E+02 -0.23940329384E+02  0.31886077318E+02  0.00000000000E+00 0.  1.
         11    1    3    3    0    0 -0.13257366786E+01  0.10906610665E+02  0.30661493572E+01  0.11406708819E+02  0.51100000000E-03 0. -1.
        -11    1    3    3    0    0  0.12056458171E+02 -0.68165425139E+01 -0.42808057752E+01  0.14496507642E+02  0.51100000000E-03 0.  1.
         12    1    3    3    0    0 -0.14318882260E+02  0.16663429339E+02  0.25154985802E+02  0.33398706220E+02  0.00000000000E+00 0. -1.
</event>
<event>
 7    1  0.1335379E-011  0.5930170E+02  0.7816164E-02  0.1266606E+00
        -11   -1    0    0    0    0  0.00000000000E+00  0.00000000000E+00  0.45593999997E+02  0.45594000000E+02  0.51100000000E-03 0. -1.
         11   -1    0    0    0    0 -0.00000000000E+00 -0.00000000000E+00 -0.45593999997E+02  0.45594000000E+02  0.51100000000E-03 0.  1.
    9900012    2    1    2    0    0 -0.25827386751E+02  0.67560806700E+01  0.17436681785E+02  0.59301695666E+02  0.49999547045E+02 0.  0.
        -12    1    1    2    0    0  0.25827386751E+02 -0.67560806700E+01 -0.17436681785E+02  0.31886304334E+02  0.00000000000E+00 0.  1.
         11    1    3    3    0    0  0.77116519828E+01  0.40466877670E+01  0.24487073984E+01  0.90466251371E+01  0.51100000000E-03 0. -1.
        -11    1    3    3    0    0  0.61127297652E+01 -0.56114688325E+00  0.76321372698E+01  0.97943795399E+01  0.51100000000E-03 0.  1.
         12    1    3    3    0    0 -0.39651768499E+02  0.32705397862E+01  0.73558371173E+01  0.40460690989E+02  0.00000000000E+00 0. -1.
</event>
<event>
 7    1  0.1335379E-011  0.5930194E+02  0.7816164E-02  0.1266605E+00
        -11   -1    0    0    0    0  0.00000000000E+00  0.00000000000E+00  0.45593999997E+02  0.45594000000E+02  0.51100000000E-03 0.  1.
         11   -1    0    0    0    0 -0.00000000000E+00 -0.00000000000E+00 -0.45593999997E+02  0.45594000000E+02  0.51100000000E-03 0. -1.
    9900012    2    1    2    0    0  0.84660780157E+01 -0.88931265412E+01 -0.29427176121E+02  0.59301939236E+02  0.49999991260E+02 0.  0.
        -12    1    1    2    0    0 -0.84660780157E+01  0.88931265412E+01  0.29427176121E+02  0.31886060764E+02  0.00000000000E+00 0.  1.
         11    1    3    3    0    0 -0.16845978935E+02 -0.17988066713E+00 -0.27412049217E+01  0.17068496360E+02  0.51100000000E-03 0. -1.
        -11    1    3    3    0    0 -0.80532809964E+00  0.14114088393E+01  0.17014096023E+01  0.23527480009E+01  0.51100000000E-03 0.  1.
        -12    1    3    3    0    0  0.26117385050E+02 -0.10124654713E+02 -0.28387380801E+02  0.39880694874E+02  0.00000000000E+00 0.  1.
</event>
<event>
 7    1  0.1335379E-011  0.5930194E+02  0.7816164E-02  0.1266605E+00
        -11   -1    0    0    0    0  0.00000000000E+00  0.00000000000E+00  0.45593999997E+02  0.45594000000E+02  0.51100000000E-03 0.  1.
         11   -1    0    0    0    0 -0.00000000000E+00 -0.00000000000E+00 -0.45593999997E+02  0.45594000000E+02  0.51100000000E-03 0. -1.
    9900012    2    1    2    0    0 -0.23141234388E+02  0.21516986107E+02 -0.42688654541E+01  0.59301942978E+02  0.49999998085E+02 0.  0.
        -12    1    1    2    0    0  0.23141234388E+02 -0.21516986107E+02  0.42688654541E+01  0.31886057022E+02  0.00000000000E+00 0.  1.
         11    1    3    3    0    0 -0.85922602140E+01 -0.33778084358E+01 -0.97337811557E+01  0.13415775090E+02  0.51100000000E-03 0. -1.
        -11    1    3    3    0    0 -0.23504253932E+02  0.54891988661E+01  0.39768975354E+01  0.24462153857E+02  0.51100000000E-03 0.  1.
        -12    1    3    3    0    0  0.89552797572E+01  0.19405595677E+02  0.14880181663E+01  0.21424014030E+02  0.00000000000E+00 0.  1.
</event>
<event>
 7    1  0.1335379E-011  0.5930197E+02  0.7816164E-02  0.1266605E+00
        -11   -1    0    0    0    0  0.00000000000E+00  0.00000000000E+00  0.45593999997E+02  0.45594000000E+02  0.51100000000E-03 0.  1.
         11   -1    0    0    0    0 -0.00000000000E+00 -0.00000000000E+00 -0.45593999997E+02  0.45594000000E+02  0.51100000000E-03 0. -1.
    9900012    2    1    2    0    0  0.15554140195E+02 -0.16574481622E+02 -0.22362332185E+02  0.59301974550E+02  0.50000055665E+02 0.  0.
        -12    1    1    2    0    0 -0.15554140195E+02  0.16574481622E+02  0.22362332185E+02  0.31886025450E+02  0.00000000000E+00 0.  1.
         11    1    3    3    0    0  0.12745869287E+02  0.13808710562E+01 -0.16152143844E+02  0.20621729796E+02  0.51100000000E-03 0. -1.
        -11    1    3    3    0    0  0.12692573519E+02  0.44748105141E+01 -0.41440918321E+01  0.14081862414E+02  0.51100000000E-03 0.  1.
         12    1    3    3    0    0 -0.98843026109E+01 -0.22430163192E+02 -0.20660965090E+01  0.24598382339E+02  0.00000000000E+00 0. -1.
</event>
<event>
 7    1  0.1335379E-011  0.5930192E+02  0.7816164E-02  0.1266605E+00
        -11   -1    0    0    0    0  0.00000000000E+00  0.00000000000E+00  0.45593999997E+02  0.45594000000E+02  0.51100000000E-03 0.  1.
         11   -1    0    0    0    0 -0.00000000000E+00 -0.00000000000E+00 -0.45593999997E+02  0.45594000000E+02  0.51100000000E-03 0. -1.
    9900012    2    1    2    0    0  0.11087170893E+02  0.22630373484E+02 -0.19536190306E+02  0.59301923193E+02  0.49999962003E+02 0.  0.
        -12    1    1    2    0    0 -0.11087170893E+02 -0.22630373484E+02  0.19536190306E+02  0.31886076807E+02  0.00000000000E+00 0.  1.
         11    1    3    3    0    0 -0.65035111248E+01  0.13398438950E+02 -0.10343099453E+02  0.18132664718E+02  0.51100000000E-03 0. -1.
        -11    1    3    3    0    0 -0.38566526795E+00  0.18966801992E+02 -0.56243103966E+00  0.18979058049E+02  0.51100000000E-03 0.  1.
         12    1    3    3    0    0  0.17976347285E+02 -0.97348674570E+01 -0.86306598137E+01  0.22190200426E+02  0.00000000000E+00 0. -1.
</event>
<event>
 7    1  0.1335379E-011  0.5930195E+02  0.7816164E-02  0.1266605E+00
        -11   -1    0    0    0    0  0.00000000000E+00  0.00000000000E+00  0.45593999997E+02  0.45594000000E+02  0.51100000000E-03 0. -1.
         11   -1    0    0    0    0 -0.00000000000E+00 -0.00000000000E+00 -0.45593999997E+02  0.45594000000E+02  0.51100000000E-03 0.  1.
    9900012    2    1    2    0    0  0.63504602106E+01  0.81600152614E+01  0.30162992044E+02  0.59301948457E+02  0.50000008078E+02 0.  0.
        -12    1    1    2    0    0 -0.63504602106E+01 -0.81600152614E+01 -0.30162992044E+02  0.31886051543E+02  0.00000000000E+00 0.  1.
         11    1    3    3    0    0 -0.55533947613E+01  0.60511340495E+00 -0.97022234425E+01  0.11195512297E+02  0.51100000000E-03 0. -1.
        -11    1    3    3    0    0  0.30851489624E+00 -0.32639023871E+00 -0.29861748841E+01  0.30197603761E+01  0.51100000000E-03 0.  1.
         12    1    3    3    0    0  0.11595340076E+02  0.78812920952E+01  0.42851390370E+02  0.45086675784E+02  0.00000000000E+00 0. -1.
</event>
<event>
 7    1  0.1335379E-011  0.5930194E+02  0.7816164E-02  0.1266605E+00
        -11   -1    0    0    0    0  0.00000000000E+00  0.00000000000E+00  0.45593999997E+02  0.45594000000E+02  0.51100000000E-03 0.  1.
         11   -1    0    0    0    0 -0.00000000000E+00 -0.00000000000E+00 -0.45593999997E+02  0.45594000000E+02  0.51100000000E-03 0. -1.
    9900012    2    1    2    0    0 -0.13712902935E+02 -0.57166338316E+01 -0.28213426664E+02  0.59301936377E+02  0.49999986047E+02 0.  0.
        -12    1    1    2    0    0  0.13712902935E+02  0.57166338316E+01  0.28213426664E+02  0.31886063623E+02  0.00000000000E+00 0.  1.
         11    1    3    3    0    0  0.45835521639E+01 -0.65690153027E+01 -0.27025913320E+02  0.28187956710E+02  0.51100000000E-03 0. -1.
        -11    1    3    3    0    0 -0.34408280481E+01 -0.55791993689E+01 -0.10544739694E+02  0.12416050045E+02  0.51100000000E-03 0.  1.
        -12    1    3    3    0    0 -0.14855627050E+02  0.64315808401E+01  0.93572263497E+01  0.18697929621E+02  0.00000000000E+00 0.  1.
</event>
<event>
 7    1  0.1335379E-011  0.5930193E+02  0.7816164E-02  0.1266605E+00
        -11   -1    0    0    0    0  0.00000000000E+00  0.00000000000E+00  0.45593999997E+02  0.45594000000E+02  0.51100000000E-03 0.  1.
         11   -1    0    0    0    0 -0.00000000000E+00 -0.00000000000E+00 -0.45593999997E+02  0.45594000000E+02  0.51100000000E-03 0. -1.
    9900012    2    1    2    0    0 -0.11953768158E+02 -0.13533891000E+02 -0.26280457107E+02  0.59301934006E+02  0.49999981723E+02 0.  0.
        -12    1    1    2    0    0  0.11953768158E+02  0.13533891000E+02  0.26280457107E+02  0.31886065994E+02  0.00000000000E+00 0.  1.
         11    1    3    3    0    0 -0.52403375010E+01 -0.20577828409E+02 -0.33661211814E+02  0.39799313314E+02  0.51100000000E-03 0. -1.
        -11    1    3    3    0    0  0.26158612520E+01  0.33196580496E+01 -0.29026012353E+01  0.51271779614E+01  0.51100000000E-03 0.  1.
        -12    1    3    3    0    0 -0.93292919093E+01  0.37242793594E+01  0.10283355942E+02  0.14375442731E+02  0.00000000000E+00 0.  1.
</event>
<event>
 7    1  0.1335379E-011  0.5930199E+02  0.7816164E-02  0.1266605E+00
        -11   -1    0    0    0    0  0.00000000000E+00  0.00000000000E+00  0.45593999997E+02  0.45594000000E+02  0.51100000000E-03 0.  1.
         11   -1    0    0    0    0 -0.00000000000E+00 -0.00000000000E+00 -0.45593999997E+02  0.45594000000E+02  0.51100000000E-03 0. -1.
    9900012    2    1    2    0    0 -0.23963531817E+01  0.31795656701E+02 -0.10774653040E+00  0.59301985779E+02  0.50000076144E+02 0.  0.
        -12    1    1    2    0    0  0.23963531817E+01 -0.31795656701E+02  0.10774653040E+00  0.31886014221E+02  0.00000000000E+00 0.  1.
         11    1    3    3    0    0  0.32954482217E+01 -0.10197381698E+02  0.30666703414E+01  0.11146795043E+02  0.51100000000E-03 0. -1.
        -11    1    3    3    0    0 -0.17118867406E+01  0.50166193423E+01  0.77541205699E+01  0.93927318663E+01  0.51100000000E-03 0.  1.
         12    1    3    3    0    0 -0.39799146628E+01  0.36976419057E+02 -0.10928537442E+02  0.38762458869E+02  0.00000000000E+00 0. -1.
</event>
<event>
 7    1  0.1335379E-011  0.5930193E+02  0.7816164E-02  0.1266605E+00
        -11   -1    0    0    0    0  0.00000000000E+00  0.00000000000E+00  0.45593999997E+02  0.45594000000E+02  0.51100000000E-03 0. -1.
         11   -1    0    0    0    0 -0.00000000000E+00 -0.00000000000E+00 -0.45593999997E+02  0.45594000000E+02  0.51100000000E-03 0.  1.
    9900012    2    1    2    0    0 -0.19791775568E+02 -0.83381328827E+00  0.24986238911E+02  0.59301925302E+02  0.49999965849E+02 0.  0.
        -12    1    1    2    0    0  0.19791775568E+02  0.83381328827E+00 -0.24986238911E+02  0.31886074698E+02  0.00000000000E+00 0.  1.
         11    1    3    3    0    0 -0.10696201583E+02  0.21262265149E+02  0.12341127421E+02  0.26810372505E+02  0.51100000000E-03 0. -1.
        -11    1    3    3    0    0 -0.58469325966E+00  0.31296679678E+01  0.23078087911E+01  0.39322600975E+01  0.51100000000E-03 0.  1.
        -12    1    3    3    0    0 -0.85108807254E+01 -0.25225746405E+02  0.10337302699E+02  0.28559292700E+02  0.00000000000E+00 0.  1.
</event>
<event>
 7    1  0.1335379E-011  0.5930195E+02  0.7816164E-02  0.1266605E+00
        -11   -1    0    0    0    0  0.00000000000E+00  0.00000000000E+00  0.45593999997E+02  0.45594000000E+02  0.51100000000E-03 0.  1.
         11   -1    0    0    0    0 -0.00000000000E+00 -0.00000000000E+00 -0.45593999997E+02  0.45594000000E+02  0.51100000000E-03 0. -1.
    9900012    2    1    2    0    0  0.16024981002E+02 -0.27566346515E+02 -0.13046181696E+00  0.59301945108E+02  0.50000001970E+02 0.  0.
        -12    1    1    2    0    0 -0.16024981002E+02  0.27566346515E+02  0.13046181696E+00  0.31886054892E+02  0.00000000000E+00 0.  1.
         11    1    3    3    0    0  0.24599282050E+02 -0.10255403896E+02  0.92291921887E+01  0.28204183646E+02  0.51100000000E-03 0. -1.
        -11    1    3    3    0    0 -0.10824030207E+01 -0.18200952490E+02  0.10248971753E+01  0.18261891532E+02  0.51100000000E-03 0.  1.
        -12    1    3    3    0    0 -0.74918980271E+01  0.89000987125E+00 -0.10384551181E+02  0.12835869930E+02  0.00000000000E+00 0.  1.
</event>
<event>
 7    1  0.1335379E-011  0.5930194E+02  0.7816164E-02  0.1266605E+00
        -11   -1    0    0    0    0  0.00000000000E+00  0.00000000000E+00  0.45593999997E+02  0.45594000000E+02  0.51100000000E-03 0.  1.
         11   -1    0    0    0    0 -0.00000000000E+00 -0.00000000000E+00 -0.45593999997E+02  0.45594000000E+02  0.51100000000E-03 0. -1.
    9900012    2    1    2    0    0 -0.11154486392E+02  0.95193827235E+01 -0.28313945022E+02  0.59301941968E+02  0.49999996244E+02 0.  0.
        -12    1    1    2    0    0  0.11154486392E+02 -0.95193827235E+01  0.28313945022E+02  0.31886058032E+02  0.00000000000E+00 0.  1.
         11    1    3    3    0    0  0.12478018318E+01  0.95610631117E+01 -0.49468028072E+01  0.10837056589E+02  0.51100000000E-03 0.  1.
        -11    1    3    3    0    0 -0.13526710573E+02 -0.34616897574E+01 -0.34258153940E+02  0.36994273970E+02  0.51100000000E-03 0. -1.
         12    1    3    3    0    0  0.11244223496E+01  0.34200093693E+01  0.10891011725E+02  0.11470611410E+02  0.00000000000E+00 0. -1.
</event>
<event>
 7    1  0.1335379E-011  0.5930191E+02  0.7816164E-02  0.1266605E+00
        -11   -1    0    0    0    0  0.00000000000E+00  0.00000000000E+00  0.45593999997E+02  0.45594000000E+02  0.51100000000E-03 0. -1.
         11   -1    0    0    0    0 -0.00000000000E+00 -0.00000000000E+00 -0.45593999997E+02  0.45594000000E+02  0.51100000000E-03 0.  1.
    9900012    2    1    2    0    0 -0.26800428211E+02 -0.53043155237E+01 -0.16441531090E+02  0.59301911182E+02  0.49999940098E+02 0.  0.
        -12    1    1    2    0    0  0.26800428211E+02  0.53043155237E+01  0.16441531090E+02  0.31886088818E+02  0.00000000000E+00 0.  1.
         11    1    3    3    0    0 -0.20939501293E+02 -0.10230796891E+02  0.70804233349E+01  0.24357017763E+02  0.51100000000E-03 0. -1.
        -11    1    3    3    0    0  0.88884367800E+01 -0.22352962085E+01 -0.60361887119E+01  0.10974353373E+02  0.51100000000E-03 0.  1.
        -12    1    3    3    0    0 -0.14749363698E+02  0.71617775758E+01 -0.17485765713E+02  0.23970540047E+02  0.00000000000E+00 0.  1.
</event>
<event>
 7    1  0.1335379E-011  0.5930194E+02  0.7816164E-02  0.1266605E+00
        -11   -1    0    0    0    0  0.00000000000E+00  0.00000000000E+00  0.45593999997E+02  0.45594000000E+02  0.51100000000E-03 0.  1.
         11   -1    0    0    0    0 -0.00000000000E+00 -0.00000000000E+00 -0.45593999997E+02  0.45594000000E+02  0.51100000000E-03 0. -1.
    9900012    2    1    2    0    0 -0.30730937316E+02 -0.82929785897E+01  0.18858862290E+01  0.59301943971E+02  0.49999999897E+02 0.  0.
        -12    1    1    2    0    0  0.30730937316E+02  0.82929785897E+01 -0.18858862290E+01  0.31886056029E+02  0.00000000000E+00 0.  1.
         11    1    3    3    0    0 -0.26620139646E+02  0.16475242140E+01 -0.78593957439E+01  0.27804968487E+02  0.51100000000E-03 0. -1.
        -11    1    3    3    0    0 -0.99780737706E+01 -0.14552087872E+02  0.14336940207E+02  0.22734842695E+02  0.51100000000E-03 0.  1.
         12    1    3    3    0    0  0.58672761009E+01  0.46115850680E+01 -0.45916582343E+01  0.87621327897E+01  0.00000000000E+00 0. -1.
</event>
<event>
 7    1  0.1335379E-011  0.5930194E+02  0.7816164E-02  0.1266605E+00
        -11   -1    0    0    0    0  0.00000000000E+00  0.00000000000E+00  0.45593999997E+02  0.45594000000E+02  0.51100000000E-03 0. -1.
         11   -1    0    0    0    0 -0.00000000000E+00 -0.00000000000E+00 -0.45593999997E+02  0.45594000000E+02  0.51100000000E-03 0.  1.
    9900012    2    1    2    0    0  0.30780930186E+02  0.80958504798E+01 -0.19266850222E+01  0.59301943905E+02  0.49999999776E+02 0.  0.
        -12    1    1    2    0    0 -0.30780930186E+02 -0.80958504798E+01  0.19266850222E+01  0.31886056095E+02  0.00000000000E+00 0.  1.
         11    1    3    3    0    0  0.72772434744E+01  0.12675463594E+02 -0.10764776134E+02  0.18152301656E+02  0.51100000000E-03 0. -1.
        -11    1    3    3    0    0 -0.41724783717E+01 -0.10229302285E+02  0.64721837609E+01  0.12803802712E+02  0.51100000000E-03 0.  1.
         12    1    3    3    0    0  0.27676165084E+02  0.56496891701E+01  0.23659073513E+01  0.28345839537E+02  0.00000000000E+00 0. -1.
</event>
<event>
 7    1  0.1335379E-011  0.5930195E+02  0.7816164E-02  0.1266605E+00
        -11   -1    0    0    0    0  0.00000000000E+00  0.00000000000E+00  0.45593999997E+02  0.45594000000E+02  0.51100000000E-03 0. -1.
         11   -1    0    0    0    0 -0.00000000000E+00 -0.00000000000E+00 -0.45593999997E+02  0.45594000000E+02  0.51100000000E-03 0.  1.
    9900012    2    1    2    0    0 -0.20240420987E+02  0.19092033197E+02  0.15573694872E+02  0.59301947480E+02  0.50000006295E+02 0.  0.
        -12    1    1    2    0    0  0.20240420987E+02 -0.19092033197E+02 -0.15573694872E+02  0.31886052520E+02  0.00000000000E+00 0.  1.
         11    1    3    3    0    0 -0.13225546414E+02  0.16357829847E+01  0.10320273076E+02  0.16855233625E+02  0.51100000000E-03 0. -1.
        -11    1    3    3    0    0 -0.17905741840E+02  0.22950183494E+02  0.74623927064E+01  0.30050188326E+02  0.51100000000E-03 0.  1.
        -12    1    3    3    0    0  0.10890867267E+02 -0.54939332809E+01 -0.22089709097E+01  0.12396525529E+02  0.00000000000E+00 0.  1.
</event>
<event>
 7    1  0.1335379E-011  0.5930187E+02  0.7816164E-02  0.1266605E+00
        -11   -1    0    0    0    0  0.00000000000E+00  0.00000000000E+00  0.45593999997E+02  0.45594000000E+02  0.51100000000E-03 0. -1.
         11   -1    0    0    0    0 -0.00000000000E+00 -0.00000000000E+00 -0.45593999997E+02  0.45594000000E+02  0.51100000000E-03 0.  1.
    9900012    2    1    2    0    0  0.11690955100E+02  0.27326450309E+02  0.11546086766E+02  0.59301867635E+02  0.49999860677E+02 0.  0.
        -12    1    1    2    0    0 -0.11690955100E+02 -0.27326450309E+02 -0.11546086766E+02  0.31886132365E+02  0.00000000000E+00 0.  1.
         11    1    3    3    0    0 -0.19118972001E+01 -0.31969347451E+01  0.83407266781E+01  0.91347394296E+01  0.51100000000E-03 0. -1.
        -11    1    3    3    0    0  0.88784953435E+01 -0.19776370366E+01  0.13026079460E+02  0.15887651626E+02  0.51100000000E-03 0.  1.
        -12    1    3    3    0    0  0.47243569569E+01  0.32501022090E+02 -0.98207193725E+01  0.34279476579E+02  0.00000000000E+00 0.  1.
</event>
<event>
 7    1  0.1335379E-011  0.5930193E+02  0.7816164E-02  0.1266605E+00
        -11   -1    0    0    0    0  0.00000000000E+00  0.00000000000E+00  0.45593999997E+02  0.45594000000E+02  0.51100000000E-03 0.  1.
         11   -1    0    0    0    0 -0.00000000000E+00 -0.00000000000E+00 -0.45593999997E+02  0.45594000000E+02  0.51100000000E-03 0. -1.
    9900012    2    1    2    0    0  0.53099642524E+01  0.31432862808E+02  0.70756103391E+00  0.59301933650E+02  0.49999981074E+02 0.  0.
        -12    1    1    2    0    0 -0.53099642524E+01 -0.31432862808E+02 -0.70756103391E+00  0.31886066350E+02  0.00000000000E+00 0.  1.
         11    1    3    3    0    0 -0.86783419877E+01  0.43143658663E+01  0.33037606361E+01  0.10239248365E+02  0.51100000000E-03 0. -1.
        -11    1    3    3    0    0  0.73941384657E+01 -0.60992685157E+01  0.91167875831E+01  0.13228385244E+02  0.51100000000E-03 0.  1.
         12    1    3    3    0    0  0.65941677744E+01  0.33217765457E+02 -0.11712987185E+02  0.35834300041E+02  0.00000000000E+00 0. -1.
</event>
<event>
 7    1  0.1335379E-011  0.5930194E+02  0.7816164E-02  0.1266605E+00
        -11   -1    0    0    0    0  0.00000000000E+00  0.00000000000E+00  0.45593999997E+02  0.45594000000E+02  0.51100000000E-03 0.  1.
         11   -1    0    0    0    0 -0.00000000000E+00 -0.00000000000E+00 -0.45593999997E+02  0.45594000000E+02  0.51100000000E-03 0. -1.
    9900012    2    1    2    0    0  0.31314345646E+02  0.28866097559E+01 -0.52725734151E+01  0.59301940514E+02  0.49999993592E+02 0.  0.
        -12    1    1    2    0    0 -0.31314345646E+02 -0.28866097559E+01  0.52725734151E+01  0.31886059486E+02  0.00000000000E+00 0.  1.
         11    1    3    3    0    0  0.96764497603E+01  0.17390460896E+02 -0.81547682371E+01  0.21507255878E+02  0.51100000000E-03 0. -1.
        -11    1    3    3    0    0  0.51075410586E+01 -0.23021518858E+01  0.13536908847E+02  0.14650419119E+02  0.51100000000E-03 0.  1.
        -12    1    3    3    0    0  0.16530354827E+02 -0.12201699254E+02 -0.10654714025E+02  0.23144265517E+02  0.00000000000E+00 0.  1.
</event>
<event>
 7    1  0.1335379E-011  0.5930194E+02  0.7816164E-02  0.1266605E+00
        -11   -1    0    0    0    0  0.00000000000E+00  0.00000000000E+00  0.45593999997E+02  0.45594000000E+02  0.51100000000E-03 0.  1.
         11   -1    0    0    0    0 -0.00000000000E+00 -0.00000000000E+00 -0.45593999997E+02  0.45594000000E+02  0.51100000000E-03 0. -1.
    9900012    2    1    2    0    0 -0.25936018529E+02 -0.11935970634E+02 -0.14197753382E+02  0.59301942652E+02  0.49999997491E+02 0.  0.
        -12    1    1    2    0    0  0.25936018529E+02  0.11935970634E+02  0.14197753382E+02  0.31886057348E+02  0.00000000000E+00 0.  1.
         11    1    3    3    0    0 -0.15580507904E+02 -0.13123447697E+02  0.15598714003E+01  0.20430621749E+02  0.51100000000E-03 0. -1.
        -11    1    3    3    0    0 -0.12602296171E+02 -0.21802759160E+01  0.77920263936E+01  0.14976219397E+02  0.51100000000E-03 0.  1.
         12    1    3    3    0    0  0.22467855464E+01  0.33677529795E+01 -0.23549651176E+02  0.23895101505E+02  0.00000000000E+00 0. -1.
</event>
<event>
 7    1  0.1335379E-011  0.5930195E+02  0.7816164E-02  0.1266605E+00
        -11   -1    0    0    0    0  0.00000000000E+00  0.00000000000E+00  0.45593999997E+02  0.45594000000E+02  0.51100000000E-03 0. -1.
         11   -1    0    0    0    0 -0.00000000000E+00 -0.00000000000E+00 -0.45593999997E+02  0.45594000000E+02  0.51100000000E-03 0.  1.
    9900012    2    1    2    0    0  0.28545251902E+02 -0.32878612874E+01  0.13823132729E+02  0.59301946051E+02  0.50000003690E+02 0.  0.
        -12    1    1    2    0    0 -0.28545251902E+02  0.32878612874E+01 -0.13823132729E+02  0.31886053949E+02  0.00000000000E+00 0.  1.
         11    1    3    3    0    0  0.51822914441E+01  0.58119750691E+01  0.50082956022E+01  0.92584136825E+01  0.51100000000E-03 0. -1.
        -11    1    3    3    0    0  0.12479333319E+02  0.10668843206E+02  0.19148453396E+02  0.25223426475E+02  0.51100000000E-03 0.  1.
         12    1    3    3    0    0  0.10883627139E+02 -0.19768679562E+02 -0.10333616269E+02  0.24820105893E+02  0.00000000000E+00 0. -1.
</event>
<event>
 7    1  0.1335379E-011  0.5930192E+02  0.7816164E-02  0.1266605E+00
        -11   -1    0    0    0    0  0.00000000000E+00  0.00000000000E+00  0.45593999997E+02  0.45594000000E+02  0.51100000000E-03 0.  1.
         11   -1    0    0    0    0 -0.00000000000E+00 -0.00000000000E+00 -0.45593999997E+02  0.45594000000E+02  0.51100000000E-03 0. -1.
    9900012    2    1    2    0    0 -0.76055656812E+01 -0.23464936766E+02 -0.20205790656E+02  0.59301923684E+02  0.49999962898E+02 0.  0.
        -12    1    1    2    0    0  0.76055656812E+01  0.23464936766E+02  0.20205790656E+02  0.31886076316E+02  0.00000000000E+00 0.  1.
         11    1    3    3    0    0  0.77627573457E+01 -0.90252541708E+01  0.10722725001E+01  0.11952630800E+02  0.51100000000E-03 0. -1.
        -11    1    3    3    0    0  0.54037669055E+01  0.91293605450E+01 -0.77814638360E+01  0.13156637124E+02  0.51100000000E-03 0.  1.
         12    1    3    3    0    0 -0.20772089932E+02 -0.23569043141E+02 -0.13496599320E+02  0.34192655760E+02  0.00000000000E+00 0. -1.
</event>
<event>
 7    1  0.1335379E-011  0.5930192E+02  0.7816164E-02  0.1266605E+00
        -11   -1    0    0    0    0  0.00000000000E+00  0.00000000000E+00  0.45593999997E+02  0.45594000000E+02  0.51100000000E-03 0.  1.
         11   -1    0    0    0    0 -0.00000000000E+00 -0.00000000000E+00 -0.45593999997E+02  0.45594000000E+02  0.51100000000E-03 0. -1.
    9900012    2    1    2    0    0  0.31115125202E+01  0.18262056298E+02 -0.25952603442E+02  0.59301924107E+02  0.49999963670E+02 0.  0.
        -12    1    1    2    0    0 -0.31115125202E+01 -0.18262056298E+02  0.25952603442E+02  0.31886075893E+02  0.00000000000E+00 0.  1.
         11    1    3    3    0    0  0.35513847939E+01  0.14179262845E+02 -0.24005639280E+02  0.28105774251E+02  0.51100000000E-03 0. -1.
        -11    1    3    3    0    0 -0.14199823492E+02  0.16303866880E+01 -0.75183196493E+01  0.16149869305E+02  0.51100000000E-03 0.  1.
         12    1    3    3    0    0  0.13759951218E+02  0.24524067651E+01  0.55713554869E+01  0.15046280551E+02  0.00000000000E+00 0. -1.
</event>
<event>
 7    1  0.1335379E-011  0.5930194E+02  0.7816164E-02  0.1266605E+00
        -11   -1    0    0    0    0  0.00000000000E+00  0.00000000000E+00  0.45593999997E+02  0.45594000000E+02  0.51100000000E-03 0.  1.
         11   -1    0    0    0    0 -0.00000000000E+00 -0.00000000000E+00 -0.45593999997E+02  0.45594000000E+02  0.51100000000E-03 0. -1.
    9900012    2    1    2    0    0 -0.10920016660E+01  0.14135677248E+02 -0.28560656372E+02  0.59301938291E+02  0.49999989538E+02 0.  0.
        -12    1    1    2    0    0  0.10920016660E+01 -0.14135677248E+02  0.28560656372E+02  0.31886061709E+02  0.00000000000E+00 0.  1.
         11    1    3    3    0    0 -0.48356489063E+01  0.73053897727E+01 -0.10493326019E+01  0.88234527962E+01  0.51100000000E-03 0. -1.
        -11    1    3    3    0    0 -0.70431802174E+01  0.20475240436E+02 -0.24720179015E+02  0.32862274865E+02  0.51100000000E-03 0.  1.
         12    1    3    3    0    0  0.10786827458E+02 -0.13644952962E+02 -0.27911447555E+01  0.17616210630E+02  0.00000000000E+00 0. -1.
</event>
<event>
 7    1  0.1335379E-011  0.5930193E+02  0.7816164E-02  0.1266605E+00
        -11   -1    0    0    0    0  0.00000000000E+00  0.00000000000E+00  0.45593999997E+02  0.45594000000E+02  0.51100000000E-03 0.  1.
         11   -1    0    0    0    0 -0.00000000000E+00 -0.00000000000E+00 -0.45593999997E+02  0.45594000000E+02  0.51100000000E-03 0. -1.
    9900012    2    1    2    0    0 -0.16164755056E+02 -0.12788250700E+02 -0.24328639911E+02  0.59301931225E+02  0.49999976651E+02 0.  0.
        -12    1    1    2    0    0  0.16164755056E+02  0.12788250700E+02  0.24328639911E+02  0.31886068775E+02  0.00000000000E+00 0.  1.
         11    1    3    3    0    0 -0.75494339050E+00  0.14569038864E+01  0.69552118436E+01  0.71461514473E+01  0.51100000000E-03 0. -1.
        -11    1    3    3    0    0  0.45698512830E+01  0.62110813900E+01 -0.19965289462E+02  0.21402660029E+02  0.51100000000E-03 0.  1.
         12    1    3    3    0    0 -0.19979662949E+02 -0.20456235977E+02 -0.11318562293E+02  0.30753119748E+02  0.00000000000E+00 0. -1.
</event>
<event>
 7    1  0.1335379E-011  0.5930192E+02  0.7816164E-02  0.1266605E+00
        -11   -1    0    0    0    0  0.00000000000E+00  0.00000000000E+00  0.45593999997E+02  0.45594000000E+02  0.51100000000E-03 0.  1.
         11   -1    0    0    0    0 -0.00000000000E+00 -0.00000000000E+00 -0.45593999997E+02  0.45594000000E+02  0.51100000000E-03 0. -1.
    9900012    2    1    2    0    0  0.21567914778E+02  0.20704664169E+02  0.11084395107E+02  0.59301923397E+02  0.49999962375E+02 0.  0.
        -12    1    1    2    0    0 -0.21567914778E+02 -0.20704664169E+02 -0.11084395107E+02  0.31886076603E+02  0.00000000000E+00 0.  1.
         11    1    3    3    0    0 -0.10081245371E+02 -0.11539467941E+01 -0.95986070415E+01  0.13967689817E+02  0.51100000000E-03 0.  1.
        -11    1    3    3    0    0  0.93018086053E+01  0.12842467035E+02  0.11312502279E+02  0.19478842649E+02  0.51100000000E-03 0. -1.
        -12    1    3    3    0    0  0.22347351544E+02  0.90161439274E+01  0.93704998697E+01  0.25855390930E+02  0.00000000000E+00 0.  1.
</event>
<event>
 7    1  0.1335379E-011  0.5930193E+02  0.7816164E-02  0.1266605E+00
        -11   -1    0    0    0    0  0.00000000000E+00  0.00000000000E+00  0.45593999997E+02  0.45594000000E+02  0.51100000000E-03 0. -1.
         11   -1    0    0    0    0 -0.00000000000E+00 -0.00000000000E+00 -0.45593999997E+02  0.45594000000E+02  0.51100000000E-03 0.  1.
    9900012    2    1    2    0    0  0.60962331004E+01  0.75588297707E+01  0.30371391177E+02  0.59301931450E+02  0.49999977062E+02 0.  0.
        -12    1    1    2    0    0 -0.60962331004E+01 -0.75588297707E+01 -0.30371391177E+02  0.31886068550E+02  0.00000000000E+00 0.  1.
         11    1    3    3    0    0 -0.71086590836E+01 -0.15982652689E+01  0.44828567347E+01  0.85547349814E+01  0.51100000000E-03 0. -1.
        -11    1    3    3    0    0 -0.13039825717E+02  0.39793661545E+01  0.16385666517E+00  0.13634487852E+02  0.51100000000E-03 0.  1.
         12    1    3    3    0    0  0.26244717901E+02  0.51777288851E+01  0.25724677778E+02  0.37112708617E+02  0.00000000000E+00 0. -1.
</event>
<event>
 7    1  0.1335379E-011  0.5930190E+02  0.7816164E-02  0.1266605E+00
        -11   -1    0    0    0    0  0.00000000000E+00  0.00000000000E+00  0.45593999997E+02  0.45594000000E+02  0.51100000000E-03 0.  1.
         11   -1    0    0    0    0 -0.00000000000E+00 -0.00000000000E+00 -0.45593999997E+02  0.45594000000E+02  0.51100000000E-03 0. -1.
    9900012    2    1    2    0    0 -0.20127049470E+02  0.85856608941E+01 -0.23192921693E+02  0.59301900991E+02  0.49999921512E+02 0.  0.
        -12    1    1    2    0    0  0.20127049470E+02 -0.85856608941E+01  0.23192921693E+02  0.31886099009E+02  0.00000000000E+00 0.  1.
         11    1    3    3    0    0 -0.24615265131E+01  0.44845062385E+01  0.35294922980E+01  0.62150804597E+01  0.51100000000E-03 0. -1.
        -11    1    3    3    0    0  0.47659903998E+01 -0.11626242280E+02  0.27347579137E+01  0.12859357494E+02  0.51100000000E-03 0.  1.
         12    1    3    3    0    0 -0.22431513356E+02  0.15727396936E+02 -0.29457171905E+02  0.40227463038E+02  0.00000000000E+00 0. -1.
</event>
<event>
 7    1  0.1335379E-011  0.5930196E+02  0.7816164E-02  0.1266605E+00
        -11   -1    0    0    0    0  0.00000000000E+00  0.00000000000E+00  0.45593999997E+02  0.45594000000E+02  0.51100000000E-03 0.  1.
         11   -1    0    0    0    0 -0.00000000000E+00 -0.00000000000E+00 -0.45593999997E+02  0.45594000000E+02  0.51100000000E-03 0. -1.
    9900012    2    1    2    0    0 -0.18962586816E+02  0.22136369217E+02 -0.12927539044E+02  0.59301955927E+02  0.50000021702E+02 0.  0.
        -12    1    1    2    0    0  0.18962586816E+02 -0.22136369217E+02  0.12927539044E+02  0.31886044073E+02  0.00000000000E+00 0.  1.
         11    1    3    3    0    0 -0.79260110853E+01  0.85555702183E+01 -0.12376309263E+01  0.11728220839E+02  0.51100000000E-03 0. -1.
        -11    1    3    3    0    0  0.42705985243E+01  0.19571857918E+02  0.83082218139E+01  0.21686912738E+02  0.51100000000E-03 0.  1.
         12    1    3    3    0    0 -0.15307174255E+02 -0.59910589189E+01 -0.19998129932E+02  0.25886822350E+02  0.00000000000E+00 0. -1.
</event>
<event>
 7    1  0.1335379E-011  0.5930195E+02  0.7816164E-02  0.1266605E+00
        -11   -1    0    0    0    0  0.00000000000E+00  0.00000000000E+00  0.45593999997E+02  0.45594000000E+02  0.51100000000E-03 0.  1.
         11   -1    0    0    0    0 -0.00000000000E+00 -0.00000000000E+00 -0.45593999997E+02  0.45594000000E+02  0.51100000000E-03 0. -1.
    9900012    2    1    2    0    0 -0.20798092777E+02  0.10496599353E+02  0.21771102636E+02  0.59301950211E+02  0.50000011277E+02 0.  0.
        -12    1    1    2    0    0  0.20798092777E+02 -0.10496599353E+02 -0.21771102636E+02  0.31886049789E+02  0.00000000000E+00 0.  1.
         11    1    3    3    0    0 -0.17183465057E+02  0.24868170429E+01 -0.27088905294E+01  0.17572530226E+02  0.51100000000E-03 0. -1.
        -11    1    3    3    0    0 -0.18098538759E+02  0.29766775963E+01  0.15071164391E+02  0.23739370487E+02  0.51100000000E-03 0.  1.
        -12    1    3    3    0    0  0.14483911039E+02  0.50331047135E+01  0.94088287745E+01  0.17990049499E+02  0.00000000000E+00 0.  1.
</event>
<event>
 7    1  0.1335379E-011  0.5930195E+02  0.7816164E-02  0.1266605E+00
        -11   -1    0    0    0    0  0.00000000000E+00  0.00000000000E+00  0.45593999997E+02  0.45594000000E+02  0.51100000000E-03 0. -1.
         11   -1    0    0    0    0 -0.00000000000E+00 -0.00000000000E+00 -0.45593999997E+02  0.45594000000E+02  0.51100000000E-03 0.  1.
    9900012    2    1    2    0    0  0.12437461962E+02  0.29145177006E+02  0.35480286745E+01  0.59301948030E+02  0.50000007299E+02 0.  0.
        -12    1    1    2    0    0 -0.12437461962E+02 -0.29145177006E+02 -0.35480286745E+01  0.31886051970E+02  0.00000000000E+00 0.  1.
         11    1    3    3    0    0 -0.92704308132E+01 -0.13122166846E+01 -0.11837736843E+01  0.94373788992E+01  0.51100000000E-03 0. -1.
        -11    1    3    3    0    0  0.18364471279E+01  0.17486444609E+02  0.15837931735E+02  0.23664073297E+02  0.51100000000E-03 0.  1.
        -12    1    3    3    0    0  0.19871445648E+02  0.12970949082E+02 -0.11106129376E+02  0.26200495834E+02  0.00000000000E+00 0.  1.
</event>
<event>
 7    1  0.1335379E-011  0.5930195E+02  0.7816164E-02  0.1266605E+00
        -11   -1    0    0    0    0  0.00000000000E+00  0.00000000000E+00  0.45593999997E+02  0.45594000000E+02  0.51100000000E-03 0.  1.
         11   -1    0    0    0    0 -0.00000000000E+00 -0.00000000000E+00 -0.45593999997E+02  0.45594000000E+02  0.51100000000E-03 0. -1.
    9900012    2    1    2    0    0  0.22034572253E+02 -0.57206137723E+01  0.22326494257E+02  0.59301950666E+02  0.50000012107E+02 0.  0.
        -12    1    1    2    0    0 -0.22034572253E+02  0.57206137723E+01 -0.22326494257E+02  0.31886049334E+02  0.00000000000E+00 0.  1.
         11    1    3    3    0    0 -0.81921823447E+01 -0.63043746248E+01  0.84300772141E+00  0.10371482693E+02  0.51100000000E-03 0. -1.
        -11    1    3    3    0    0  0.59882045080E+01  0.70877994292E+01 -0.65099605581E+01  0.11334684853E+02  0.51100000000E-03 0.  1.
        -12    1    3    3    0    0  0.24238550089E+02 -0.65040385766E+01  0.27993447094E+02  0.37595783120E+02  0.00000000000E+00 0.  1.
</event>
<event>
 7    1  0.1335379E-011  0.5930194E+02  0.7816164E-02  0.1266605E+00
        -11   -1    0    0    0    0  0.00000000000E+00  0.00000000000E+00  0.45593999997E+02  0.45594000000E+02  0.51100000000E-03 0.  1.
         11   -1    0    0    0    0 -0.00000000000E+00 -0.00000000000E+00 -0.45593999997E+02  0.45594000000E+02  0.51100000000E-03 0. -1.
    9900012    2    1    2    0    0  0.17506338394E+01 -0.44983842044E+01 -0.31518572938E+02  0.59301943183E+02  0.49999998460E+02 0.  0.
        -12    1    1    2    0    0 -0.17506338394E+01  0.44983842044E+01  0.31518572938E+02  0.31886056817E+02  0.00000000000E+00 0.  1.
         11    1    3    3    0    0  0.35681169439E-01  0.76259531910E+01 -0.33463340496E+02  0.34321299402E+02  0.51100000000E-03 0. -1.
        -11    1    3    3    0    0  0.88494468189E+01  0.18770560117E+01 -0.57948631765E+00  0.90648691620E+01  0.51100000000E-03 0.  1.
         12    1    3    3    0    0 -0.71344941489E+01 -0.14001393407E+02  0.25242538757E+01  0.15915774619E+02  0.00000000000E+00 0. -1.
</event>
<event>
 7    1  0.1335379E-011  0.5930195E+02  0.7816164E-02  0.1266605E+00
        -11   -1    0    0    0    0  0.00000000000E+00  0.00000000000E+00  0.45593999997E+02  0.45594000000E+02  0.51100000000E-03 0. -1.
         11   -1    0    0    0    0 -0.00000000000E+00 -0.00000000000E+00 -0.45593999997E+02  0.45594000000E+02  0.51100000000E-03 0.  1.
    9900012    2    1    2    0    0  0.31724342567E+01  0.52237796494E+01  0.31294852784E+02  0.59301952523E+02  0.50000015494E+02 0.  0.
        -12    1    1    2    0    0 -0.31724342567E+01 -0.52237796494E+01 -0.31294852784E+02  0.31886047477E+02  0.00000000000E+00 0.  1.
         11    1    3    3    0    0 -0.24647962646E+01  0.12437151188E+02  0.23824179172E+01  0.12900924993E+02  0.51100000000E-03 0. -1.
        -11    1    3    3    0    0 -0.13784970022E+01  0.69172601518E+01 -0.52360460492E+01  0.87843565777E+01  0.51100000000E-03 0.  1.
         12    1    3    3    0    0  0.70157275235E+01 -0.14130631690E+02  0.34148480916E+02  0.37616670952E+02  0.00000000000E+00 0. -1.
</event>
<event>
 7    1  0.1335379E-011  0.5930194E+02  0.7816164E-02  0.1266605E+00
        -11   -1    0    0    0    0  0.00000000000E+00  0.00000000000E+00  0.45593999997E+02  0.45594000000E+02  0.51100000000E-03 0. -1.
         11   -1    0    0    0    0 -0.00000000000E+00 -0.00000000000E+00 -0.45593999997E+02  0.45594000000E+02  0.51100000000E-03 0.  1.
    9900012    2    1    2    0    0 -0.29519652608E+02 -0.11847396401E+02  0.22249335230E+01  0.59301936888E+02  0.49999986979E+02 0.  0.
        -12    1    1    2    0    0  0.29519652608E+02  0.11847396401E+02 -0.22249335230E+01  0.31886063112E+02  0.00000000000E+00 0.  1.
         11    1    3    3    0    0  0.79439985646E+01  0.85443883299E+01 -0.34394381299E+01  0.12163199416E+02  0.51100000000E-03 0. -1.
        -11    1    3    3    0    0 -0.24152945039E+01  0.34567588322E+01  0.17501433221E+01  0.45657234995E+01  0.51100000000E-03 0.  1.
         12    1    3    3    0    0 -0.35048356669E+02 -0.23848543563E+02  0.39142283308E+01  0.42573013972E+02  0.00000000000E+00 0. -1.
</event>
<event>
 7    1  0.1449501E-011  0.5930195E+02  0.7816164E-02  0.1266605E+00
        -11   -1    0    0    0    0  0.00000000000E+00  0.00000000000E+00  0.45593999997E+02  0.45594000000E+02  0.51100000000E-03 0. -1.
         11   -1    0    0    0    0 -0.00000000000E+00 -0.00000000000E+00 -0.45593999997E+02  0.45594000000E+02  0.51100000000E-03 0.  1.
    9900012    2    1    2    0    0  0.28604519931E+02 -0.60799518747E+01  0.12709668215E+02  0.59301952245E+02  0.50000014986E+02 0.  0.
        -12    1    1    2    0    0 -0.28604519931E+02  0.60799518747E+01 -0.12709668215E+02  0.31886047755E+02  0.00000000000E+00 0.  1.
         11    1    3    3    0    0  0.10411575742E+02 -0.44995647701E+01  0.20086431401E+02  0.23067546884E+02  0.51100000000E-03 0. -1.
        -11    1    3    3    0    0 -0.65229448647E+01 -0.74833696635E+01 -0.65194985842E+00  0.99486014146E+01  0.51100000000E-03 0.  1.
         12    1    3    3    0    0  0.24715889054E+02  0.59029825589E+01 -0.67248133274E+01  0.26285803946E+02  0.00000000000E+00 0. -1.
</event>
<event>
 7    1  0.1335379E-011  0.5930195E+02  0.7816164E-02  0.1266605E+00
        -11   -1    0    0    0    0  0.00000000000E+00  0.00000000000E+00  0.45593999997E+02  0.45594000000E+02  0.51100000000E-03 0.  1.
         11   -1    0    0    0    0 -0.00000000000E+00 -0.00000000000E+00 -0.45593999997E+02  0.45594000000E+02  0.51100000000E-03 0. -1.
    9900012    2    1    2    0    0  0.77134876322E+01  0.30508482571E+02 -0.51434447127E+01  0.59301946250E+02  0.50000004054E+02 0.  0.
        -12    1    1    2    0    0 -0.77134876322E+01 -0.30508482571E+02  0.51434447127E+01  0.31886053750E+02  0.00000000000E+00 0.  1.
         11    1    3    3    0    0  0.74911325132E+01  0.24635453841E+01 -0.25071062035E+00  0.78898021690E+01  0.51100000000E-03 0. -1.
        -11    1    3    3    0    0  0.20467629393E+02  0.99908269370E+01  0.34420514981E+01  0.23034500095E+02  0.51100000000E-03 0.  1.
         12    1    3    3    0    0 -0.20245274274E+02  0.18054110250E+02 -0.83347855905E+01  0.28377643986E+02  0.00000000000E+00 0. -1.
</event>
<event>
 7    1  0.1335379E-011  0.5930195E+02  0.7816164E-02  0.1266605E+00
        -11   -1    0    0    0    0  0.00000000000E+00  0.00000000000E+00  0.45593999997E+02  0.45594000000E+02  0.51100000000E-03 0.  1.
         11   -1    0    0    0    0 -0.00000000000E+00 -0.00000000000E+00 -0.45593999997E+02  0.45594000000E+02  0.51100000000E-03 0. -1.
    9900012    2    1    2    0    0  0.21903022668E+01 -0.28040778468E+02 -0.15021237856E+02  0.59301948695E+02  0.50000008513E+02 0.  0.
        -12    1    1    2    0    0 -0.21903022668E+01  0.28040778468E+02  0.15021237856E+02  0.31886051305E+02  0.00000000000E+00 0.  1.
         11    1    3    3    0    0 -0.11258469193E+02  0.89143642387E+00  0.21186463792E+01  0.11490711475E+02  0.51100000000E-03 0. -1.
        -11    1    3    3    0    0 -0.93630591346E+01 -0.63957154515E+01  0.23194461612E+00  0.11341333743E+02  0.51100000000E-03 0.  1.
        -12    1    3    3    0    0  0.22811830594E+02 -0.22536499440E+02 -0.17371828851E+02  0.36469903478E+02  0.00000000000E+00 0.  1.
</event>
<event>
 7    1  0.1335379E-011  0.5930195E+02  0.7816164E-02  0.1266605E+00
        -11   -1    0    0    0    0  0.00000000000E+00  0.00000000000E+00  0.45593999997E+02  0.45594000000E+02  0.51100000000E-03 0. -1.
         11   -1    0    0    0    0 -0.00000000000E+00 -0.00000000000E+00 -0.45593999997E+02  0.45594000000E+02  0.51100000000E-03 0.  1.
    9900012    2    1    2    0    0 -0.21802353188E+02  0.17966057813E+02  0.14785061579E+02  0.59301954717E+02  0.50000019495E+02 0.  0.
        -12    1    1    2    0    0  0.21802353188E+02 -0.17966057813E+02 -0.14785061579E+02  0.31886045283E+02  0.00000000000E+00 0.  1.
         11    1    3    3    0    0 -0.97362361467E+01  0.46039247241E+01 -0.33977754698E+00  0.10775243209E+02  0.51100000000E-03 0. -1.
        -11    1    3    3    0    0 -0.17857263137E+02  0.22791665555E+02 -0.99840516728E+00  0.28971342369E+02  0.51100000000E-03 0.  1.
         12    1    3    3    0    0  0.57911460957E+01 -0.94295324664E+01  0.16123244293E+02  0.19555369139E+02  0.00000000000E+00 0. -1.
</event>
<event>
 7    1  0.1335379E-011  0.5930159E+02  0.7816164E-02  0.1266606E+00
        -11   -1    0    0    0    0  0.00000000000E+00  0.00000000000E+00  0.45593999997E+02  0.45594000000E+02  0.51100000000E-03 0.  1.
         11   -1    0    0    0    0 -0.00000000000E+00 -0.00000000000E+00 -0.45593999997E+02  0.45594000000E+02  0.51100000000E-03 0. -1.
    9900012    2    1    2    0    0  0.16761094950E+02  0.17946990588E+02 -0.20339976458E+02  0.59301585692E+02  0.49999346477E+02 0.  0.
        -12    1    1    2    0    0 -0.16761094950E+02 -0.17946990588E+02  0.20339976458E+02  0.31886414308E+02  0.00000000000E+00 0.  1.
         11    1    3    3    0    0  0.23359791806E+02  0.12376528549E+02 -0.10649041187E+02  0.28500182641E+02  0.51100000000E-03 0. -1.
        -11    1    3    3    0    0 -0.81932605052E+01  0.55658772167E+01 -0.18962577298E+02  0.21393640292E+02  0.51100000000E-03 0.  1.
        -12    1    3    3    0    0  0.15945636495E+01  0.45848228777E-02  0.92716420268E+01  0.94077627588E+01  0.00000000000E+00 0.  1.
</event>
<event>
 7    1  0.1335379E-011  0.5930192E+02  0.7816164E-02  0.1266605E+00
        -11   -1    0    0    0    0  0.00000000000E+00  0.00000000000E+00  0.45593999997E+02  0.45594000000E+02  0.51100000000E-03 0.  1.
         11   -1    0    0    0    0 -0.00000000000E+00 -0.00000000000E+00 -0.45593999997E+02  0.45594000000E+02  0.51100000000E-03 0. -1.
    9900012    2    1    2    0    0 -0.28070618866E+02  0.27317069162E+01 -0.14876160286E+02  0.59301921360E+02  0.49999958660E+02 0.  0.
        -12    1    1    2    0    0  0.28070618866E+02 -0.27317069162E+01  0.14876160286E+02  0.31886078640E+02  0.00000000000E+00 0.  1.
         11    1    3    3    0    0  0.38036455427E+01  0.64283141001E+01 -0.32393276977E+01  0.81415100429E+01  0.51100000000E-03 0. -1.
        -11    1    3    3    0    0 -0.55350345436E+01  0.14922496039E+02 -0.10136880659E+02  0.18869919056E+02  0.51100000000E-03 0.  1.
         12    1    3    3    0    0 -0.26339229865E+02 -0.18619103223E+02 -0.14999519291E+01  0.32290492261E+02  0.00000000000E+00 0. -1.
</event>
<event>
 7    1  0.1335379E-011  0.5930194E+02  0.7816164E-02  0.1266605E+00
        -11   -1    0    0    0    0  0.00000000000E+00  0.00000000000E+00  0.45593999997E+02  0.45594000000E+02  0.51100000000E-03 0. -1.
         11   -1    0    0    0    0 -0.00000000000E+00 -0.00000000000E+00 -0.45593999997E+02  0.45594000000E+02  0.51100000000E-03 0.  1.
    9900012    2    1    2    0    0  0.16516865847E+02  0.12180844156E+02  0.24403708400E+02  0.59301940265E+02  0.49999993138E+02 0.  0.
        -12    1    1    2    0    0 -0.16516865847E+02 -0.12180844156E+02 -0.24403708400E+02  0.31886059735E+02  0.00000000000E+00 0.  1.
         11    1    3    3    0    0  0.99128822552E+01  0.16806412782E+02  0.31254716657E+02  0.36845326145E+02  0.51100000000E-03 0. -1.
        -11    1    3    3    0    0 -0.69572684712E+01  0.15549717748E+00 -0.15367927362E+01  0.71266749700E+01  0.51100000000E-03 0.  1.
         12    1    3    3    0    0  0.13561252063E+02 -0.47810658037E+01 -0.53142155206E+01  0.15329939150E+02  0.00000000000E+00 0. -1.
</event>
<event>
 7    1  0.1335379E-011  0.5930194E+02  0.7816164E-02  0.1266605E+00
        -11   -1    0    0    0    0  0.00000000000E+00  0.00000000000E+00  0.45593999997E+02  0.45594000000E+02  0.51100000000E-03 0.  1.
         11   -1    0    0    0    0 -0.00000000000E+00 -0.00000000000E+00 -0.45593999997E+02  0.45594000000E+02  0.51100000000E-03 0. -1.
    9900012    2    1    2    0    0  0.28880272129E+02  0.13474027927E+02  0.10493645265E+01  0.59301941718E+02  0.49999995788E+02 0.  0.
        -12    1    1    2    0    0 -0.28880272129E+02 -0.13474027927E+02 -0.10493645265E+01  0.31886058282E+02  0.00000000000E+00 0.  1.
         11    1    3    3    0    0  0.80064086038E+01  0.11640673848E+02 -0.87625669247E+01  0.16624994609E+02  0.51100000000E-03 0. -1.
        -11    1    3    3    0    0  0.29872016247E+02  0.15075704130E+00  0.87722298161E+00  0.29885274012E+02  0.51100000000E-03 0.  1.
         12    1    3    3    0    0 -0.89981527215E+01  0.16825970375E+01  0.89347084695E+01  0.12791673097E+02  0.00000000000E+00 0. -1.
</event>
<event>
 7    1  0.1335379E-011  0.5930194E+02  0.7816164E-02  0.1266605E+00
        -11   -1    0    0    0    0  0.00000000000E+00  0.00000000000E+00  0.45593999997E+02  0.45594000000E+02  0.51100000000E-03 0.  1.
         11   -1    0    0    0    0 -0.00000000000E+00 -0.00000000000E+00 -0.45593999997E+02  0.45594000000E+02  0.51100000000E-03 0. -1.
    9900012    2    1    2    0    0  0.21290810872E+02  0.15575581145E+02 -0.17911545852E+02  0.59301939873E+02  0.49999992424E+02 0.  0.
        -12    1    1    2    0    0 -0.21290810872E+02 -0.15575581145E+02  0.17911545852E+02  0.31886060127E+02  0.00000000000E+00 0.  1.
         11    1    3    3    0    0  0.12661073900E+02  0.13575372943E+02  0.47897082577E+01  0.19171198406E+02  0.51100000000E-03 0. -1.
        -11    1    3    3    0    0  0.18175096865E+02  0.10758195861E+01 -0.33206745596E+01  0.18507253001E+02  0.51100000000E-03 0.  1.
         12    1    3    3    0    0 -0.95453598932E+01  0.92438861573E+00 -0.19380579550E+02  0.21623488467E+02  0.00000000000E+00 0. -1.
</event>
<event>
 7    1  0.1335379E-011  0.5930193E+02  0.7816164E-02  0.1266605E+00
        -11   -1    0    0    0    0  0.00000000000E+00  0.00000000000E+00  0.45593999997E+02  0.45594000000E+02  0.51100000000E-03 0.  1.
         11   -1    0    0    0    0 -0.00000000000E+00 -0.00000000000E+00 -0.45593999997E+02  0.45594000000E+02  0.51100000000E-03 0. -1.
    9900012    2    1    2    0    0  0.30369695837E+02 -0.21931551070E+01 -0.94653576657E+01  0.59301931721E+02  0.49999977556E+02 0.  0.
        -12    1    1    2    0    0 -0.30369695837E+02  0.21931551070E+01  0.94653576657E+01  0.31886068279E+02  0.00000000000E+00 0.  1.
         11    1    3    3    0    0 -0.21071412963E+01  0.68118018471E+00  0.60328721579E+01  0.64264762989E+01  0.51100000000E-03 0. -1.
        -11    1    3    3    0    0  0.19818668847E+02 -0.57304130766E+01  0.10993166869E+02  0.23376633354E+02  0.51100000000E-03 0.  1.
         12    1    3    3    0    0  0.12658168286E+02  0.28560777848E+01 -0.26491396693E+02  0.29498822068E+02  0.00000000000E+00 0. -1.
</event>
<event>
 7    1  0.1335379E-011  0.5930194E+02  0.7816164E-02  0.1266605E+00
        -11   -1    0    0    0    0  0.00000000000E+00  0.00000000000E+00  0.45593999997E+02  0.45594000000E+02  0.51100000000E-03 0.  1.
         11   -1    0    0    0    0 -0.00000000000E+00 -0.00000000000E+00 -0.45593999997E+02  0.45594000000E+02  0.51100000000E-03 0. -1.
    9900012    2    1    2    0    0  0.13897344222E+02  0.21184788179E+02 -0.19359484585E+02  0.59301936116E+02  0.49999985571E+02 0.  0.
        -12    1    1    2    0    0 -0.13897344222E+02 -0.21184788179E+02  0.19359484585E+02  0.31886063884E+02  0.00000000000E+00 0.  1.
         11    1    3    3    0    0  0.49335833928E+01  0.21071878458E+02 -0.11862534510E+02  0.24679627877E+02  0.51100000000E-03 0. -1.
        -11    1    3    3    0    0 -0.91020717639E+00  0.14282060527E+02 -0.95879392571E+01  0.17225977750E+02  0.51100000000E-03 0.  1.
        -12    1    3    3    0    0  0.98739680058E+01 -0.14169150806E+02  0.20909891825E+01  0.17396330490E+02  0.00000000000E+00 0.  1.
</event>
<event>
 7    1  0.1335379E-011  0.5930202E+02  0.7816164E-02  0.1266605E+00
        -11   -1    0    0    0    0  0.00000000000E+00  0.00000000000E+00  0.45593999997E+02  0.45594000000E+02  0.51100000000E-03 0. -1.
         11   -1    0    0    0    0 -0.00000000000E+00 -0.00000000000E+00 -0.45593999997E+02  0.45594000000E+02  0.51100000000E-03 0.  1.
    9900012    2    1    2    0    0  0.21081179433E+02 -0.20108423171E+01  0.23838127472E+02  0.59302016646E+02  0.50000132437E+02 0.  0.
        -12    1    1    2    0    0 -0.21081179433E+02  0.20108423171E+01 -0.23838127472E+02  0.31885983354E+02  0.00000000000E+00 0.  1.
         11    1    3    3    0    0  0.83237947271E+01  0.13510653507E+01 -0.75432070495E+01  0.11314190607E+02  0.51100000000E-03 0.  1.
        -11    1    3    3    0    0  0.12475434659E+02 -0.17870075525E+02  0.18858191110E+02  0.28820260953E+02  0.51100000000E-03 0. -1.
         12    1    3    3    0    0  0.28195004631E+00  0.14508167857E+02  0.12523143412E+02  0.19167565086E+02  0.00000000000E+00 0. -1.
</event>
<event>
 7    1  0.1335379E-011  0.5930195E+02  0.7816164E-02  0.1266605E+00
        -11   -1    0    0    0    0  0.00000000000E+00  0.00000000000E+00  0.45593999997E+02  0.45594000000E+02  0.51100000000E-03 0. -1.
         11   -1    0    0    0    0 -0.00000000000E+00 -0.00000000000E+00 -0.45593999997E+02  0.45594000000E+02  0.51100000000E-03 0.  1.
    9900012    2    1    2    0    0 -0.24250367082E+02 -0.20523984405E+02  0.27213502556E+01  0.59301953104E+02  0.50000016553E+02 0.  0.
        -12    1    1    2    0    0  0.24250367082E+02  0.20523984405E+02 -0.27213502556E+01  0.31886046896E+02  0.00000000000E+00 0.  1.
         11    1    3    3    0    0 -0.39322384436E+01  0.13364240903E+01 -0.13376380370E+02  0.14006287181E+02  0.51100000000E-03 0. -1.
        -11    1    3    3    0    0 -0.13421851459E+02  0.16596592740E+01 -0.34359615954E+01  0.13953723440E+02  0.51100000000E-03 0.  1.
        -12    1    3    3    0    0 -0.68962771786E+01 -0.23520067769E+02  0.19533692221E+02  0.31341942483E+02  0.00000000000E+00 0.  1.
</event>
<event>
 7    1  0.1335379E-011  0.5930181E+02  0.7816164E-02  0.1266605E+00
        -11   -1    0    0    0    0  0.00000000000E+00  0.00000000000E+00  0.45593999997E+02  0.45594000000E+02  0.51100000000E-03 0.  1.
         11   -1    0    0    0    0 -0.00000000000E+00 -0.00000000000E+00 -0.45593999997E+02  0.45594000000E+02  0.51100000000E-03 0. -1.
    9900012    2    1    2    0    0  0.31807690266E+02  0.19431821009E+01 -0.11064572132E+01  0.59301806055E+02  0.49999748370E+02 0.  0.
        -12    1    1    2    0    0 -0.31807690266E+02 -0.19431821009E+01  0.11064572132E+01  0.31886193945E+02  0.00000000000E+00 0.  1.
         11    1    3    3    0    0  0.37443477396E+01  0.74903564439E+01  0.86895750177E+01  0.12067903459E+02  0.51100000000E-03 0. -1.
        -11    1    3    3    0    0 -0.23056943223E+01  0.92879834581E+01  0.44518662137E+01  0.10554713453E+02  0.51100000000E-03 0.  1.
         12    1    3    3    0    0  0.30369036849E+02 -0.14835157801E+02 -0.14247898445E+02  0.36679189143E+02  0.00000000000E+00 0. -1.
</event>
<event>
 7    1  0.1335379E-011  0.5930193E+02  0.7816164E-02  0.1266605E+00
        -11   -1    0    0    0    0  0.00000000000E+00  0.00000000000E+00  0.45593999997E+02  0.45594000000E+02  0.51100000000E-03 0.  1.
         11   -1    0    0    0    0 -0.00000000000E+00 -0.00000000000E+00 -0.45593999997E+02  0.45594000000E+02  0.51100000000E-03 0. -1.
    9900012    2    1    2    0    0 -0.24018037088E+01  0.23108150545E+02 -0.21839549501E+02  0.59301933998E+02  0.49999981709E+02 0.  0.
        -12    1    1    2    0    0  0.24018037088E+01 -0.23108150545E+02  0.21839549501E+02  0.31886066002E+02  0.00000000000E+00 0.  1.
         11    1    3    3    0    0 -0.28031569910E+01  0.28183385853E+02 -0.13950818772E+02  0.31571922208E+02  0.51100000000E-03 0. -1.
        -11    1    3    3    0    0  0.88566515389E+01  0.70698783019E+01 -0.91106566757E+00  0.11368970780E+02  0.51100000000E-03 0.  1.
         12    1    3    3    0    0 -0.84552982567E+01 -0.12145113610E+02 -0.69776650618E+01  0.16361041010E+02  0.00000000000E+00 0. -1.
</event>
<event>
 7    1  0.1335379E-011  0.5930193E+02  0.7816164E-02  0.1266605E+00
        -11   -1    0    0    0    0  0.00000000000E+00  0.00000000000E+00  0.45593999997E+02  0.45594000000E+02  0.51100000000E-03 0.  1.
         11   -1    0    0    0    0 -0.00000000000E+00 -0.00000000000E+00 -0.45593999997E+02  0.45594000000E+02  0.51100000000E-03 0. -1.
    9900012    2    1    2    0    0 -0.20487657303E+02 -0.70079693794E+01 -0.23406532168E+02  0.59301929614E+02  0.49999973712E+02 0.  0.
        -12    1    1    2    0    0  0.20487657303E+02  0.70079693794E+01  0.23406532168E+02  0.31886070386E+02  0.00000000000E+00 0.  1.
         11    1    3    3    0    0 -0.11850106506E+01 -0.69166519392E+00  0.21694722582E+01  0.25669556137E+01  0.51100000000E-03 0. -1.
        -11    1    3    3    0    0 -0.12909255295E+02 -0.54317870076E+01  0.12101013691E+02  0.18509125182E+02  0.51100000000E-03 0.  1.
         12    1    3    3    0    0 -0.63933913572E+01 -0.88451717791E+00 -0.37677018117E+02  0.38225848818E+02  0.00000000000E+00 0. -1.
</event>
<event>
 7    1  0.1335379E-011  0.5930192E+02  0.7816164E-02  0.1266605E+00
        -11   -1    0    0    0    0  0.00000000000E+00  0.00000000000E+00  0.45593999997E+02  0.45594000000E+02  0.51100000000E-03 0.  1.
         11   -1    0    0    0    0 -0.00000000000E+00 -0.00000000000E+00 -0.45593999997E+02  0.45594000000E+02  0.51100000000E-03 0. -1.
    9900012    2    1    2    0    0 -0.22877222385E+02 -0.80495537044E+00 -0.22196996727E+02  0.59301922773E+02  0.49999961236E+02 0.  0.
        -12    1    1    2    0    0  0.22877222385E+02  0.80495537044E+00  0.22196996727E+02  0.31886077227E+02  0.00000000000E+00 0.  1.
         11    1    3    3    0    0  0.13752964684E+01 -0.32425680524E+01  0.35863830488E+01  0.50267118063E+01  0.51100000000E-03 0. -1.
        -11    1    3    3    0    0  0.22086066392E+01 -0.12021645830E+02  0.30035820957E+01  0.12586477562E+02  0.51100000000E-03 0.  1.
         12    1    3    3    0    0 -0.26461125493E+02  0.14459258512E+02 -0.28786961872E+02  0.41688733405E+02  0.00000000000E+00 0. -1.
</event>
<event>
 7    1  0.1335379E-011  0.5930197E+02  0.7816164E-02  0.1266605E+00
        -11   -1    0    0    0    0  0.00000000000E+00  0.00000000000E+00  0.45593999997E+02  0.45594000000E+02  0.51100000000E-03 0. -1.
         11   -1    0    0    0    0 -0.00000000000E+00 -0.00000000000E+00 -0.45593999997E+02  0.45594000000E+02  0.51100000000E-03 0.  1.
    9900012    2    1    2    0    0  0.36933621865E+01  0.31427769702E+02  0.39208868457E+01  0.59301968789E+02  0.50000045159E+02 0.  0.
        -12    1    1    2    0    0 -0.36933621865E+01 -0.31427769702E+02 -0.39208868457E+01  0.31886031211E+02  0.00000000000E+00 0.  1.
         11    1    3    3    0    0 -0.41671648206E+01  0.13114416371E+02  0.20474377852E+02  0.24668873669E+02  0.51100000000E-03 0. -1.
        -11    1    3    3    0    0 -0.47103651740E+01  0.43258095720E+01  0.33755859665E+01  0.72315108660E+01  0.51100000000E-03 0.  1.
        -12    1    3    3    0    0  0.12570892181E+02  0.13987543760E+02 -0.19929076973E+02  0.27401584255E+02  0.00000000000E+00 0.  1.
</event>
<event>
 7    1  0.1335379E-011  0.5930195E+02  0.7816164E-02  0.1266605E+00
        -11   -1    0    0    0    0  0.00000000000E+00  0.00000000000E+00  0.45593999997E+02  0.45594000000E+02  0.51100000000E-03 0. -1.
         11   -1    0    0    0    0 -0.00000000000E+00 -0.00000000000E+00 -0.45593999997E+02  0.45594000000E+02  0.51100000000E-03 0.  1.
    9900012    2    1    2    0    0 -0.30971781563E+02  0.47466546265E+01  0.59108770452E+01  0.59301945826E+02  0.50000003280E+02 0.  0.
        -12    1    1    2    0    0  0.30971781563E+02 -0.47466546265E+01 -0.59108770452E+01  0.31886054174E+02  0.00000000000E+00 0.  1.
         11    1    3    3    0    0 -0.82410342936E+01 -0.18484612405E+01 -0.12373472501E+02  0.14981130705E+02  0.51100000000E-03 0. -1.
        -11    1    3    3    0    0 -0.29410601214E+02  0.59899868294E+01  0.64222612444E+01  0.30693791648E+02  0.51100000000E-03 0.  1.
         12    1    3    3    0    0  0.66798539444E+01  0.60512903750E+00  0.11862088302E+02  0.13627023474E+02  0.00000000000E+00 0. -1.
</event>
<event>
 7    1  0.1335379E-011  0.5930195E+02  0.7816164E-02  0.1266605E+00
        -11   -1    0    0    0    0  0.00000000000E+00  0.00000000000E+00  0.45593999997E+02  0.45594000000E+02  0.51100000000E-03 0.  1.
         11   -1    0    0    0    0 -0.00000000000E+00 -0.00000000000E+00 -0.45593999997E+02  0.45594000000E+02  0.51100000000E-03 0. -1.
    9900012    2    1    2    0    0  0.93875772395E+01  0.26364247423E+02 -0.15281358066E+02  0.59301952065E+02  0.50000014658E+02 0.  0.
        -12    1    1    2    0    0 -0.93875772395E+01 -0.26364247423E+02  0.15281358066E+02  0.31886047935E+02  0.00000000000E+00 0.  1.
         11    1    3    3    0    0  0.92931620118E+01  0.96065160757E+01  0.82735593963E+01  0.15719408279E+02  0.51100000000E-03 0. -1.
        -11    1    3    3    0    0  0.10242832450E+02 -0.57886167769E+01 -0.56267219728E+01  0.13041614210E+02  0.51100000000E-03 0.  1.
         12    1    3    3    0    0 -0.10148417222E+02  0.22546348124E+02 -0.17928195489E+02  0.30540929576E+02  0.00000000000E+00 0. -1.
</event>
<event>
 7    1  0.1335379E-011  0.5930193E+02  0.7816164E-02  0.1266605E+00
        -11   -1    0    0    0    0  0.00000000000E+00  0.00000000000E+00  0.45593999997E+02  0.45594000000E+02  0.51100000000E-03 0. -1.
         11   -1    0    0    0    0 -0.00000000000E+00 -0.00000000000E+00 -0.45593999997E+02  0.45594000000E+02  0.51100000000E-03 0.  1.
    9900012    2    1    2    0    0 -0.27094952465E+02  0.23448622725E+00  0.16808622280E+02  0.59301933829E+02  0.49999981400E+02 0.  0.
        -12    1    1    2    0    0  0.27094952465E+02 -0.23448622725E+00 -0.16808622280E+02  0.31886066171E+02  0.00000000000E+00 0.  1.
         11    1    3    3    0    0  0.33057372529E+01  0.92351011914E+01  0.23718900915E+00  0.98117914618E+01  0.51100000000E-03 0. -1.
        -11    1    3    3    0    0  0.50800055988E+01 -0.57076054980E+01 -0.37051143598E+01  0.84918248972E+01  0.51100000000E-03 0.  1.
         12    1    3    3    0    0 -0.35480695317E+02 -0.32930094662E+01  0.20276547631E+02  0.40998317470E+02  0.00000000000E+00 0. -1.
</event>
<event>
 7    1  0.1335379E-011  0.5930192E+02  0.7816164E-02  0.1266605E+00
        -11   -1    0    0    0    0  0.00000000000E+00  0.00000000000E+00  0.45593999997E+02  0.45594000000E+02  0.51100000000E-03 0. -1.
         11   -1    0    0    0    0 -0.00000000000E+00 -0.00000000000E+00 -0.45593999997E+02  0.45594000000E+02  0.51100000000E-03 0.  1.
    9900012    2    1    2    0    0 -0.19224657330E+01 -0.25282321405E+02  0.19334692006E+02  0.59301922080E+02  0.49999959973E+02 0.  0.
        -12    1    1    2    0    0  0.19224657330E+01  0.25282321405E+02 -0.19334692006E+02  0.31886077920E+02  0.00000000000E+00 0.  1.
         11    1    3    3    0    0  0.11200323727E+02 -0.11385004475E+02  0.13879090717E+02  0.21158798121E+02  0.51100000000E-03 0. -1.
        -11    1    3    3    0    0  0.98254547656E+01 -0.27318843870E+01  0.73222245093E+01  0.12554589825E+02  0.51100000000E-03 0.  1.
        -12    1    3    3    0    0 -0.22948244226E+02 -0.11165432543E+02 -0.18666232208E+01  0.25588534135E+02  0.00000000000E+00 0.  1.
</event>
<event>
 7    1  0.1335379E-011  0.5930194E+02  0.7816164E-02  0.1266605E+00
        -11   -1    0    0    0    0  0.00000000000E+00  0.00000000000E+00  0.45593999997E+02  0.45594000000E+02  0.51100000000E-03 0.  1.
         11   -1    0    0    0    0 -0.00000000000E+00 -0.00000000000E+00 -0.45593999997E+02  0.45594000000E+02  0.51100000000E-03 0. -1.
    9900012    2    1    2    0    0 -0.21000309530E+02 -0.23867296814E+02 -0.24616921027E+01  0.59301940576E+02  0.49999993704E+02 0.  0.
        -12    1    1    2    0    0  0.21000309530E+02  0.23867296814E+02  0.24616921027E+01  0.31886059424E+02  0.00000000000E+00 0.  1.
         11    1    3    3    0    0  0.54069710916E+01 -0.70036970332E+01  0.90221176663E+01  0.12636681367E+02  0.51100000000E-03 0. -1.
        -11    1    3    3    0    0 -0.87284973723E+01  0.32131928396E+01  0.90229019328E+01  0.12958550619E+02  0.51100000000E-03 0.  1.
         12    1    3    3    0    0 -0.17678783250E+02 -0.20076792621E+02 -0.20506711702E+02  0.33706708590E+02  0.00000000000E+00 0. -1.
</event>
<event>
 7    1  0.1335379E-011  0.5930196E+02  0.7816164E-02  0.1266605E+00
        -11   -1    0    0    0    0  0.00000000000E+00  0.00000000000E+00  0.45593999997E+02  0.45594000000E+02  0.51100000000E-03 0. -1.
         11   -1    0    0    0    0 -0.00000000000E+00 -0.00000000000E+00 -0.45593999997E+02  0.45594000000E+02  0.51100000000E-03 0.  1.
    9900012    2    1    2    0    0 -0.25468652638E+02  0.18835980649E+02  0.36432136536E+01  0.59301961677E+02  0.50000032188E+02 0.  0.
        -12    1    1    2    0    0  0.25468652638E+02 -0.18835980649E+02 -0.36432136536E+01  0.31886038323E+02  0.00000000000E+00 0.  1.
         11    1    3    3    0    0 -0.10460087630E+02  0.85365653690E+01 -0.76422524738E+01  0.15514200097E+02  0.51100000000E-03 0. -1.
        -11    1    3    3    0    0  0.11354110941E+02 -0.42519744366E+01  0.44057308469E+01  0.12899828930E+02  0.51100000000E-03 0.  1.
         12    1    3    3    0    0 -0.26362675949E+02  0.14551389717E+02  0.68797352805E+01  0.30887932650E+02  0.00000000000E+00 0. -1.
</event>
<event>
 7    1  0.1335379E-011  0.5930195E+02  0.7816164E-02  0.1266605E+00
        -11   -1    0    0    0    0  0.00000000000E+00  0.00000000000E+00  0.45593999997E+02  0.45594000000E+02  0.51100000000E-03 0. -1.
         11   -1    0    0    0    0 -0.00000000000E+00 -0.00000000000E+00 -0.45593999997E+02  0.45594000000E+02  0.51100000000E-03 0.  1.
    9900012    2    1    2    0    0  0.23202480698E+01 -0.10812298045E+02  0.29907041971E+02  0.59301945061E+02  0.50000001884E+02 0.  0.
        -12    1    1    2    0    0 -0.23202480698E+01  0.10812298045E+02 -0.29907041971E+02  0.31886054939E+02  0.00000000000E+00 0.  1.
         11    1    3    3    0    0  0.19632576053E+01 -0.85268680876E+01  0.12360365438E+02  0.15143992004E+02  0.51100000000E-03 0. -1.
        -11    1    3    3    0    0  0.17652990397E+02  0.16819952982E+01  0.19438930902E+02  0.26312149533E+02  0.51100000000E-03 0.  1.
        -12    1    3    3    0    0 -0.17295999933E+02 -0.39674252556E+01 -0.18922543690E+01  0.17845803524E+02  0.00000000000E+00 0.  1.
</event>
<event>
 7    1  0.1335379E-011  0.5930204E+02  0.7816164E-02  0.1266604E+00
        -11   -1    0    0    0    0  0.00000000000E+00  0.00000000000E+00  0.45593999997E+02  0.45594000000E+02  0.51100000000E-03 0.  1.
         11   -1    0    0    0    0 -0.00000000000E+00 -0.00000000000E+00 -0.45593999997E+02  0.45594000000E+02  0.51100000000E-03 0. -1.
    9900012    2    1    2    0    0  0.11538673483E+02  0.11943942646E+02 -0.27219770710E+02  0.59302036486E+02  0.50000168622E+02 0.  0.
        -12    1    1    2    0    0 -0.11538673483E+02 -0.11943942646E+02  0.27219770710E+02  0.31885963514E+02  0.00000000000E+00 0.  1.
         11    1    3    3    0    0  0.10853677517E+02  0.13143052132E+02 -0.37372963568E+02  0.41076520558E+02  0.51100000000E-03 0. -1.
        -11    1    3    3    0    0  0.19075289832E+01  0.64824435636E+01  0.72822152708E+01  0.99343545784E+01  0.51100000000E-03 0.  1.
        -12    1    3    3    0    0 -0.12225330174E+01 -0.76815530493E+01  0.28709775874E+01  0.82911613503E+01  0.00000000000E+00 0.  1.
</event>
<event>
 7    1  0.1563100E-011  0.5930195E+02  0.7816164E-02  0.1266605E+00
        -11   -1    0    0    0    0  0.00000000000E+00  0.00000000000E+00  0.45593999997E+02  0.45594000000E+02  0.51100000000E-03 0. -1.
         11   -1    0    0    0    0 -0.00000000000E+00 -0.00000000000E+00 -0.45593999997E+02  0.45594000000E+02  0.51100000000E-03 0.  1.
    9900012    2    1    2    0    0  0.41121943518E+01  0.18063856023E+02  0.25952016692E+02  0.59301949646E+02  0.50000010246E+02 0.  0.
        -12    1    1    2    0    0 -0.41121943518E+01 -0.18063856023E+02 -0.25952016692E+02  0.31886050354E+02  0.00000000000E+00 0.  1.
         11    1    3    3    0    0 -0.85403306962E+00  0.27217371147E+02  0.16463216917E+02  0.31820625012E+02  0.51100000000E-03 0. -1.
        -11    1    3    3    0    0 -0.71806143792E+01  0.34934298116E+01  0.48496751338E+01  0.93426240359E+01  0.51100000000E-03 0.  1.
        -12    1    3    3    0    0  0.12146841801E+02 -0.12646944936E+02  0.46391246415E+01  0.18138700598E+02  0.00000000000E+00 0.  1.
</event>
<event>
 7    1  0.1335379E-011  0.5930197E+02  0.7816164E-02  0.1266605E+00
        -11   -1    0    0    0    0  0.00000000000E+00  0.00000000000E+00  0.45593999997E+02  0.45594000000E+02  0.51100000000E-03 0.  1.
         11   -1    0    0    0    0 -0.00000000000E+00 -0.00000000000E+00 -0.45593999997E+02  0.45594000000E+02  0.51100000000E-03 0. -1.
    9900012    2    1    2    0    0  0.17713231116E+02  0.20704190938E+02 -0.16561911248E+02  0.59301968840E+02  0.50000045251E+02 0.  0.
        -12    1    1    2    0    0 -0.17713231116E+02 -0.20704190938E+02  0.16561911248E+02  0.31886031160E+02  0.00000000000E+00 0.  1.
         11    1    3    3    0    0  0.19050328672E+01  0.28670985152E+00 -0.39416547374E+01  0.43872537075E+01  0.51100000000E-03 0. -1.
        -11    1    3    3    0    0  0.26526608473E+01  0.70001215791E+01 -0.29022408485E+02  0.29972295645E+02  0.51100000000E-03 0.  1.
         12    1    3    3    0    0  0.13155537402E+02  0.13417359508E+02  0.16402151975E+02  0.24942419487E+02  0.00000000000E+00 0. -1.
</event>
<event>
 7    1  0.1335379E-011  0.5930191E+02  0.7816164E-02  0.1266605E+00
        -11   -1    0    0    0    0  0.00000000000E+00  0.00000000000E+00  0.45593999997E+02  0.45594000000E+02  0.51100000000E-03 0.  1.
         11   -1    0    0    0    0 -0.00000000000E+00 -0.00000000000E+00 -0.45593999997E+02  0.45594000000E+02  0.51100000000E-03 0. -1.
    9900012    2    1    2    0    0  0.15973935065E+01 -0.12754590340E+02 -0.29180332352E+02  0.59301905273E+02  0.49999929321E+02 0.  0.
        -12    1    1    2    0    0 -0.15973935065E+01  0.12754590340E+02  0.29180332352E+02  0.31886094727E+02  0.00000000000E+00 0.  1.
         11    1    3    3    0    0 -0.61520975563E-01 -0.12871719623E+02 -0.15183010188E+02  0.19904993080E+02  0.51100000000E-03 0. -1.
        -11    1    3    3    0    0  0.18313192827E+02  0.27513718049E+01 -0.18402555427E+01  0.18609933344E+02  0.51100000000E-03 0.  1.
         12    1    3    3    0    0 -0.16654278345E+02 -0.26342425224E+01 -0.12157066621E+02  0.20786978850E+02  0.00000000000E+00 0. -1.
</event>
<event>
 7    1  0.1335379E-011  0.5930195E+02  0.7816164E-02  0.1266605E+00
        -11   -1    0    0    0    0  0.00000000000E+00  0.00000000000E+00  0.45593999997E+02  0.45594000000E+02  0.51100000000E-03 0.  1.
         11   -1    0    0    0    0 -0.00000000000E+00 -0.00000000000E+00 -0.45593999997E+02  0.45594000000E+02  0.51100000000E-03 0. -1.
    9900012    2    1    2    0    0 -0.30832170623E+01  0.42550509543E+01 -0.31450099930E+02  0.59301945498E+02  0.50000002682E+02 0.  0.
        -12    1    1    2    0    0  0.30832170623E+01 -0.42550509543E+01  0.31450099930E+02  0.31886054502E+02  0.00000000000E+00 0.  1.
         11    1    3    3    0    0 -0.87749587487E+01  0.16437014602E+02 -0.13570724637E+02  0.23050811645E+02  0.51100000000E-03 0. -1.
        -11    1    3    3    0    0 -0.80313013828E+01  0.35300487147E+00 -0.15568846617E+02  0.17521854913E+02  0.51100000000E-03 0.  1.
         12    1    3    3    0    0  0.13723043069E+02 -0.12534968519E+02 -0.23105286764E+01  0.18729278940E+02  0.00000000000E+00 0. -1.
</event>
<event>
 7    1  0.1335379E-011  0.5930195E+02  0.7816164E-02  0.1266605E+00
        -11   -1    0    0    0    0  0.00000000000E+00  0.00000000000E+00  0.45593999997E+02  0.45594000000E+02  0.51100000000E-03 0. -1.
         11   -1    0    0    0    0 -0.00000000000E+00 -0.00000000000E+00 -0.45593999997E+02  0.45594000000E+02  0.51100000000E-03 0.  1.
    9900012    2    1    2    0    0  0.17717825429E+02  0.42453001522E+01  0.26168235388E+02  0.59301945765E+02  0.50000003168E+02 0.  0.
        -12    1    1    2    0    0 -0.17717825429E+02 -0.42453001522E+01 -0.26168235388E+02  0.31886054235E+02  0.00000000000E+00 0.  1.
         11    1    3    3    0    0 -0.26783774343E+01  0.15872158385E+02  0.10281410477E+01  0.16129358070E+02  0.51100000000E-03 0. -1.
        -11    1    3    3    0    0  0.36750002018E+01 -0.52768284171E+01 -0.49858979423E+01  0.81369357364E+01  0.51100000000E-03 0.  1.
         12    1    3    3    0    0  0.16721202662E+02 -0.63500298157E+01  0.30125992283E+02  0.35035651959E+02  0.00000000000E+00 0. -1.
</event>
<event>
 7    1  0.1335379E-011  0.5930197E+02  0.7816164E-02  0.1266605E+00
        -11   -1    0    0    0    0  0.00000000000E+00  0.00000000000E+00  0.45593999997E+02  0.45594000000E+02  0.51100000000E-03 0. -1.
         11   -1    0    0    0    0 -0.00000000000E+00 -0.00000000000E+00 -0.45593999997E+02  0.45594000000E+02  0.51100000000E-03 0.  1.
    9900012    2    1    2    0    0  0.31336257048E+02  0.40940785893E+01  0.42422166793E+01  0.59301970338E+02  0.50000047983E+02 0.  0.
        -12    1    1    2    0    0 -0.31336257048E+02 -0.40940785893E+01 -0.42422166793E+01  0.31886029662E+02  0.00000000000E+00 0.  1.
         11    1    3    3    0    0  0.33927692712E+02  0.10800480741E+02  0.27449645526E+01  0.35710972370E+02  0.51100000000E-03 0. -1.
        -11    1    3    3    0    0  0.22799384409E+01 -0.92298872357E+01 -0.81305616109E+01  0.12509794964E+02  0.51100000000E-03 0.  1.
         12    1    3    3    0    0 -0.48713741045E+01  0.25234850837E+01  0.96278137375E+01  0.11081203003E+02  0.00000000000E+00 0. -1.
</event>
<event>
 7    1  0.1335379E-011  0.5930194E+02  0.7816164E-02  0.1266605E+00
        -11   -1    0    0    0    0  0.00000000000E+00  0.00000000000E+00  0.45593999997E+02  0.45594000000E+02  0.51100000000E-03 0. -1.
         11   -1    0    0    0    0 -0.00000000000E+00 -0.00000000000E+00 -0.45593999997E+02  0.45594000000E+02  0.51100000000E-03 0.  1.
    9900012    2    1    2    0    0  0.91905665486E+01 -0.20092902049E+01  0.30466652438E+02  0.59301942367E+02  0.49999996971E+02 0.  0.
        -12    1    1    2    0    0 -0.91905665486E+01  0.20092902049E+01 -0.30466652438E+02  0.31886057633E+02  0.00000000000E+00 0.  1.
         11    1    3    3    0    0 -0.17089158762E+01  0.37910994865E+01 -0.73535822855E+01  0.84479584208E+01  0.51100000000E-03 0. -1.
        -11    1    3    3    0    0  0.10985683462E+02 -0.17186661634E+01 -0.15903798213E+01  0.11232469129E+02  0.51100000000E-03 0.  1.
         12    1    3    3    0    0 -0.86201036835E-01 -0.40817235280E+01  0.39410614545E+02  0.39621514817E+02  0.00000000000E+00 0. -1.
</event>
<event>
 7    1  0.1335379E-011  0.5930195E+02  0.7816164E-02  0.1266605E+00
        -11   -1    0    0    0    0  0.00000000000E+00  0.00000000000E+00  0.45593999997E+02  0.45594000000E+02  0.51100000000E-03 0.  1.
         11   -1    0    0    0    0 -0.00000000000E+00 -0.00000000000E+00 -0.45593999997E+02  0.45594000000E+02  0.51100000000E-03 0. -1.
    9900012    2    1    2    0    0 -0.12636098997E+02 -0.12096278582E+02 -0.26659507924E+02  0.59301947938E+02  0.50000007131E+02 0.  0.
        -12    1    1    2    0    0  0.12636098997E+02  0.12096278582E+02  0.26659507924E+02  0.31886052062E+02  0.00000000000E+00 0.  1.
         11    1    3    3    0    0  0.40621173111E+01 -0.12719813692E+01  0.80032761369E+01  0.90648310981E+01  0.51100000000E-03 0.  1.
        -11    1    3    3    0    0 -0.15294519066E+02  0.80327860068E+01 -0.14076899294E+02  0.22284682150E+02  0.51100000000E-03 0. -1.
         12    1    3    3    0    0 -0.14036972412E+01 -0.18857083219E+02 -0.20585884766E+02  0.27952434690E+02  0.00000000000E+00 0. -1.
</event>
<event>
 7    1  0.1335379E-011  0.5930198E+02  0.7816164E-02  0.1266605E+00
        -11   -1    0    0    0    0  0.00000000000E+00  0.00000000000E+00  0.45593999997E+02  0.45594000000E+02  0.51100000000E-03 0. -1.
         11   -1    0    0    0    0 -0.00000000000E+00 -0.00000000000E+00 -0.45593999997E+02  0.45594000000E+02  0.51100000000E-03 0.  1.
    9900012    2    1    2    0    0  0.24794891994E+01 -0.20802541512E+02  0.24037989855E+02  0.59301975533E+02  0.50000057458E+02 0.  0.
        -12    1    1    2    0    0 -0.24794891994E+01  0.20802541512E+02 -0.24037989855E+02  0.31886024467E+02  0.00000000000E+00 0.  1.
         11    1    3    3    0    0 -0.29325423017E+01 -0.71055293790E+01  0.69073424537E+01  0.10334395587E+02  0.51100000000E-03 0. -1.
        -11    1    3    3    0    0  0.32940175071E+01 -0.17986989272E+02  0.30057992115E+02  0.35183308893E+02  0.51100000000E-03 0.  1.
        -12    1    3    3    0    0  0.21180139939E+01  0.42899771393E+01 -0.12927344714E+02  0.13784271054E+02  0.00000000000E+00 0.  1.
</event>
<event>
 7    1  0.1335379E-011  0.5930195E+02  0.7816164E-02  0.1266605E+00
        -11   -1    0    0    0    0  0.00000000000E+00  0.00000000000E+00  0.45593999997E+02  0.45594000000E+02  0.51100000000E-03 0. -1.
         11   -1    0    0    0    0 -0.00000000000E+00 -0.00000000000E+00 -0.45593999997E+02  0.45594000000E+02  0.51100000000E-03 0.  1.
    9900012    2    1    2    0    0 -0.29079805160E+02  0.77464766613E+01  0.10539329653E+02  0.59301946021E+02  0.50000003636E+02 0.  0.
        -12    1    1    2    0    0  0.29079805160E+02 -0.77464766613E+01 -0.10539329653E+02  0.31886053979E+02  0.00000000000E+00 0.  1.
         11    1    3    3    0    0  0.99711328359E+01  0.11610910533E+02 -0.25231712271E+01  0.15511387002E+02  0.51100000000E-03 0.  1.
        -11    1    3    3    0    0 -0.10851459811E+02 -0.75303492540E+00  0.10802293673E+02  0.15330061660E+02  0.51100000000E-03 0. -1.
        -12    1    3    3    0    0 -0.28199478185E+02 -0.31113989462E+01  0.22602072064E+01  0.28460497359E+02  0.00000000000E+00 0.  1.
</event>
<event>
 7    1  0.1335379E-011  0.5930195E+02  0.7816164E-02  0.1266605E+00
        -11   -1    0    0    0    0  0.00000000000E+00  0.00000000000E+00  0.45593999997E+02  0.45594000000E+02  0.51100000000E-03 0.  1.
         11   -1    0    0    0    0 -0.00000000000E+00 -0.00000000000E+00 -0.45593999997E+02  0.45594000000E+02  0.51100000000E-03 0. -1.
    9900012    2    1    2    0    0  0.88289276490E+01 -0.30623357576E+02 -0.98991853655E+00  0.59301953971E+02  0.50000018134E+02 0.  0.
        -12    1    1    2    0    0 -0.88289276490E+01  0.30623357576E+02  0.98991853655E+00  0.31886046029E+02  0.00000000000E+00 0.  1.
         11    1    3    3    0    0  0.10466133751E+02 -0.11796495510E+02  0.13948899174E+02  0.21053955696E+02  0.51100000000E-03 0. -1.
        -11    1    3    3    0    0  0.91818059236E+01 -0.10998926888E+02  0.41820943750E+01  0.14925544088E+02  0.51100000000E-03 0.  1.
         12    1    3    3    0    0 -0.10819012025E+02 -0.78279351779E+01 -0.19120912085E+02  0.23322454187E+02  0.00000000000E+00 0. -1.
</event>
<event>
 7    1  0.1335379E-011  0.5930202E+02  0.7816164E-02  0.1266605E+00
        -11   -1    0    0    0    0  0.00000000000E+00  0.00000000000E+00  0.45593999997E+02  0.45594000000E+02  0.51100000000E-03 0.  1.
         11   -1    0    0    0    0 -0.00000000000E+00 -0.00000000000E+00 -0.45593999997E+02  0.45594000000E+02  0.51100000000E-03 0. -1.
    9900012    2    1    2    0    0 -0.72947381826E+01 -0.18570024859E+02 -0.24872815320E+02  0.59302016083E+02  0.50000131411E+02 0.  0.
        -12    1    1    2    0    0  0.72947381826E+01  0.18570024859E+02  0.24872815320E+02  0.31885983917E+02  0.00000000000E+00 0.  1.
         11    1    3    3    0    0 -0.56002485265E+00 -0.10217093033E+02  0.48577487433E+01  0.11326974044E+02  0.51100000000E-03 0. -1.
        -11    1    3    3    0    0  0.13423831631E+02  0.26562216006E+01 -0.59765271932E+01  0.14932302113E+02  0.51100000000E-03 0.  1.
         12    1    3    3    0    0 -0.20158544961E+02 -0.11009153427E+02 -0.23754036870E+02  0.33042739925E+02  0.00000000000E+00 0. -1.
</event>
<event>
 7    1  0.1335379E-011  0.5930195E+02  0.7816164E-02  0.1266605E+00
        -11   -1    0    0    0    0  0.00000000000E+00  0.00000000000E+00  0.45593999997E+02  0.45594000000E+02  0.51100000000E-03 0.  1.
         11   -1    0    0    0    0 -0.00000000000E+00 -0.00000000000E+00 -0.45593999997E+02  0.45594000000E+02  0.51100000000E-03 0. -1.
    9900012    2    1    2    0    0  0.67253620964E+01  0.19091402855E+02  0.24637527827E+02  0.59301953903E+02  0.50000018010E+02 0.  0.
        -12    1    1    2    0    0 -0.67253620964E+01 -0.19091402855E+02 -0.24637527827E+02  0.31886046097E+02  0.00000000000E+00 0.  1.
         11    1    3    3    0    0  0.26240342890E+01 -0.66423383296E+00  0.65725914443E+01  0.71081447010E+01  0.51100000000E-03 0. -1.
        -11    1    3    3    0    0  0.71219856310E+01 -0.10703354400E+02 -0.50761499571E+01  0.13822147930E+02  0.51100000000E-03 0.  1.
         12    1    3    3    0    0 -0.30206578236E+01  0.30458991088E+02  0.23141086339E+02  0.38371661272E+02  0.00000000000E+00 0. -1.
</event>
<event>
 7    1  0.1335379E-011  0.5930199E+02  0.7816164E-02  0.1266605E+00
        -11   -1    0    0    0    0  0.00000000000E+00  0.00000000000E+00  0.45593999997E+02  0.45594000000E+02  0.51100000000E-03 0. -1.
         11   -1    0    0    0    0 -0.00000000000E+00 -0.00000000000E+00 -0.45593999997E+02  0.45594000000E+02  0.51100000000E-03 0.  1.
    9900012    2    1    2    0    0  0.31127336360E+02 -0.49788653030E+01  0.47976742597E+01  0.59301986657E+02  0.50000077746E+02 0.  0.
        -12    1    1    2    0    0 -0.31127336360E+02  0.49788653030E+01 -0.47976742597E+01  0.31886013343E+02  0.00000000000E+00 0.  1.
         11    1    3    3    0    0  0.80086655700E+01  0.11298892663E+02  0.10418589541E+02  0.17330629184E+02  0.51100000000E-03 0. -1.
        -11    1    3    3    0    0  0.11739837895E+02  0.71105910845E+01  0.39087580022E+01  0.14271043716E+02  0.51100000000E-03 0.  1.
        -12    1    3    3    0    0  0.11378832895E+02 -0.23388349050E+02 -0.95296732832E+01  0.27700313757E+02  0.00000000000E+00 0.  1.
</event>
<event>
 7    1  0.1335379E-011  0.5930194E+02  0.7816164E-02  0.1266605E+00
        -11   -1    0    0    0    0  0.00000000000E+00  0.00000000000E+00  0.45593999997E+02  0.45594000000E+02  0.51100000000E-03 0. -1.
         11   -1    0    0    0    0 -0.00000000000E+00 -0.00000000000E+00 -0.45593999997E+02  0.45594000000E+02  0.51100000000E-03 0.  1.
    9900012    2    1    2    0    0  0.26612103805E+02  0.15210326253E+02  0.87842415410E+01  0.59301937322E+02  0.49999987771E+02 0.  0.
        -12    1    1    2    0    0 -0.26612103805E+02 -0.15210326253E+02 -0.87842415410E+01  0.31886062678E+02  0.00000000000E+00 0.  1.
         11    1    3    3    0    0  0.14038077969E+02 -0.99879140383E+01 -0.10434328349E+02  0.20142027412E+02  0.51100000000E-03 0. -1.
        -11    1    3    3    0    0  0.17873819149E+01 -0.45853473946E-01 -0.32340125013E+01  0.36953584089E+01  0.51100000000E-03 0.  1.
         12    1    3    3    0    0  0.10786643921E+02  0.25244093766E+02  0.22452582392E+02  0.35464551501E+02  0.00000000000E+00 0. -1.
</event>
<event>
 7    1  0.1335379E-011  0.5930197E+02  0.7816164E-02  0.1266605E+00
        -11   -1    0    0    0    0  0.00000000000E+00  0.00000000000E+00  0.45593999997E+02  0.45594000000E+02  0.51100000000E-03 0.  1.
         11   -1    0    0    0    0 -0.00000000000E+00 -0.00000000000E+00 -0.45593999997E+02  0.45594000000E+02  0.51100000000E-03 0. -1.
    9900012    2    1    2    0    0  0.29633571633E+02 -0.24469197304E+01 -0.11514478003E+02  0.59301965634E+02  0.50000039405E+02 0.  0.
        -12    1    1    2    0    0 -0.29633571633E+02  0.24469197304E+01  0.11514478003E+02  0.31886034366E+02  0.00000000000E+00 0.  1.
         11    1    3    3    0    0  0.22177962695E+01  0.15460835642E+02  0.76838728606E+01  0.17406836630E+02  0.51100000000E-03 0.  1.
        -11    1    3    3    0    0  0.63387978411E+01 -0.57516911848E+01  0.28891582038E+01  0.90338001385E+01  0.51100000000E-03 0. -1.
        -12    1    3    3    0    0  0.21076977523E+02 -0.12156064188E+02 -0.22087509068E+02  0.32861328866E+02  0.00000000000E+00 0.  1.
</event>
<event>
 7    1  0.1335379E-011  0.5930192E+02  0.7816164E-02  0.1266605E+00
        -11   -1    0    0    0    0  0.00000000000E+00  0.00000000000E+00  0.45593999997E+02  0.45594000000E+02  0.51100000000E-03 0. -1.
         11   -1    0    0    0    0 -0.00000000000E+00 -0.00000000000E+00 -0.45593999997E+02  0.45594000000E+02  0.51100000000E-03 0.  1.
    9900012    2    1    2    0    0  0.94352843548E+01  0.30274364190E+02  0.33407073771E+01  0.59301920848E+02  0.49999957725E+02 0.  0.
        -12    1    1    2    0    0 -0.94352843548E+01 -0.30274364190E+02 -0.33407073771E+01  0.31886079152E+02  0.00000000000E+00 0.  1.
         11    1    3    3    0    0  0.13748626742E+02  0.90111954886E+00  0.50768742634E+01  0.14683712278E+02  0.51100000000E-03 0. -1.
        -11    1    3    3    0    0 -0.12553568744E+02  0.10872537879E+01  0.62891900892E+01  0.14082901734E+02  0.51100000000E-03 0.  1.
        -12    1    3    3    0    0  0.82402263573E+01  0.28285990853E+02 -0.80253569755E+01  0.30535306835E+02  0.00000000000E+00 0.  1.
</event>
<event>
 7    1  0.1335379E-011  0.5930197E+02  0.7816164E-02  0.1266605E+00
        -11   -1    0    0    0    0  0.00000000000E+00  0.00000000000E+00  0.45593999997E+02  0.45594000000E+02  0.51100000000E-03 0. -1.
         11   -1    0    0    0    0 -0.00000000000E+00 -0.00000000000E+00 -0.45593999997E+02  0.45594000000E+02  0.51100000000E-03 0.  1.
    9900012    2    1    2    0    0  0.25403013876E+01 -0.28303935516E+02  0.14462131295E+02  0.59301966404E+02  0.50000040810E+02 0.  0.
        -12    1    1    2    0    0 -0.25403013876E+01  0.28303935516E+02 -0.14462131295E+02  0.31886033596E+02  0.00000000000E+00 0.  1.
         11    1    3    3    0    0  0.29973549913E+01 -0.18386206943E+02 -0.46926172435E+01  0.19210866704E+02  0.51100000000E-03 0. -1.
        -11    1    3    3    0    0  0.56755388194E+01  0.39156444006E+01 -0.70309313603E+01  0.98477412648E+01  0.51100000000E-03 0.  1.
         12    1    3    3    0    0 -0.61325924231E+01 -0.13833372974E+02  0.26185679899E+02  0.30243358435E+02  0.00000000000E+00 0. -1.
</event>
<event>
 7    1  0.1335379E-011  0.5930196E+02  0.7816164E-02  0.1266605E+00
        -11   -1    0    0    0    0  0.00000000000E+00  0.00000000000E+00  0.45593999997E+02  0.45594000000E+02  0.51100000000E-03 0.  1.
         11   -1    0    0    0    0 -0.00000000000E+00 -0.00000000000E+00 -0.45593999997E+02  0.45594000000E+02  0.51100000000E-03 0. -1.
    9900012    2    1    2    0    0  0.17319047384E+02  0.25673206386E+02 -0.75932110121E+01  0.59301956314E+02  0.50000022408E+02 0.  0.
        -12    1    1    2    0    0 -0.17319047384E+02 -0.25673206386E+02  0.75932110121E+01  0.31886043686E+02  0.00000000000E+00 0.  1.
         11    1    3    3    0    0  0.53089503625E+01  0.14701249876E+02 -0.51080684350E+01  0.16443967443E+02  0.51100000000E-03 0. -1.
        -11    1    3    3    0    0  0.21633512239E+02  0.14830783015E+02 -0.11946650441E+02  0.28821579305E+02  0.51100000000E-03 0.  1.
        -12    1    3    3    0    0 -0.96234152174E+01 -0.38588265044E+01  0.94615078644E+01  0.14036409566E+02  0.00000000000E+00 0.  1.
</event>
<event>
 7    1  0.1335379E-011  0.5930194E+02  0.7816164E-02  0.1266605E+00
        -11   -1    0    0    0    0  0.00000000000E+00  0.00000000000E+00  0.45593999997E+02  0.45594000000E+02  0.51100000000E-03 0.  1.
         11   -1    0    0    0    0 -0.00000000000E+00 -0.00000000000E+00 -0.45593999997E+02  0.45594000000E+02  0.51100000000E-03 0. -1.
    9900012    2    1    2    0    0  0.25302682169E+02 -0.10036270866E+02 -0.16606283599E+02  0.59301935445E+02  0.49999984347E+02 0.  0.
        -12    1    1    2    0    0 -0.25302682169E+02  0.10036270866E+02  0.16606283599E+02  0.31886064555E+02  0.00000000000E+00 0.  1.
         11    1    3    3    0    0  0.13464136856E+01  0.21651631594E+01  0.83690664659E+01  0.87488304985E+01  0.51100000000E-03 0.  1.
        -11    1    3    3    0    0  0.17129721938E+02 -0.22388132017E+02 -0.25865769702E+02  0.38258252331E+02  0.51100000000E-03 0. -1.
         12    1    3    3    0    0  0.68265465453E+01  0.10186697991E+02  0.89041963701E+00  0.12294852615E+02  0.00000000000E+00 0. -1.
</event>
<event>
 7    1  0.1335379E-011  0.5930191E+02  0.7816164E-02  0.1266605E+00
        -11   -1    0    0    0    0  0.00000000000E+00  0.00000000000E+00  0.45593999997E+02  0.45594000000E+02  0.51100000000E-03 0.  1.
         11   -1    0    0    0    0 -0.00000000000E+00 -0.00000000000E+00 -0.45593999997E+02  0.45594000000E+02  0.51100000000E-03 0. -1.
    9900012    2    1    2    0    0  0.19455572426E+02 -0.25262666056E+02  0.31275016004E-01  0.59301912551E+02  0.49999942594E+02 0.  0.
        -12    1    1    2    0    0 -0.19455572426E+02  0.25262666056E+02 -0.31275016004E-01  0.31886087449E+02  0.00000000000E+00 0.  1.
         11    1    3    3    0    0 -0.53391957225E+01  0.88784897824E+01  0.46306615025E+00  0.10370584472E+02  0.51100000000E-03 0. -1.
        -11    1    3    3    0    0 -0.23793387181E+01  0.39778645511E+00 -0.41781589740E+01  0.48245724653E+01  0.51100000000E-03 0.  1.
         12    1    3    3    0    0  0.27174106867E+02 -0.34538942293E+02  0.37463678398E+01  0.44106755613E+02  0.00000000000E+00 0. -1.
</event>
<event>
 7    1  0.1335379E-011  0.5930190E+02  0.7816164E-02  0.1266605E+00
        -11   -1    0    0    0    0  0.00000000000E+00  0.00000000000E+00  0.45593999997E+02  0.45594000000E+02  0.51100000000E-03 0.  1.
         11   -1    0    0    0    0 -0.00000000000E+00 -0.00000000000E+00 -0.45593999997E+02  0.45594000000E+02  0.51100000000E-03 0. -1.
    9900012    2    1    2    0    0  0.16074650637E+02 -0.23896969872E+02 -0.13684436921E+02  0.59301899956E+02  0.49999919624E+02 0.  0.
        -12    1    1    2    0    0 -0.16074650637E+02  0.23896969872E+02  0.13684436921E+02  0.31886100044E+02  0.00000000000E+00 0.  1.
         11    1    3    3    0    0 -0.41847844190E+01 -0.23477132580E+02 -0.89836457602E+01  0.25483211458E+02  0.51100000000E-03 0. -1.
        -11    1    3    3    0    0  0.34464792790E+01 -0.11621610400E+02 -0.60946987242E+01  0.13567807505E+02  0.51100000000E-03 0.  1.
        -12    1    3    3    0    0  0.16812955777E+02  0.11201773107E+02  0.13939075635E+01  0.20250880993E+02  0.00000000000E+00 0.  1.
</event>
<event>
 7    1  0.1335379E-011  0.5930196E+02  0.7816164E-02  0.1266605E+00
        -11   -1    0    0    0    0  0.00000000000E+00  0.00000000000E+00  0.45593999997E+02  0.45594000000E+02  0.51100000000E-03 0.  1.
         11   -1    0    0    0    0 -0.00000000000E+00 -0.00000000000E+00 -0.45593999997E+02  0.45594000000E+02  0.51100000000E-03 0. -1.
    9900012    2    1    2    0    0 -0.16662599861E+02  0.26858617976E+02 -0.42062057051E+01  0.59301956656E+02  0.50000023031E+02 0.  0.
        -12    1    1    2    0    0  0.16662599861E+02 -0.26858617976E+02  0.42062057051E+01  0.31886043344E+02  0.00000000000E+00 0.  1.
         11    1    3    3    0    0 -0.16507349437E+02  0.24227654113E+02 -0.15935541229E+01  0.29360027661E+02  0.51100000000E-03 0. -1.
        -11    1    3    3    0    0 -0.91857511325E+01  0.11233450281E+02  0.49785643276E+01  0.15341268921E+02  0.51100000000E-03 0.  1.
        -12    1    3    3    0    0  0.90305007080E+01 -0.86024864184E+01 -0.75912159099E+01  0.14600660074E+02  0.00000000000E+00 0.  1.
</event>
<event>
 7    1  0.1335379E-011  0.5930212E+02  0.7816164E-02  0.1266604E+00
        -11   -1    0    0    0    0  0.00000000000E+00  0.00000000000E+00  0.45593999997E+02  0.45594000000E+02  0.51100000000E-03 0.  1.
         11   -1    0    0    0    0 -0.00000000000E+00 -0.00000000000E+00 -0.45593999997E+02  0.45594000000E+02  0.51100000000E-03 0. -1.
    9900012    2    1    2    0    0  0.95787728532E+01 -0.30407354211E+02 -0.59107063427E+00  0.59302118423E+02  0.50000318054E+02 0.  0.
        -12    1    1    2    0    0 -0.95787728532E+01  0.30407354211E+02  0.59107063427E+00  0.31885881577E+02  0.00000000000E+00 0.  1.
         11    1    3    3    0    0  0.54723731923E+01 -0.17344040091E+02  0.11215554236E+02  0.21367059978E+02  0.51100000000E-03 0. -1.
        -11    1    3    3    0    0 -0.11023651679E+02 -0.16478103527E+02 -0.28642899885E+01  0.20031299249E+02  0.51100000000E-03 0.  1.
         12    1    3    3    0    0  0.15130051339E+02  0.34147894074E+01 -0.89423348814E+01  0.17903759196E+02  0.00000000000E+00 0. -1.
</event>
<event>
 7    1  0.1335379E-011  0.5930196E+02  0.7816164E-02  0.1266605E+00
        -11   -1    0    0    0    0  0.00000000000E+00  0.00000000000E+00  0.45593999997E+02  0.45594000000E+02  0.51100000000E-03 0. -1.
         11   -1    0    0    0    0 -0.00000000000E+00 -0.00000000000E+00 -0.45593999997E+02  0.45594000000E+02  0.51100000000E-03 0.  1.
    9900012    2    1    2    0    0 -0.12473711911E+02 -0.20283353885E+02  0.21206409317E+02  0.59301957132E+02  0.50000023899E+02 0.  0.
        -12    1    1    2    0    0  0.12473711911E+02  0.20283353885E+02 -0.21206409317E+02  0.31886042868E+02  0.00000000000E+00 0.  1.
         11    1    3    3    0    0 -0.11537545443E+02  0.10427176569E+02  0.30878675096E+01  0.15854838128E+02  0.51100000000E-03 0. -1.
        -11    1    3    3    0    0  0.39044835470E+01 -0.14225669628E+01  0.12581277660E+02  0.13249801370E+02  0.51100000000E-03 0.  1.
         12    1    3    3    0    0 -0.48406500159E+01 -0.29287963491E+02  0.55372641473E+01  0.30197317634E+02  0.00000000000E+00 0. -1.
</event>
<event>
 7    1  0.1335379E-011  0.5930196E+02  0.7816164E-02  0.1266605E+00
        -11   -1    0    0    0    0  0.00000000000E+00  0.00000000000E+00  0.45593999997E+02  0.45594000000E+02  0.51100000000E-03 0.  1.
         11   -1    0    0    0    0 -0.00000000000E+00 -0.00000000000E+00 -0.45593999997E+02  0.45594000000E+02  0.51100000000E-03 0. -1.
    9900012    2    1    2    0    0  0.51396158831E+01 -0.17381689945E+02 -0.26233201344E+02  0.59301958390E+02  0.50000026194E+02 0.  0.
        -12    1    1    2    0    0 -0.51396158831E+01  0.17381689945E+02  0.26233201344E+02  0.31886041610E+02  0.00000000000E+00 0.  1.
         11    1    3    3    0    0  0.95204158740E+01 -0.73103292936E+01 -0.23545329174E+02  0.26428427100E+02  0.51100000000E-03 0. -1.
        -11    1    3    3    0    0  0.94154757889E+01 -0.12109572744E+02 -0.87583775850E+01  0.17663581589E+02  0.51100000000E-03 0.  1.
        -12    1    3    3    0    0 -0.13796275780E+02  0.20382120922E+01  0.60705054149E+01  0.15209949701E+02  0.00000000000E+00 0.  1.
</event>
<event>
 7    1  0.1335379E-011  0.5930192E+02  0.7816164E-02  0.1266605E+00
        -11   -1    0    0    0    0  0.00000000000E+00  0.00000000000E+00  0.45593999997E+02  0.45594000000E+02  0.51100000000E-03 0. -1.
         11   -1    0    0    0    0 -0.00000000000E+00 -0.00000000000E+00 -0.45593999997E+02  0.45594000000E+02  0.51100000000E-03 0.  1.
    9900012    2    1    2    0    0  0.25454490383E+02 -0.70223483708E+01  0.17873939601E+02  0.59301918802E+02  0.49999953995E+02 0.  0.
        -12    1    1    2    0    0 -0.25454490383E+02  0.70223483708E+01 -0.17873939601E+02  0.31886081198E+02  0.00000000000E+00 0.  1.
         11    1    3    3    0    0  0.19393360021E+02  0.44431780223E+01  0.30606114587E+02  0.36504499644E+02  0.51100000000E-03 0. -1.
        -11    1    3    3    0    0 -0.38186877610E+01 -0.17367258291E+01 -0.35338007416E+00  0.42099252439E+01  0.51100000000E-03 0.  1.
        -12    1    3    3    0    0  0.98798181230E+01 -0.97288005640E+01 -0.12378794912E+02  0.18587493915E+02  0.00000000000E+00 0.  1.
</event>
<event>
 7    1  0.1335379E-011  0.5930195E+02  0.7816164E-02  0.1266605E+00
        -11   -1    0    0    0    0  0.00000000000E+00  0.00000000000E+00  0.45593999997E+02  0.45594000000E+02  0.51100000000E-03 0. -1.
         11   -1    0    0    0    0 -0.00000000000E+00 -0.00000000000E+00 -0.45593999997E+02  0.45594000000E+02  0.51100000000E-03 0.  1.
    9900012    2    1    2    0    0  0.16079588279E+02  0.13790938963E+02  0.23832271584E+02  0.59301947789E+02  0.50000006860E+02 0.  0.
        -12    1    1    2    0    0 -0.16079588279E+02 -0.13790938963E+02 -0.23832271584E+02  0.31886052211E+02  0.00000000000E+00 0.  1.
         11    1    3    3    0    0 -0.44446610014E+00 -0.27517608627E+01 -0.18598576894E+01  0.33509414865E+01  0.51100000000E-03 0. -1.
        -11    1    3    3    0    0 -0.29512110475E+01 -0.52967753962E+01 -0.88202149146E+01  0.10703348432E+02  0.51100000000E-03 0.  1.
         12    1    3    3    0    0  0.19475265427E+02  0.21839475222E+02  0.34512344188E+02  0.45247657871E+02  0.00000000000E+00 0. -1.
</event>
<event>
 7    1  0.1335379E-011  0.5930198E+02  0.7816164E-02  0.1266605E+00
        -11   -1    0    0    0    0  0.00000000000E+00  0.00000000000E+00  0.45593999997E+02  0.45594000000E+02  0.51100000000E-03 0.  1.
         11   -1    0    0    0    0 -0.00000000000E+00 -0.00000000000E+00 -0.45593999997E+02  0.45594000000E+02  0.51100000000E-03 0. -1.
    9900012    2    1    2    0    0 -0.43954303785E+00  0.11737903655E+02 -0.29643660778E+02  0.59301981048E+02  0.50000067516E+02 0.  0.
        -12    1    1    2    0    0  0.43954303785E+00 -0.11737903655E+02  0.29643660778E+02  0.31886018952E+02  0.00000000000E+00 0.  1.
         11    1    3    3    0    0 -0.12130492541E+02  0.98451129292E+01 -0.19788675660E+02  0.25212433094E+02  0.51100000000E-03 0. -1.
        -11    1    3    3    0    0  0.30881932672E+01  0.79840661631E+01  0.90419673446E+01  0.12451482798E+02  0.51100000000E-03 0.  1.
         12    1    3    3    0    0  0.86027562363E+01 -0.60912754374E+01 -0.18896952463E+02  0.21638065156E+02  0.00000000000E+00 0. -1.
</event>
<event>
 7    1  0.1335379E-011  0.5930195E+02  0.7816164E-02  0.1266605E+00
        -11   -1    0    0    0    0  0.00000000000E+00  0.00000000000E+00  0.45593999997E+02  0.45594000000E+02  0.51100000000E-03 0.  1.
         11   -1    0    0    0    0 -0.00000000000E+00 -0.00000000000E+00 -0.45593999997E+02  0.45594000000E+02  0.51100000000E-03 0. -1.
    9900012    2    1    2    0    0 -0.19746964477E+02 -0.13358684557E+02 -0.21173643336E+02  0.59301949269E+02  0.50000009559E+02 0.  0.
        -12    1    1    2    0    0  0.19746964477E+02  0.13358684557E+02  0.21173643336E+02  0.31886050731E+02  0.00000000000E+00 0.  1.
         11    1    3    3    0    0 -0.52240697854E+01  0.25980038127E+01 -0.18557158517E+02  0.19452728894E+02  0.51100000000E-03 0. -1.
        -11    1    3    3    0    0 -0.21365701449E+02  0.10456346857E+01 -0.23463797726E+01  0.21519573616E+02  0.51100000000E-03 0.  1.
         12    1    3    3    0    0  0.68428067577E+01 -0.17002323055E+02 -0.27010504625E+00  0.18329646759E+02  0.00000000000E+00 0. -1.
</event>
<event>
 7    1  0.1335379E-011  0.5930195E+02  0.7816164E-02  0.1266605E+00
        -11   -1    0    0    0    0  0.00000000000E+00  0.00000000000E+00  0.45593999997E+02  0.45594000000E+02  0.51100000000E-03 0. -1.
         11   -1    0    0    0    0 -0.00000000000E+00 -0.00000000000E+00 -0.45593999997E+02  0.45594000000E+02  0.51100000000E-03 0.  1.
    9900012    2    1    2    0    0  0.26799987899E+02 -0.15656581180E+02 -0.73042463284E+01  0.59301954462E+02  0.50000019029E+02 0.  0.
        -12    1    1    2    0    0 -0.26799987899E+02  0.15656581180E+02  0.73042463284E+01  0.31886045538E+02  0.00000000000E+00 0.  1.
         11    1    3    3    0    0  0.61584761203E+01  0.23952216186E+01  0.93026591811E+01  0.11410669692E+02  0.51100000000E-03 0. -1.
        -11    1    3    3    0    0  0.24591012102E+02 -0.25757782829E+02 -0.99688204331E+01  0.36980516945E+02  0.51100000000E-03 0.  1.
         12    1    3    3    0    0 -0.39495003228E+01  0.77059800302E+01 -0.66380850765E+01  0.10910767824E+02  0.00000000000E+00 0. -1.
</event>
<event>
 7    1  0.1335379E-011  0.5930195E+02  0.7816164E-02  0.1266605E+00
        -11   -1    0    0    0    0  0.00000000000E+00  0.00000000000E+00  0.45593999997E+02  0.45594000000E+02  0.51100000000E-03 0.  1.
         11   -1    0    0    0    0 -0.00000000000E+00 -0.00000000000E+00 -0.45593999997E+02  0.45594000000E+02  0.51100000000E-03 0. -1.
    9900012    2    1    2    0    0  0.22217975990E+02 -0.22526989466E+02  0.39517455184E+01  0.59301952830E+02  0.50000016053E+02 0.  0.
        -12    1    1    2    0    0 -0.22217975990E+02  0.22526989466E+02 -0.39517455184E+01  0.31886047170E+02  0.00000000000E+00 0.  1.
         11    1    3    3    0    0  0.80183319374E+01 -0.26578245402E+02 -0.51564070284E+01  0.28236241064E+02  0.51100000000E-03 0.  1.
        -11    1    3    3    0    0  0.51403599897E+01 -0.10220970512E+02 -0.80458822226E+00  0.11469041002E+02  0.51100000000E-03 0. -1.
        -12    1    3    3    0    0  0.90592840624E+01  0.14272226448E+02  0.99127407690E+01  0.19596670764E+02  0.00000000000E+00 0.  1.
</event>
<event>
 7    1  0.1335379E-011  0.5930195E+02  0.7816164E-02  0.1266605E+00
        -11   -1    0    0    0    0  0.00000000000E+00  0.00000000000E+00  0.45593999997E+02  0.45594000000E+02  0.51100000000E-03 0.  1.
         11   -1    0    0    0    0 -0.00000000000E+00 -0.00000000000E+00 -0.45593999997E+02  0.45594000000E+02  0.51100000000E-03 0. -1.
    9900012    2    1    2    0    0  0.58505724169E+01  0.29685923604E+02 -0.10061641275E+02  0.59301954730E+02  0.50000019518E+02 0.  0.
        -12    1    1    2    0    0 -0.58505724169E+01 -0.29685923604E+02  0.10061641275E+02  0.31886045270E+02  0.00000000000E+00 0.  1.
         11    1    3    3    0    0  0.12166574448E+01  0.37812428922E+01  0.57961640430E+01  0.70266329790E+01  0.51100000000E-03 0. -1.
        -11    1    3    3    0    0  0.11334521389E+02  0.17430425067E+02  0.10859296090E+02  0.23456670799E+02  0.51100000000E-03 0.  1.
         12    1    3    3    0    0 -0.67006064167E+01  0.84742556447E+01 -0.26717101407E+02  0.28818650952E+02  0.00000000000E+00 0. -1.
</event>
<event>
 7    1  0.1335379E-011  0.5930195E+02  0.7816164E-02  0.1266605E+00
        -11   -1    0    0    0    0  0.00000000000E+00  0.00000000000E+00  0.45593999997E+02  0.45594000000E+02  0.51100000000E-03 0. -1.
         11   -1    0    0    0    0 -0.00000000000E+00 -0.00000000000E+00 -0.45593999997E+02  0.45594000000E+02  0.51100000000E-03 0.  1.
    9900012    2    1    2    0    0  0.52435598120E+01 -0.22066322671E+02  0.22412105171E+02  0.59301953304E+02  0.50000016918E+02 0.  0.
        -12    1    1    2    0    0 -0.52435598120E+01  0.22066322671E+02 -0.22412105171E+02  0.31886046696E+02  0.00000000000E+00 0.  1.
         11    1    3    3    0    0 -0.12408963274E+01 -0.33293082366E+02  0.16014239335E+02  0.36965186580E+02  0.51100000000E-03 0. -1.
        -11    1    3    3    0    0  0.47961392424E+01 -0.28951955947E+01 -0.18450212589E+01  0.58982381159E+01  0.51100000000E-03 0.  1.
         12    1    3    3    0    0  0.16883168969E+01  0.14121955290E+02  0.82428870945E+01  0.16438528608E+02  0.00000000000E+00 0. -1.
</event>
<event>
 7    1  0.1335379E-011  0.5930195E+02  0.7816164E-02  0.1266605E+00
        -11   -1    0    0    0    0  0.00000000000E+00  0.00000000000E+00  0.45593999997E+02  0.45594000000E+02  0.51100000000E-03 0.  1.
         11   -1    0    0    0    0 -0.00000000000E+00 -0.00000000000E+00 -0.45593999997E+02  0.45594000000E+02  0.51100000000E-03 0. -1.
    9900012    2    1    2    0    0 -0.10708751897E+02 -0.24759921818E+02 -0.16999685462E+02  0.59301946600E+02  0.50000004691E+02 0.  0.
        -12    1    1    2    0    0  0.10708751897E+02  0.24759921818E+02  0.16999685462E+02  0.31886053400E+02  0.00000000000E+00 0.  1.
         11    1    3    3    0    0 -0.11352623012E+02 -0.25035058865E+01  0.93363344188E+01  0.14910289454E+02  0.51100000000E-03 0. -1.
        -11    1    3    3    0    0 -0.35576012040E+01 -0.33940130163E+01  0.53571960825E+01  0.72715473463E+01  0.51100000000E-03 0.  1.
         12    1    3    3    0    0  0.42014723193E+01 -0.18862402916E+02 -0.31693215963E+02  0.37120109799E+02  0.00000000000E+00 0. -1.
</event>
<event>
 7    1  0.1335379E-011  0.5930196E+02  0.7816164E-02  0.1266605E+00
        -11   -1    0    0    0    0  0.00000000000E+00  0.00000000000E+00  0.45593999997E+02  0.45594000000E+02  0.51100000000E-03 0.  1.
         11   -1    0    0    0    0 -0.00000000000E+00 -0.00000000000E+00 -0.45593999997E+02  0.45594000000E+02  0.51100000000E-03 0. -1.
    9900012    2    1    2    0    0  0.11694082044E+02 -0.89806342840E+01 -0.28272176892E+02  0.59301963351E+02  0.50000035240E+02 0.  0.
        -12    1    1    2    0    0 -0.11694082044E+02  0.89806342840E+01  0.28272176892E+02  0.31886036649E+02  0.00000000000E+00 0.  1.
         11    1    3    3    0    0  0.67247247871E+00 -0.27962981233E+00 -0.15110765088E+02  0.15128305717E+02  0.51100000000E-03 0. -1.
        -11    1    3    3    0    0  0.14401180564E+02  0.70658257930E+01 -0.20852274504E+02  0.26308501440E+02  0.51100000000E-03 0.  1.
        -12    1    3    3    0    0 -0.33795709994E+01 -0.15766830265E+02  0.76908627000E+01  0.17865156193E+02  0.00000000000E+00 0.  1.
</event>
<event>
 7    1  0.1335379E-011  0.5930194E+02  0.7816164E-02  0.1266605E+00
        -11   -1    0    0    0    0  0.00000000000E+00  0.00000000000E+00  0.45593999997E+02  0.45594000000E+02  0.51100000000E-03 0.  1.
         11   -1    0    0    0    0 -0.00000000000E+00 -0.00000000000E+00 -0.45593999997E+02  0.45594000000E+02  0.51100000000E-03 0. -1.
    9900012    2    1    2    0    0  0.41522709422E+01 -0.34490317171E+01 -0.31425845837E+02  0.59301937836E+02  0.49999988707E+02 0.  0.
        -12    1    1    2    0    0 -0.41522709422E+01  0.34490317171E+01  0.31425845837E+02  0.31886062164E+02  0.00000000000E+00 0.  1.
         11    1    3    3    0    0  0.89737099785E+01  0.67267365721E+01 -0.36712160339E+02  0.38386966182E+02  0.51100000000E-03 0. -1.
        -11    1    3    3    0    0 -0.18869135612E+01  0.46865155508E+01  0.18558667457E+01  0.53822033067E+01  0.51100000000E-03 0.  1.
        -12    1    3    3    0    0 -0.29345254751E+01 -0.14862283840E+02  0.34304477560E+01  0.15532768347E+02  0.00000000000E+00 0.  1.
</event>
<event>
 7    1  0.1335379E-011  0.5930193E+02  0.7816164E-02  0.1266605E+00
        -11   -1    0    0    0    0  0.00000000000E+00  0.00000000000E+00  0.45593999997E+02  0.45594000000E+02  0.51100000000E-03 0.  1.
         11   -1    0    0    0    0 -0.00000000000E+00 -0.00000000000E+00 -0.45593999997E+02  0.45594000000E+02  0.51100000000E-03 0. -1.
    9900012    2    1    2    0    0  0.11387573444E+02  0.25337752818E+02 -0.15653845897E+02  0.59301930343E+02  0.49999975043E+02 0.  0.
        -12    1    1    2    0    0 -0.11387573444E+02 -0.25337752818E+02  0.15653845897E+02  0.31886069657E+02  0.00000000000E+00 0.  1.
         11    1    3    3    0    0 -0.10970047329E+02  0.20736227213E+01  0.29170677399E+01  0.11539113227E+02  0.51100000000E-03 0.  1.
        -11    1    3    3    0    0  0.89750018501E+01  0.18927796143E+02  0.38454749636E+01  0.21297882594E+02  0.51100000000E-03 0. -1.
        -12    1    3    3    0    0  0.13382618923E+02  0.43363339537E+01 -0.22416388600E+02  0.26464934522E+02  0.00000000000E+00 0.  1.
</event>
<event>
 7    1  0.1335379E-011  0.5930194E+02  0.7816164E-02  0.1266605E+00
        -11   -1    0    0    0    0  0.00000000000E+00  0.00000000000E+00  0.45593999997E+02  0.45594000000E+02  0.51100000000E-03 0.  1.
         11   -1    0    0    0    0 -0.00000000000E+00 -0.00000000000E+00 -0.45593999997E+02  0.45594000000E+02  0.51100000000E-03 0. -1.
    9900012    2    1    2    0    0  0.10565602041E+01 -0.25921413704E+02 -0.18538737414E+02  0.59301940463E+02  0.49999993499E+02 0.  0.
        -12    1    1    2    0    0 -0.10565602041E+01  0.25921413704E+02  0.18538737414E+02  0.31886059537E+02  0.00000000000E+00 0.  1.
         11    1    3    3    0    0  0.94271408407E+01 -0.76445560937E+00 -0.26830777803E+02  0.28449007269E+02  0.51100000000E-03 0. -1.
        -11    1    3    3    0    0  0.24575105178E+01 -0.13834137062E+02  0.38848968390E+01  0.14577898680E+02  0.51100000000E-03 0.  1.
        -12    1    3    3    0    0 -0.10828091154E+02 -0.11322821032E+02  0.44071435502E+01  0.16275034515E+02  0.00000000000E+00 0.  1.
</event>
<event>
 7    1  0.1335379E-011  0.5930187E+02  0.7816164E-02  0.1266605E+00
        -11   -1    0    0    0    0  0.00000000000E+00  0.00000000000E+00  0.45593999997E+02  0.45594000000E+02  0.51100000000E-03 0.  1.
         11   -1    0    0    0    0 -0.00000000000E+00 -0.00000000000E+00 -0.45593999997E+02  0.45594000000E+02  0.51100000000E-03 0. -1.
    9900012    2    1    2    0    0  0.16525318171E+02 -0.64400140345E+01 -0.26498405747E+02  0.59301867771E+02  0.49999860926E+02 0.  0.
        -12    1    1    2    0    0 -0.16525318171E+02  0.64400140345E+01  0.26498405747E+02  0.31886132229E+02  0.00000000000E+00 0.  1.
         11    1    3    3    0    0 -0.90086478640E+00 -0.27318802629E+01 -0.22322711826E+02  0.22507291945E+02  0.51100000000E-03 0. -1.
        -11    1    3    3    0    0  0.76000109674E+01 -0.12520773980E+02 -0.14061287715E+02  0.20303934599E+02  0.51100000000E-03 0.  1.
        -12    1    3    3    0    0  0.98261719897E+01  0.88126402083E+01  0.98855937944E+01  0.16490641227E+02  0.00000000000E+00 0.  1.
</event>
<event>
 7    1  0.1335379E-011  0.5930196E+02  0.7816164E-02  0.1266605E+00
        -11   -1    0    0    0    0  0.00000000000E+00  0.00000000000E+00  0.45593999997E+02  0.45594000000E+02  0.51100000000E-03 0.  1.
         11   -1    0    0    0    0 -0.00000000000E+00 -0.00000000000E+00 -0.45593999997E+02  0.45594000000E+02  0.51100000000E-03 0. -1.
    9900012    2    1    2    0    0  0.17785461629E+02 -0.14952493606E+02 -0.21836208512E+02  0.59301957402E+02  0.50000024391E+02 0.  0.
        -12    1    1    2    0    0 -0.17785461629E+02  0.14952493606E+02  0.21836208512E+02  0.31886042598E+02  0.00000000000E+00 0.  1.
         11    1    3    3    0    0  0.56932814143E+01 -0.34819819222E+01  0.45742945940E+01  0.80908480806E+01  0.51100000000E-03 0. -1.
        -11    1    3    3    0    0  0.36342081715E+01 -0.13382664912E+02  0.78056546813E+01  0.15913247137E+02  0.51100000000E-03 0.  1.
         12    1    3    3    0    0  0.84579720435E+01  0.19121532279E+01 -0.34216157787E+02  0.35297862184E+02  0.00000000000E+00 0. -1.
</event>
<event>
 7    1  0.1335379E-011  0.5930195E+02  0.7816164E-02  0.1266605E+00
        -11   -1    0    0    0    0  0.00000000000E+00  0.00000000000E+00  0.45593999997E+02  0.45594000000E+02  0.51100000000E-03 0.  1.
         11   -1    0    0    0    0 -0.00000000000E+00 -0.00000000000E+00 -0.45593999997E+02  0.45594000000E+02  0.51100000000E-03 0. -1.
    9900012    2    1    2    0    0 -0.30902975646E+02 -0.12872928063E+01 -0.77504490779E+01  0.59301945251E+02  0.50000002232E+02 0.  0.
        -12    1    1    2    0    0  0.30902975646E+02  0.12872928063E+01  0.77504490779E+01  0.31886054749E+02  0.00000000000E+00 0.  1.
         11    1    3    3    0    0 -0.70344337182E+01  0.18415246508E+02 -0.82320131412E+01  0.21362832263E+02  0.51100000000E-03 0. -1.
        -11    1    3    3    0    0 -0.35442716215E+01  0.48599619148E+01 -0.56087365308E+00  0.60411646771E+01  0.51100000000E-03 0.  1.
         12    1    3    3    0    0 -0.20324270306E+02 -0.24562501229E+02  0.10424377163E+01  0.31897948311E+02  0.00000000000E+00 0. -1.
</event>
<event>
 7    1  0.1335379E-011  0.5930198E+02  0.7816164E-02  0.1266605E+00
        -11   -1    0    0    0    0  0.00000000000E+00  0.00000000000E+00  0.45593999997E+02  0.45594000000E+02  0.51100000000E-03 0.  1.
         11   -1    0    0    0    0 -0.00000000000E+00 -0.00000000000E+00 -0.45593999997E+02  0.45594000000E+02  0.51100000000E-03 0. -1.
    9900012    2    1    2    0    0  0.29929513443E+02 -0.38849193775E+01 -0.10288339176E+02  0.59301979607E+02  0.50000064889E+02 0.  0.
        -12    1    1    2    0    0 -0.29929513443E+02  0.38849193775E+01  0.10288339176E+02  0.31886020393E+02  0.00000000000E+00 0.  1.
         11    1    3    3    0    0  0.12117418696E+02 -0.10110759406E+02 -0.34354919241E+01  0.16151219664E+02  0.51100000000E-03 0. -1.
        -11    1    3    3    0    0  0.27883253917E+00 -0.14544759757E+02  0.17215586328E+01  0.14648943592E+02  0.51100000000E-03 0.  1.
         12    1    3    3    0    0  0.17533262208E+02  0.20770599785E+02 -0.85744058843E+01  0.28501816352E+02  0.00000000000E+00 0. -1.
</event>
<event>
 7    1  0.1335379E-011  0.5930193E+02  0.7816164E-02  0.1266605E+00
        -11   -1    0    0    0    0  0.00000000000E+00  0.00000000000E+00  0.45593999997E+02  0.45594000000E+02  0.51100000000E-03 0.  1.
         11   -1    0    0    0    0 -0.00000000000E+00 -0.00000000000E+00 -0.45593999997E+02  0.45594000000E+02  0.51100000000E-03 0. -1.
    9900012    2    1    2    0    0 -0.96609122505E+00  0.30233625826E+02 -0.10085438550E+02  0.59301928846E+02  0.49999972313E+02 0.  0.
        -12    1    1    2    0    0  0.96609122505E+00 -0.30233625826E+02  0.10085438550E+02  0.31886071154E+02  0.00000000000E+00 0.  1.
         11    1    3    3    0    0 -0.57993207644E+01  0.25541750968E+02  0.41944396180E+01  0.26525581762E+02  0.51100000000E-03 0. -1.
        -11    1    3    3    0    0 -0.12778904901E+01 -0.40941815464E+01  0.74258916444E+01  0.85754996132E+01  0.51100000000E-03 0.  1.
        -12    1    3    3    0    0  0.61111200295E+01  0.87860564047E+01 -0.21705769813E+02  0.24200847471E+02  0.00000000000E+00 0.  1.
</event>
<event>
 7    1  0.1335379E-011  0.5930196E+02  0.7816164E-02  0.1266605E+00
        -11   -1    0    0    0    0  0.00000000000E+00  0.00000000000E+00  0.45593999997E+02  0.45594000000E+02  0.51100000000E-03 0. -1.
         11   -1    0    0    0    0 -0.00000000000E+00 -0.00000000000E+00 -0.45593999997E+02  0.45594000000E+02  0.51100000000E-03 0.  1.
    9900012    2    1    2    0    0  0.14272610683E+01 -0.25640477601E+02  0.18901012244E+02  0.59301961838E+02  0.50000032482E+02 0.  0.
        -12    1    1    2    0    0 -0.14272610683E+01  0.25640477601E+02 -0.18901012244E+02  0.31886038162E+02  0.00000000000E+00 0.  1.
         11    1    3    3    0    0 -0.40410864050E+01 -0.80293860157E+01  0.12747717077E+02  0.15598259841E+02  0.51100000000E-03 0. -1.
        -11    1    3    3    0    0  0.27872615950E+01 -0.12216456269E+02  0.22791277461E+02  0.26008709302E+02  0.51100000000E-03 0.  1.
        -12    1    3    3    0    0  0.26810858783E+01 -0.53946353165E+01 -0.16637982294E+02  0.17694992696E+02  0.00000000000E+00 0.  1.
</event>
<event>
 7    1  0.1335379E-011  0.5930191E+02  0.7816164E-02  0.1266605E+00
        -11   -1    0    0    0    0  0.00000000000E+00  0.00000000000E+00  0.45593999997E+02  0.45594000000E+02  0.51100000000E-03 0. -1.
         11   -1    0    0    0    0 -0.00000000000E+00 -0.00000000000E+00 -0.45593999997E+02  0.45594000000E+02  0.51100000000E-03 0.  1.
    9900012    2    1    2    0    0  0.27887255525E+02  0.11894230422E+02  0.98767861471E+01  0.59301911456E+02  0.49999940597E+02 0.  0.
        -12    1    1    2    0    0 -0.27887255525E+02 -0.11894230422E+02 -0.98767861471E+01  0.31886088544E+02  0.00000000000E+00 0.  1.
         11    1    3    3    0    0 -0.85473500889E+00 -0.87808133219E+01 -0.50224311021E+01  0.10151752015E+02  0.51100000000E-03 0. -1.
        -11    1    3    3    0    0  0.50732802037E+01  0.21164026903E+02  0.13113794112E+02  0.25409167697E+02  0.51100000000E-03 0.  1.
         12    1    3    3    0    0  0.23668710330E+02 -0.48898315894E+00  0.17854231368E+01  0.23740991744E+02  0.00000000000E+00 0. -1.
</event>
<event>
 7    1  0.1335379E-011  0.5930197E+02  0.7816164E-02  0.1266605E+00
        -11   -1    0    0    0    0  0.00000000000E+00  0.00000000000E+00  0.45593999997E+02  0.45594000000E+02  0.51100000000E-03 0. -1.
         11   -1    0    0    0    0 -0.00000000000E+00 -0.00000000000E+00 -0.45593999997E+02  0.45594000000E+02  0.51100000000E-03 0.  1.
    9900012    2    1    2    0    0  0.10490968672E+02  0.23176091200E+02  0.19223088801E+02  0.59301972181E+02  0.50000051345E+02 0.  0.
        -12    1    1    2    0    0 -0.10490968672E+02 -0.23176091200E+02 -0.19223088801E+02  0.31886027819E+02  0.00000000000E+00 0.  1.
         11    1    3    3    0    0 -0.53343030508E+01 -0.20605164572E+00 -0.46361276214E+01  0.70704261471E+01  0.51100000000E-03 0. -1.
        -11    1    3    3    0    0  0.74301345843E+01 -0.15355950003E-01 -0.85884688734E+01  0.11356448987E+02  0.51100000000E-03 0.  1.
         12    1    3    3    0    0  0.83951371389E+01  0.23397498796E+02  0.32447685296E+02  0.40875097047E+02  0.00000000000E+00 0. -1.
</event>
<event>
 7    1  0.1335379E-011  0.5930194E+02  0.7816164E-02  0.1266605E+00
        -11   -1    0    0    0    0  0.00000000000E+00  0.00000000000E+00  0.45593999997E+02  0.45594000000E+02  0.51100000000E-03 0.  1.
         11   -1    0    0    0    0 -0.00000000000E+00 -0.00000000000E+00 -0.45593999997E+02  0.45594000000E+02  0.51100000000E-03 0. -1.
    9900012    2    1    2    0    0 -0.30912257460E+02 -0.56031168413E+01 -0.54550938370E+01  0.59301943041E+02  0.49999998201E+02 0.  0.
        -12    1    1    2    0    0  0.30912257460E+02  0.56031168413E+01  0.54550938370E+01  0.31886056959E+02  0.00000000000E+00 0.  1.
         11    1    3    3    0    0 -0.23986342078E+02  0.62735514590E+00  0.17571748079E+02  0.29740620565E+02  0.51100000000E-03 0. -1.
        -11    1    3    3    0    0 -0.73646779719E+01 -0.85342105130E+01 -0.67976329784E+01  0.13163549866E+02  0.51100000000E-03 0.  1.
        -12    1    3    3    0    0  0.43876258990E+00  0.23037385259E+01 -0.16229208938E+02  0.16397772610E+02  0.00000000000E+00 0.  1.
</event>
<event>
 7    1  0.1335379E-011  0.5930195E+02  0.7816164E-02  0.1266605E+00
        -11   -1    0    0    0    0  0.00000000000E+00  0.00000000000E+00  0.45593999997E+02  0.45594000000E+02  0.51100000000E-03 0.  1.
         11   -1    0    0    0    0 -0.00000000000E+00 -0.00000000000E+00 -0.45593999997E+02  0.45594000000E+02  0.51100000000E-03 0. -1.
    9900012    2    1    2    0    0 -0.18923269384E+02  0.23282843928E+02 -0.10795323728E+02  0.59301953523E+02  0.50000017317E+02 0.  0.
        -12    1    1    2    0    0  0.18923269384E+02 -0.23282843928E+02  0.10795323728E+02  0.31886046477E+02  0.00000000000E+00 0.  1.
         11    1    3    3    0    0  0.26296294567E+01  0.27975919011E+01 -0.47585072182E+01  0.61143162113E+01  0.51100000000E-03 0. -1.
        -11    1    3    3    0    0 -0.10924599633E+02 -0.83116597083E+01  0.11436734716E+02  0.17866993745E+02  0.51100000000E-03 0.  1.
         12    1    3    3    0    0 -0.10628299208E+02  0.28796911736E+02 -0.17473551225E+02  0.35320643567E+02  0.00000000000E+00 0. -1.
</event>
<event>
 7    1  0.1335379E-011  0.5930194E+02  0.7816164E-02  0.1266605E+00
        -11   -1    0    0    0    0  0.00000000000E+00  0.00000000000E+00  0.45593999997E+02  0.45594000000E+02  0.51100000000E-03 0.  1.
         11   -1    0    0    0    0 -0.00000000000E+00 -0.00000000000E+00 -0.45593999997E+02  0.45594000000E+02  0.51100000000E-03 0. -1.
    9900012    2    1    2    0    0  0.14985911203E+02  0.24098342810E+02 -0.14540047507E+02  0.59301942823E+02  0.49999997804E+02 0.  0.
        -12    1    1    2    0    0 -0.14985911203E+02 -0.24098342810E+02  0.14540047507E+02  0.31886057177E+02  0.00000000000E+00 0.  1.
         11    1    3    3    0    0  0.49512753465E+01  0.44085785313E+01 -0.93319870771E+01  0.11447125198E+02  0.51100000000E-03 0. -1.
        -11    1    3    3    0    0  0.10769312656E+01 -0.12368144898E+02  0.44624901125E+01  0.13192596691E+02  0.51100000000E-03 0.  1.
         12    1    3    3    0    0  0.89577045910E+01  0.32057909177E+02 -0.96705505419E+01  0.34662220935E+02  0.00000000000E+00 0. -1.
</event>
<event>
 7    1  0.1335379E-011  0.5930197E+02  0.7816164E-02  0.1266605E+00
        -11   -1    0    0    0    0  0.00000000000E+00  0.00000000000E+00  0.45593999997E+02  0.45594000000E+02  0.51100000000E-03 0.  1.
         11   -1    0    0    0    0 -0.00000000000E+00 -0.00000000000E+00 -0.45593999997E+02  0.45594000000E+02  0.51100000000E-03 0. -1.
    9900012    2    1    2    0    0 -0.21836613006E+02  0.22148005519E+02  0.70247367818E+01  0.59301972607E+02  0.50000052122E+02 0.  0.
        -12    1    1    2    0    0  0.21836613006E+02 -0.22148005519E+02 -0.70247367818E+01  0.31886027393E+02  0.00000000000E+00 0.  1.
         11    1    3    3    0    0 -0.17035064115E+01  0.93602250122E+00  0.78472097222E+01  0.80843535859E+01  0.51100000000E-03 0.  1.
        -11    1    3    3    0    0 -0.13244213526E+02  0.13435978041E+02  0.20278776587E+02  0.27697716115E+02  0.51100000000E-03 0. -1.
         12    1    3    3    0    0 -0.68888930679E+01  0.77760049772E+01 -0.21101249527E+02  0.23519902906E+02  0.00000000000E+00 0. -1.
</event>
<event>
 7    1  0.1335379E-011  0.5930194E+02  0.7816164E-02  0.1266605E+00
        -11   -1    0    0    0    0  0.00000000000E+00  0.00000000000E+00  0.45593999997E+02  0.45594000000E+02  0.51100000000E-03 0.  1.
         11   -1    0    0    0    0 -0.00000000000E+00 -0.00000000000E+00 -0.45593999997E+02  0.45594000000E+02  0.51100000000E-03 0. -1.
    9900012    2    1    2    0    0 -0.88274123266E+01 -0.20004202995E+02 -0.23208391234E+02  0.59301940828E+02  0.49999994164E+02 0.  0.
        -12    1    1    2    0    0  0.88274123266E+01  0.20004202995E+02  0.23208391234E+02  0.31886059172E+02  0.00000000000E+00 0.  1.
         11    1    3    3    0    0 -0.43742746019E+01 -0.54163623594E+01  0.77537581323E+01  0.10420749730E+02  0.51100000000E-03 0. -1.
        -11    1    3    3    0    0  0.14617353734E+02 -0.10706548385E+02 -0.12163137523E+02  0.21822903637E+02  0.51100000000E-03 0.  1.
         12    1    3    3    0    0 -0.19070491459E+02 -0.38812922512E+01 -0.18799011843E+02  0.27058287461E+02  0.00000000000E+00 0. -1.
</event>
<event>
 7    1  0.1335379E-011  0.5930192E+02  0.7816164E-02  0.1266605E+00
        -11   -1    0    0    0    0  0.00000000000E+00  0.00000000000E+00  0.45593999997E+02  0.45594000000E+02  0.51100000000E-03 0.  1.
         11   -1    0    0    0    0 -0.00000000000E+00 -0.00000000000E+00 -0.45593999997E+02  0.45594000000E+02  0.51100000000E-03 0. -1.
    9900012    2    1    2    0    0 -0.20933024624E+02 -0.16692035036E+02 -0.17317804871E+02  0.59301922802E+02  0.49999961290E+02 0.  0.
        -12    1    1    2    0    0  0.20933024624E+02  0.16692035036E+02  0.17317804871E+02  0.31886077198E+02  0.00000000000E+00 0.  1.
         11    1    3    3    0    0 -0.10925523298E+01 -0.17440038774E+02 -0.83762440877E+01  0.19378082679E+02  0.51100000000E-03 0. -1.
        -11    1    3    3    0    0 -0.17938547887E+02 -0.13727808074E+02 -0.11093897270E+02  0.25165825473E+02  0.51100000000E-03 0.  1.
        -12    1    3    3    0    0 -0.19019244064E+01  0.14475811812E+02  0.21523364868E+01  0.14758014651E+02  0.00000000000E+00 0.  1.
</event>
<event>
 7    1  0.1335379E-011  0.5930192E+02  0.7816164E-02  0.1266605E+00
        -11   -1    0    0    0    0  0.00000000000E+00  0.00000000000E+00  0.45593999997E+02  0.45594000000E+02  0.51100000000E-03 0. -1.
         11   -1    0    0    0    0 -0.00000000000E+00 -0.00000000000E+00 -0.45593999997E+02  0.45594000000E+02  0.51100000000E-03 0.  1.
    9900012    2    1    2    0    0  0.23723933549E+01  0.31725965710E+02  0.21346944833E+01  0.59301920420E+02  0.49999956945E+02 0.  0.
        -12    1    1    2    0    0 -0.23723933549E+01 -0.31725965710E+02 -0.21346944833E+01  0.31886079580E+02  0.00000000000E+00 0.  1.
         11    1    3    3    0    0  0.17963355831E+02  0.85365036682E+01  0.39868576472E+01  0.20284207693E+02  0.51100000000E-03 0. -1.
        -11    1    3    3    0    0 -0.11944478388E+02  0.52888030705E+01  0.10672361893E+02  0.16868352336E+02  0.51100000000E-03 0.  1.
        -12    1    3    3    0    0 -0.36464840874E+01  0.17900658971E+02 -0.12524525057E+02  0.22149360391E+02  0.00000000000E+00 0.  1.
</event>
<event>
 7    1  0.1335379E-011  0.5930196E+02  0.7816164E-02  0.1266605E+00
        -11   -1    0    0    0    0  0.00000000000E+00  0.00000000000E+00  0.45593999997E+02  0.45594000000E+02  0.51100000000E-03 0.  1.
         11   -1    0    0    0    0 -0.00000000000E+00 -0.00000000000E+00 -0.45593999997E+02  0.45594000000E+02  0.51100000000E-03 0. -1.
    9900012    2    1    2    0    0 -0.20063344622E+02  0.20867967527E+02 -0.13368237917E+02  0.59301958365E+02  0.50000026149E+02 0.  0.
        -12    1    1    2    0    0  0.20063344622E+02 -0.20867967527E+02  0.13368237917E+02  0.31886041635E+02  0.00000000000E+00 0.  1.
         11    1    3    3    0    0  0.23237504614E+01  0.52220557829E+01  0.49512973492E+01  0.75620783194E+01  0.51100000000E-03 0. -1.
        -11    1    3    3    0    0 -0.59743648534E+01 -0.43712502378E+01  0.10598970411E+02  0.12928226409E+02  0.51100000000E-03 0.  1.
         12    1    3    3    0    0 -0.16412730230E+02  0.20017161981E+02 -0.28918505678E+02  0.38811653637E+02  0.00000000000E+00 0. -1.
</event>
<event>
 7    1  0.1335379E-011  0.5930195E+02  0.7816164E-02  0.1266605E+00
        -11   -1    0    0    0    0  0.00000000000E+00  0.00000000000E+00  0.45593999997E+02  0.45594000000E+02  0.51100000000E-03 0. -1.
         11   -1    0    0    0    0 -0.00000000000E+00 -0.00000000000E+00 -0.45593999997E+02  0.45594000000E+02  0.51100000000E-03 0.  1.
    9900012    2    1    2    0    0 -0.10878165526E+02  0.11949348992E+02  0.27488152463E+02  0.59301953641E+02  0.50000017533E+02 0.  0.
        -12    1    1    2    0    0  0.10878165526E+02 -0.11949348992E+02 -0.27488152463E+02  0.31886046359E+02  0.00000000000E+00 0.  1.
         11    1    3    3    0    0 -0.10995885808E+02 -0.11178967302E+01  0.91319880862E+01  0.14337098886E+02  0.51100000000E-03 0. -1.
        -11    1    3    3    0    0 -0.15871065494E+02  0.10518523645E+02  0.21234037377E+02  0.28520420810E+02  0.51100000000E-03 0.  1.
        -12    1    3    3    0    0  0.15988785775E+02  0.25487220772E+01 -0.28778729994E+01  0.16444433946E+02  0.00000000000E+00 0.  1.
</event>
<event>
 7    1  0.1335379E-011  0.5930192E+02  0.7816164E-02  0.1266605E+00
        -11   -1    0    0    0    0  0.00000000000E+00  0.00000000000E+00  0.45593999997E+02  0.45594000000E+02  0.51100000000E-03 0.  1.
         11   -1    0    0    0    0 -0.00000000000E+00 -0.00000000000E+00 -0.45593999997E+02  0.45594000000E+02  0.51100000000E-03 0. -1.
    9900012    2    1    2    0    0  0.20711917709E+02  0.41644436417E+01 -0.23882959480E+02  0.59301923422E+02  0.49999962420E+02 0.  0.
        -12    1    1    2    0    0 -0.20711917709E+02 -0.41644436417E+01  0.23882959480E+02  0.31886076578E+02  0.00000000000E+00 0.  1.
         11    1    3    3    0    0  0.29689727084E+02  0.52148337134E+01 -0.21243612149E+01  0.30218988994E+02  0.51100000000E-03 0. -1.
        -11    1    3    3    0    0 -0.76778278697E+00  0.73420559012E+01 -0.65429065848E+01  0.98643247161E+01  0.51100000000E-03 0.  1.
        -12    1    3    3    0    0 -0.82100265876E+01 -0.83924459730E+01 -0.15215691680E+02  0.19218609712E+02  0.00000000000E+00 0.  1.
</event>
<event>
 7    1  0.1335379E-011  0.5930195E+02  0.7816164E-02  0.1266605E+00
        -11   -1    0    0    0    0  0.00000000000E+00  0.00000000000E+00  0.45593999997E+02  0.45594000000E+02  0.51100000000E-03 0.  1.
         11   -1    0    0    0    0 -0.00000000000E+00 -0.00000000000E+00 -0.45593999997E+02  0.45594000000E+02  0.51100000000E-03 0. -1.
    9900012    2    1    2    0    0  0.24472281460E+02  0.14609686564E+02 -0.14296322669E+02  0.59301947513E+02  0.50000006356E+02 0.  0.
        -12    1    1    2    0    0 -0.24472281460E+02 -0.14609686564E+02  0.14296322669E+02  0.31886052487E+02  0.00000000000E+00 0.  1.
         11    1    3    3    0    0  0.19301638464E+02  0.13869901453E+02 -0.16153666728E+02  0.28737925512E+02  0.51100000000E-03 0. -1.
        -11    1    3    3    0    0  0.61458198159E+01  0.14898233952E+02 -0.75427249472E+00  0.16133734948E+02  0.51100000000E-03 0.  1.
         12    1    3    3    0    0 -0.97517682050E+00 -0.14158448841E+02  0.26116165533E+01  0.14430287053E+02  0.00000000000E+00 0. -1.
</event>
<event>
 7    1  0.1335379E-011  0.5930194E+02  0.7816164E-02  0.1266605E+00
        -11   -1    0    0    0    0  0.00000000000E+00  0.00000000000E+00  0.45593999997E+02  0.45594000000E+02  0.51100000000E-03 0. -1.
         11   -1    0    0    0    0 -0.00000000000E+00 -0.00000000000E+00 -0.45593999997E+02  0.45594000000E+02  0.51100000000E-03 0.  1.
    9900012    2    1    2    0    0  0.16100425274E+02  0.25802955221E+02  0.95762392694E+01  0.59301944259E+02  0.50000000422E+02 0.  0.
        -12    1    1    2    0    0 -0.16100425274E+02 -0.25802955221E+02 -0.95762392694E+01  0.31886055741E+02  0.00000000000E+00 0.  1.
         11    1    3    3    0    0 -0.14104439437E+01  0.71169520041E+01  0.41481869834E+01  0.83575004312E+01  0.51100000000E-03 0. -1.
        -11    1    3    3    0    0  0.10681030305E+02  0.31569291713E+02  0.11348837011E+02  0.35206543275E+02  0.51100000000E-03 0.  1.
        -12    1    3    3    0    0  0.68298389134E+01 -0.12883288496E+02 -0.59207847250E+01  0.15737900553E+02  0.00000000000E+00 0.  1.
</event>
<event>
 7    1  0.1335379E-011  0.5930193E+02  0.7816164E-02  0.1266605E+00
        -11   -1    0    0    0    0  0.00000000000E+00  0.00000000000E+00  0.45593999997E+02  0.45594000000E+02  0.51100000000E-03 0.  1.
         11   -1    0    0    0    0 -0.00000000000E+00 -0.00000000000E+00 -0.45593999997E+02  0.45594000000E+02  0.51100000000E-03 0. -1.
    9900012    2    1    2    0    0  0.20738868284E+02  0.27426523231E+01 -0.24064463904E+02  0.59301933726E+02  0.49999981211E+02 0.  0.
        -12    1    1    2    0    0 -0.20738868284E+02 -0.27426523231E+01  0.24064463904E+02  0.31886066274E+02  0.00000000000E+00 0.  1.
         11    1    3    3    0    0  0.20853932723E+02  0.11367548814E+02 -0.15015067354E+02  0.28099108953E+02  0.51100000000E-03 0. -1.
        -11    1    3    3    0    0  0.84336579858E+01 -0.28246379718E+01  0.75398000512E+01  0.11659920744E+02  0.51100000000E-03 0.  1.
        -12    1    3    3    0    0 -0.85487224245E+01 -0.58002585190E+01 -0.16589196601E+02  0.19542904028E+02  0.00000000000E+00 0.  1.
</event>
<event>
 7    1  0.1335379E-011  0.5930194E+02  0.7816164E-02  0.1266605E+00
        -11   -1    0    0    0    0  0.00000000000E+00  0.00000000000E+00  0.45593999997E+02  0.45594000000E+02  0.51100000000E-03 0. -1.
         11   -1    0    0    0    0 -0.00000000000E+00 -0.00000000000E+00 -0.45593999997E+02  0.45594000000E+02  0.51100000000E-03 0.  1.
    9900012    2    1    2    0    0 -0.45926384518E+01 -0.23188313071E+02  0.21399307392E+02  0.59301944303E+02  0.50000000503E+02 0.  0.
        -12    1    1    2    0    0  0.45926384518E+01  0.23188313071E+02 -0.21399307392E+02  0.31886055697E+02  0.00000000000E+00 0.  1.
         11    1    3    3    0    0 -0.18267476580E+02  0.47109338874E+01  0.49813796065E+01  0.19511733437E+02  0.51100000000E-03 0. -1.
        -11    1    3    3    0    0 -0.25330134372E+00 -0.18659820988E+01 -0.36387603076E+01  0.40971487160E+01  0.51100000000E-03 0.  1.
         12    1    3    3    0    0  0.13928139472E+02 -0.26033264860E+02  0.20056688093E+02  0.35693062150E+02  0.00000000000E+00 0. -1.
</event>
<event>
 7    1  0.1335379E-011  0.5930200E+02  0.7816164E-02  0.1266605E+00
        -11   -1    0    0    0    0  0.00000000000E+00  0.00000000000E+00  0.45593999997E+02  0.45594000000E+02  0.51100000000E-03 0. -1.
         11   -1    0    0    0    0 -0.00000000000E+00 -0.00000000000E+00 -0.45593999997E+02  0.45594000000E+02  0.51100000000E-03 0.  1.
    9900012    2    1    2    0    0 -0.25496079366E+02 -0.41125416050E+01  0.18701706592E+02  0.59302001648E+02  0.50000105085E+02 0.  0.
        -12    1    1    2    0    0  0.25496079366E+02  0.41125416050E+01 -0.18701706592E+02  0.31885998352E+02  0.00000000000E+00 0.  1.
         11    1    3    3    0    0 -0.44377967841E+01 -0.58915684190E+01  0.82557821554E+01  0.11070797532E+02  0.51100000000E-03 0. -1.
        -11    1    3    3    0    0  0.11900923469E+02  0.62521620333E+01  0.26240890009E+00  0.13445830885E+02  0.51100000000E-03 0.  1.
         12    1    3    3    0    0 -0.32959206050E+02 -0.44731352192E+01  0.10183515536E+02  0.34785373231E+02  0.00000000000E+00 0. -1.
</event>
<event>
 7    1  0.1335379E-011  0.5930171E+02  0.7816164E-02  0.1266606E+00
        -11   -1    0    0    0    0  0.00000000000E+00  0.00000000000E+00  0.45593999997E+02  0.45594000000E+02  0.51100000000E-03 0.  1.
         11   -1    0    0    0    0 -0.00000000000E+00 -0.00000000000E+00 -0.45593999997E+02  0.45594000000E+02  0.51100000000E-03 0. -1.
    9900012    2    1    2    0    0  0.22587366884E+02 -0.18114730484E+02 -0.13356744493E+02  0.59301714128E+02  0.49999580716E+02 0.  0.
        -12    1    1    2    0    0 -0.22587366884E+02  0.18114730484E+02  0.13356744493E+02  0.31886285872E+02  0.00000000000E+00 0.  1.
         11    1    3    3    0    0  0.10418168709E+02 -0.53271299181E+01 -0.24230823380E+02  0.26908165198E+02  0.51100000000E-03 0. -1.
        -11    1    3    3    0    0  0.84695117109E+01  0.59260353426E+01 -0.19519004244E+00  0.10338695417E+02  0.51100000000E-03 0.  1.
        -12    1    3    3    0    0  0.36996864644E+01 -0.18713635909E+02  0.11069268929E+02  0.22054853513E+02  0.00000000000E+00 0.  1.
</event>
<event>
 7    1  0.1335379E-011  0.5930195E+02  0.7816164E-02  0.1266605E+00
        -11   -1    0    0    0    0  0.00000000000E+00  0.00000000000E+00  0.45593999997E+02  0.45594000000E+02  0.51100000000E-03 0.  1.
         11   -1    0    0    0    0 -0.00000000000E+00 -0.00000000000E+00 -0.45593999997E+02  0.45594000000E+02  0.51100000000E-03 0. -1.
    9900012    2    1    2    0    0 -0.51414276533E+01 -0.74096080012E+01 -0.30584046473E+02  0.59301945561E+02  0.50000002796E+02 0.  0.
        -12    1    1    2    0    0  0.51414276533E+01  0.74096080012E+01  0.30584046473E+02  0.31886054439E+02  0.00000000000E+00 0.  1.
         11    1    3    3    0    0  0.12753563976E+02 -0.15812228823E+02 -0.90979106792E+01  0.22258750042E+02  0.51100000000E-03 0. -1.
        -11    1    3    3    0    0 -0.86659508946E+01 -0.14926612074E+01 -0.21801762774E+02  0.23508373034E+02  0.51100000000E-03 0.  1.
        -12    1    3    3    0    0 -0.92290407343E+01  0.98952820292E+01  0.31562698096E+00  0.13534822485E+02  0.00000000000E+00 0.  1.
</event>
<event>
 7    1  0.1335379E-011  0.5930192E+02  0.7816164E-02  0.1266605E+00
        -11   -1    0    0    0    0  0.00000000000E+00  0.00000000000E+00  0.45593999997E+02  0.45594000000E+02  0.51100000000E-03 0.  1.
         11   -1    0    0    0    0 -0.00000000000E+00 -0.00000000000E+00 -0.45593999997E+02  0.45594000000E+02  0.51100000000E-03 0. -1.
    9900012    2    1    2    0    0 -0.28734568918E+02 -0.81111264641E+01  0.11191794129E+02  0.59301920290E+02  0.49999956709E+02 0.  0.
        -12    1    1    2    0    0  0.28734568918E+02  0.81111264641E+01 -0.11191794129E+02  0.31886079710E+02  0.00000000000E+00 0.  1.
         11    1    3    3    0    0  0.16592426968E+01  0.10304083861E+02 -0.48420485700E-01  0.10436933235E+02  0.51100000000E-03 0.  1.
        -11    1    3    3    0    0 -0.79568156040E+01  0.82549999036E+01 -0.18914579732E+01  0.11620393775E+02  0.51100000000E-03 0. -1.
         12    1    3    3    0    0 -0.22436996011E+02 -0.26670210229E+02  0.13131672588E+02  0.37244593280E+02  0.00000000000E+00 0. -1.
</event>
<event>
 7    1  0.1335379E-011  0.5930194E+02  0.7816164E-02  0.1266605E+00
        -11   -1    0    0    0    0  0.00000000000E+00  0.00000000000E+00  0.45593999997E+02  0.45594000000E+02  0.51100000000E-03 0.  1.
         11   -1    0    0    0    0 -0.00000000000E+00 -0.00000000000E+00 -0.45593999997E+02  0.45594000000E+02  0.51100000000E-03 0. -1.
    9900012    2    1    2    0    0 -0.81470252249E+01 -0.21899532133E+02 -0.21696939800E+02  0.59301941536E+02  0.49999995456E+02 0.  0.
        -12    1    1    2    0    0  0.81470252249E+01  0.21899532133E+02  0.21696939800E+02  0.31886058464E+02  0.00000000000E+00 0.  1.
         11    1    3    3    0    0 -0.75577036879E+01  0.77751781973E+00 -0.15621864735E+02  0.17371415517E+02  0.51100000000E-03 0. -1.
        -11    1    3    3    0    0  0.50608940362E+01  0.76302206647E+01  0.32594547683E+01  0.97188971331E+01  0.51100000000E-03 0.  1.
         12    1    3    3    0    0 -0.56502155732E+01 -0.30307270617E+02 -0.93345298329E+01  0.32211628886E+02  0.00000000000E+00 0. -1.
</event>
<event>
 7    1  0.1335379E-011  0.5930195E+02  0.7816164E-02  0.1266605E+00
        -11   -1    0    0    0    0  0.00000000000E+00  0.00000000000E+00  0.45593999997E+02  0.45594000000E+02  0.51100000000E-03 0.  1.
         11   -1    0    0    0    0 -0.00000000000E+00 -0.00000000000E+00 -0.45593999997E+02  0.45594000000E+02  0.51100000000E-03 0. -1.
    9900012    2    1    2    0    0 -0.22687983986E+02  0.22403603941E+02 -0.23204946496E+00  0.59301953932E+02  0.50000018063E+02 0.  0.
        -12    1    1    2    0    0  0.22687983986E+02 -0.22403603941E+02  0.23204946496E+00  0.31886046068E+02  0.00000000000E+00 0.  1.
         11    1    3    3    0    0 -0.39893751835E+01  0.14536140694E+02 -0.20629413908E+01  0.15214145657E+02  0.51100000000E-03 0. -1.
        -11    1    3    3    0    0 -0.56564154032E+01 -0.96107178311E+00 -0.17925937652E+02  0.18821741023E+02  0.51100000000E-03 0.  1.
         12    1    3    3    0    0 -0.13042193399E+02  0.88285350296E+01  0.19756829577E+02  0.25266067252E+02  0.00000000000E+00 0. -1.
</event>
<event>
 7    1  0.1335379E-011  0.5930174E+02  0.7816164E-02  0.1266605E+00
        -11   -1    0    0    0    0  0.00000000000E+00  0.00000000000E+00  0.45593999997E+02  0.45594000000E+02  0.51100000000E-03 0. -1.
         11   -1    0    0    0    0 -0.00000000000E+00 -0.00000000000E+00 -0.45593999997E+02  0.45594000000E+02  0.51100000000E-03 0.  1.
    9900012    2    1    2    0    0 -0.36451915434E+01  0.11057510385E+02  0.29684634537E+02  0.59301741440E+02  0.49999630528E+02 0.  0.
        -12    1    1    2    0    0  0.36451915434E+01 -0.11057510385E+02 -0.29684634537E+02  0.31886258560E+02  0.00000000000E+00 0.  1.
         11    1    3    3    0    0  0.10355044473E+02  0.88445251901E+01  0.61723206847E+01  0.14951592382E+02  0.51100000000E-03 0. -1.
        -11    1    3    3    0    0  0.97927625413E+01  0.85021496584E+01  0.73377031209E+01  0.14900558189E+02  0.51100000000E-03 0.  1.
        -12    1    3    3    0    0 -0.23792998558E+02 -0.62891644630E+01  0.16174610732E+02  0.29449590869E+02  0.00000000000E+00 0.  1.
</event>
<event>
 7    1  0.1335379E-011  0.5930197E+02  0.7816164E-02  0.1266605E+00
        -11   -1    0    0    0    0  0.00000000000E+00  0.00000000000E+00  0.45593999997E+02  0.45594000000E+02  0.51100000000E-03 0. -1.
         11   -1    0    0    0    0 -0.00000000000E+00 -0.00000000000E+00 -0.45593999997E+02  0.45594000000E+02  0.51100000000E-03 0.  1.
    9900012    2    1    2    0    0 -0.95039701635E+01  0.14079575653E+02  0.26984423105E+02  0.59301968736E+02  0.50000045062E+02 0.  0.
        -12    1    1    2    0    0  0.95039701635E+01 -0.14079575653E+02 -0.26984423105E+02  0.31886031264E+02  0.00000000000E+00 0.  1.
         11    1    3    3    0    0  0.80168461124E+01 -0.75639730358E+01  0.14905943736E+02  0.18538356686E+02  0.51100000000E-03 0. -1.
        -11    1    3    3    0    0  0.99559338541E+00 -0.51609903901E+01  0.53457868305E+01  0.74969637250E+01  0.51100000000E-03 0.  1.
        -12    1    3    3    0    0 -0.18516409661E+02  0.26804539079E+02  0.67326925383E+01  0.33266648325E+02  0.00000000000E+00 0.  1.
</event>
<event>
 7    1  0.1335379E-011  0.5930194E+02  0.7816164E-02  0.1266605E+00
        -11   -1    0    0    0    0  0.00000000000E+00  0.00000000000E+00  0.45593999997E+02  0.45594000000E+02  0.51100000000E-03 0. -1.
         11   -1    0    0    0    0 -0.00000000000E+00 -0.00000000000E+00 -0.45593999997E+02  0.45594000000E+02  0.51100000000E-03 0.  1.
    9900012    2    1    2    0    0 -0.20037862275E+02  0.18471712399E+02 -0.16552961217E+02  0.59301943352E+02  0.49999998768E+02 0.  0.
        -12    1    1    2    0    0  0.20037862275E+02 -0.18471712399E+02  0.16552961217E+02  0.31886056648E+02  0.00000000000E+00 0.  1.
         11    1    3    3    0    0 -0.31757140692E+01  0.16925410015E+02 -0.15104689981E+02  0.22906469037E+02  0.51100000000E-03 0. -1.
        -11    1    3    3    0    0  0.56764540423E+01  0.66402725833E+01 -0.85480205778E+01  0.12222275015E+02  0.51100000000E-03 0.  1.
         12    1    3    3    0    0 -0.22538602248E+02 -0.50939702002E+01  0.70997493421E+01  0.24173199301E+02  0.00000000000E+00 0. -1.
</event>
<event>
 7    1  0.1335379E-011  0.5930196E+02  0.7816164E-02  0.1266605E+00
        -11   -1    0    0    0    0  0.00000000000E+00  0.00000000000E+00  0.45593999997E+02  0.45594000000E+02  0.51100000000E-03 0. -1.
         11   -1    0    0    0    0 -0.00000000000E+00 -0.00000000000E+00 -0.45593999997E+02  0.45594000000E+02  0.51100000000E-03 0.  1.
    9900012    2    1    2    0    0 -0.13913712948E+02  0.72847370408E+01  0.27749964977E+02  0.59301962962E+02  0.50000034532E+02 0.  0.
        -12    1    1    2    0    0  0.13913712948E+02 -0.72847370408E+01 -0.27749964977E+02  0.31886037038E+02  0.00000000000E+00 0.  1.
         11    1    3    3    0    0  0.46632532589E+01  0.40266389290E+01  0.16036380302E+02  0.17179209687E+02  0.51100000000E-03 0. -1.
        -11    1    3    3    0    0  0.96825298671E+01 -0.16545148472E+01  0.89808261349E+01  0.13309547037E+02  0.51100000000E-03 0.  1.
        -12    1    3    3    0    0 -0.28259496074E+02  0.49126129590E+01  0.27327585400E+01  0.28813206238E+02  0.00000000000E+00 0.  1.
</event>
<event>
 7    1  0.1335379E-011  0.5930194E+02  0.7816164E-02  0.1266605E+00
        -11   -1    0    0    0    0  0.00000000000E+00  0.00000000000E+00  0.45593999997E+02  0.45594000000E+02  0.51100000000E-03 0.  1.
         11   -1    0    0    0    0 -0.00000000000E+00 -0.00000000000E+00 -0.45593999997E+02  0.45594000000E+02  0.51100000000E-03 0. -1.
    9900012    2    1    2    0    0 -0.10986414632E+02  0.18376684741E+02 -0.23628729586E+02  0.59301941755E+02  0.49999995855E+02 0.  0.
        -12    1    1    2    0    0  0.10986414632E+02 -0.18376684741E+02  0.23628729586E+02  0.31886058245E+02  0.00000000000E+00 0.  1.
         11    1    3    3    0    0 -0.11517385829E+02  0.67189735145E+01  0.14796904008E+01  0.13415821457E+02  0.51100000000E-03 0. -1.
        -11    1    3    3    0    0  0.70391424824E+00  0.31566777665E+01  0.96110569036E+01  0.10140637300E+02  0.51100000000E-03 0.  1.
         12    1    3    3    0    0 -0.17294305122E+00  0.85010334600E+01 -0.34719476891E+02  0.35745482998E+02  0.00000000000E+00 0. -1.
</event>
<event>
 7    1  0.1335379E-011  0.5930193E+02  0.7816164E-02  0.1266605E+00
        -11   -1    0    0    0    0  0.00000000000E+00  0.00000000000E+00  0.45593999997E+02  0.45594000000E+02  0.51100000000E-03 0. -1.
         11   -1    0    0    0    0 -0.00000000000E+00 -0.00000000000E+00 -0.45593999997E+02  0.45594000000E+02  0.51100000000E-03 0.  1.
    9900012    2    1    2    0    0 -0.26188454044E+02  0.76984893967E+00  0.18173978838E+02  0.59301932519E+02  0.49999979011E+02 0.  0.
        -12    1    1    2    0    0  0.26188454044E+02 -0.76984893967E+00 -0.18173978838E+02  0.31886067481E+02  0.00000000000E+00 0.  1.
         11    1    3    3    0    0 -0.13498058973E+02 -0.17062533843E+02  0.15480050042E+02  0.26701303465E+02  0.51100000000E-03 0. -1.
        -11    1    3    3    0    0 -0.61756683163E+00  0.14603071220E+02  0.10381840740E+02  0.17928014258E+02  0.51100000000E-03 0.  1.
        -12    1    3    3    0    0 -0.12072828240E+02  0.32293115633E+01 -0.76879119441E+01  0.14672614795E+02  0.00000000000E+00 0.  1.
</event>
<event>
 7    1  0.1335379E-011  0.5930194E+02  0.7816164E-02  0.1266605E+00
        -11   -1    0    0    0    0  0.00000000000E+00  0.00000000000E+00  0.45593999997E+02  0.45594000000E+02  0.51100000000E-03 0.  1.
         11   -1    0    0    0    0 -0.00000000000E+00 -0.00000000000E+00 -0.45593999997E+02  0.45594000000E+02  0.51100000000E-03 0. -1.
    9900012    2    1    2    0    0  0.30651481228E+02 -0.80948013833E+01 -0.34178739385E+01  0.59301937635E+02  0.49999988341E+02 0.  0.
        -12    1    1    2    0    0 -0.30651481228E+02  0.80948013833E+01  0.34178739385E+01  0.31886062365E+02  0.00000000000E+00 0.  1.
         11    1    3    3    0    0  0.74725185871E+01 -0.14930439385E+02 -0.10827218144E+02  0.19899377057E+02  0.51100000000E-03 0. -1.
        -11    1    3    3    0    0 -0.36760085768E+01 -0.72952889159E+01  0.31672584636E+01  0.87616097756E+01  0.51100000000E-03 0.  1.
        -12    1    3    3    0    0  0.26854971218E+02  0.14130926917E+02  0.42420857414E+01  0.30640950802E+02  0.00000000000E+00 0.  1.
</event>
<event>
 7    1  0.1335379E-011  0.5930192E+02  0.7816164E-02  0.1266605E+00
        -11   -1    0    0    0    0  0.00000000000E+00  0.00000000000E+00  0.45593999997E+02  0.45594000000E+02  0.51100000000E-03 0. -1.
         11   -1    0    0    0    0 -0.00000000000E+00 -0.00000000000E+00 -0.45593999997E+02  0.45594000000E+02  0.51100000000E-03 0.  1.
    9900012    2    1    2    0    0 -0.20235311763E+02  0.18634611560E+02  0.16124683143E+02  0.59301921586E+02  0.49999959073E+02 0.  0.
        -12    1    1    2    0    0  0.20235311763E+02 -0.18634611560E+02 -0.16124683143E+02  0.31886078414E+02  0.00000000000E+00 0.  1.
         11    1    3    3    0    0 -0.21232341900E+02  0.27847290790E+02  0.20799739655E+02  0.40729757142E+02  0.51100000000E-03 0. -1.
        -11    1    3    3    0    0 -0.39690668329E+01  0.20854336208E+01 -0.43193040394E+01  0.62256656316E+01  0.51100000000E-03 0.  1.
        -12    1    3    3    0    0  0.49660969698E+01 -0.11298112851E+02 -0.35575247271E+00  0.12346498812E+02  0.00000000000E+00 0.  1.
</event>
<event>
 7    1  0.1335379E-011  0.5930196E+02  0.7816164E-02  0.1266605E+00
        -11   -1    0    0    0    0  0.00000000000E+00  0.00000000000E+00  0.45593999997E+02  0.45594000000E+02  0.51100000000E-03 0.  1.
         11   -1    0    0    0    0 -0.00000000000E+00 -0.00000000000E+00 -0.45593999997E+02  0.45594000000E+02  0.51100000000E-03 0. -1.
    9900012    2    1    2    0    0 -0.24972761502E+02 -0.17106168469E+02 -0.10022955433E+02  0.59301961483E+02  0.50000031834E+02 0.  0.
        -12    1    1    2    0    0  0.24972761502E+02  0.17106168469E+02  0.10022955433E+02  0.31886038517E+02  0.00000000000E+00 0.  1.
         11    1    3    3    0    0 -0.10003753098E+02 -0.39738472980E+01  0.13154870261E+02  0.16997563068E+02  0.51100000000E-03 0. -1.
        -11    1    3    3    0    0  0.79000427778E+01 -0.34212205802E+01 -0.43256241895E+00  0.86198919168E+01  0.51100000000E-03 0.  1.
         12    1    3    3    0    0 -0.22869051181E+02 -0.97111005908E+01 -0.22745263274E+02  0.33684506498E+02  0.00000000000E+00 0. -1.
</event>
<event>
 7    1  0.1335379E-011  0.5930196E+02  0.7816164E-02  0.1266605E+00
        -11   -1    0    0    0    0  0.00000000000E+00  0.00000000000E+00  0.45593999997E+02  0.45594000000E+02  0.51100000000E-03 0. -1.
         11   -1    0    0    0    0 -0.00000000000E+00 -0.00000000000E+00 -0.45593999997E+02  0.45594000000E+02  0.51100000000E-03 0.  1.
    9900012    2    1    2    0    0  0.48170219320E+01 -0.19760143735E+02  0.24557135045E+02  0.59301955053E+02  0.50000020108E+02 0.  0.
        -12    1    1    2    0    0 -0.48170219320E+01  0.19760143735E+02 -0.24557135045E+02  0.31886044947E+02  0.00000000000E+00 0.  1.
         11    1    3    3    0    0 -0.53807668915E+01 -0.76558208598E+01  0.24246867534E+01  0.96666101345E+01  0.51100000000E-03 0. -1.
        -11    1    3    3    0    0 -0.16072422684E+02 -0.57813256781E+01  0.56806145092E+01  0.18000441078E+02  0.51100000000E-03 0.  1.
        -12    1    3    3    0    0  0.26270211507E+02 -0.63229971970E+01  0.16451833783E+02  0.31634903841E+02  0.00000000000E+00 0.  1.
</event>
<event>
 7    1  0.1335379E-011  0.5930196E+02  0.7816164E-02  0.1266605E+00
        -11   -1    0    0    0    0  0.00000000000E+00  0.00000000000E+00  0.45593999997E+02  0.45594000000E+02  0.51100000000E-03 0.  1.
         11   -1    0    0    0    0 -0.00000000000E+00 -0.00000000000E+00 -0.45593999997E+02  0.45594000000E+02  0.51100000000E-03 0. -1.
    9900012    2    1    2    0    0 -0.83792444918E+01  0.54561935745E+01 -0.30277678970E+02  0.59301958691E+02  0.50000026742E+02 0.  0.
        -12    1    1    2    0    0  0.83792444918E+01 -0.54561935745E+01  0.30277678970E+02  0.31886041309E+02  0.00000000000E+00 0.  1.
         11    1    3    3    0    0 -0.11483172087E+02  0.50107111252E+01 -0.46449574185E+01  0.13362114236E+02  0.51100000000E-03 0. -1.
        -11    1    3    3    0    0 -0.11543347465E+02  0.86634388554E+00  0.45106171393E+01  0.12423569924E+02  0.51100000000E-03 0.  1.
         12    1    3    3    0    0  0.14647275060E+02 -0.42086143633E+00 -0.30143338691E+02  0.33516274531E+02  0.00000000000E+00 0. -1.
</event>
<event>
 7    1  0.1335379E-011  0.5930196E+02  0.7816164E-02  0.1266605E+00
        -11   -1    0    0    0    0  0.00000000000E+00  0.00000000000E+00  0.45593999997E+02  0.45594000000E+02  0.51100000000E-03 0. -1.
         11   -1    0    0    0    0 -0.00000000000E+00 -0.00000000000E+00 -0.45593999997E+02  0.45594000000E+02  0.51100000000E-03 0.  1.
    9900012    2    1    2    0    0 -0.95911570282E+01  0.14198776144E+02  0.26890964537E+02  0.59301960565E+02  0.50000030159E+02 0.  0.
        -12    1    1    2    0    0  0.95911570282E+01 -0.14198776144E+02 -0.26890964537E+02  0.31886039435E+02  0.00000000000E+00 0.  1.
         11    1    3    3    0    0  0.73169944200E+01  0.86815224913E+01  0.66270905718E+01  0.13146313925E+02  0.51100000000E-03 0.  1.
        -11    1    3    3    0    0  0.89746168157E+01 -0.67738826838E+01  0.32654497759E+00  0.11248816182E+02  0.51100000000E-03 0. -1.
        -12    1    3    3    0    0 -0.25882768264E+02  0.12291136336E+02  0.19937328988E+02  0.34906830458E+02  0.00000000000E+00 0.  1.
</event>
<event>
 7    1  0.1335379E-011  0.5930195E+02  0.7816164E-02  0.1266605E+00
        -11   -1    0    0    0    0  0.00000000000E+00  0.00000000000E+00  0.45593999997E+02  0.45594000000E+02  0.51100000000E-03 0.  1.
         11   -1    0    0    0    0 -0.00000000000E+00 -0.00000000000E+00 -0.45593999997E+02  0.45594000000E+02  0.51100000000E-03 0. -1.
    9900012    2    1    2    0    0 -0.30527509600E+02  0.86933738852E+01 -0.30358394711E+01  0.59301954257E+02  0.50000018655E+02 0.  0.
        -12    1    1    2    0    0  0.30527509600E+02 -0.86933738852E+01  0.30358394711E+01  0.31886045743E+02  0.00000000000E+00 0.  1.
         11    1    3    3    0    0  0.63685926051E+01  0.14379664972E+02  0.46663776720E+01  0.16404536486E+02  0.51100000000E-03 0. -1.
        -11    1    3    3    0    0 -0.23882204197E+02  0.26026041641E+01  0.28685494188E+01  0.24194251420E+02  0.51100000000E-03 0.  1.
        -12    1    3    3    0    0 -0.13013898008E+02 -0.82888952510E+01 -0.10570766562E+02  0.18703166351E+02  0.00000000000E+00 0.  1.
</event>
<event>
 7    1  0.1335379E-011  0.5930194E+02  0.7816164E-02  0.1266605E+00
        -11   -1    0    0    0    0  0.00000000000E+00  0.00000000000E+00  0.45593999997E+02  0.45594000000E+02  0.51100000000E-03 0.  1.
         11   -1    0    0    0    0 -0.00000000000E+00 -0.00000000000E+00 -0.45593999997E+02  0.45594000000E+02  0.51100000000E-03 0. -1.
    9900012    2    1    2    0    0 -0.25447053673E+02 -0.18777687778E+02  0.40701872557E+01  0.59301944690E+02  0.50000001208E+02 0.  0.
        -12    1    1    2    0    0  0.25447053673E+02  0.18777687778E+02 -0.40701872557E+01  0.31886055310E+02  0.00000000000E+00 0.  1.
         11    1    3    3    0    0 -0.90692853839E+01 -0.91904016647E+01 -0.30577966701E+01  0.13268969096E+02  0.51100000000E-03 0. -1.
        -11    1    3    3    0    0 -0.45201749290E+01 -0.22162509071E+02 -0.70347400857E+01  0.23687472598E+02  0.51100000000E-03 0.  1.
        -12    1    3    3    0    0 -0.11857593360E+02  0.12575222958E+02  0.14162724011E+02  0.22345502996E+02  0.00000000000E+00 0.  1.
</event>
<event>
 7    1  0.1335379E-011  0.5930197E+02  0.7816164E-02  0.1266605E+00
        -11   -1    0    0    0    0  0.00000000000E+00  0.00000000000E+00  0.45593999997E+02  0.45594000000E+02  0.51100000000E-03 0.  1.
         11   -1    0    0    0    0 -0.00000000000E+00 -0.00000000000E+00 -0.45593999997E+02  0.45594000000E+02  0.51100000000E-03 0. -1.
    9900012    2    1    2    0    0  0.69920976162E+01  0.73345043330E+01 -0.30233009175E+02  0.59301965021E+02  0.50000038287E+02 0.  0.
        -12    1    1    2    0    0 -0.69920976162E+01 -0.73345043330E+01  0.30233009175E+02  0.31886034979E+02  0.00000000000E+00 0.  1.
         11    1    3    3    0    0 -0.10833314284E+02  0.10983647852E+00 -0.28734893512E+02  0.30709393804E+02  0.51100000000E-03 0. -1.
        -11    1    3    3    0    0  0.94159825857E+01 -0.40341886050E+01 -0.81066862623E+01  0.13063451618E+02  0.51100000000E-03 0.  1.
        -12    1    3    3    0    0  0.84094293143E+01  0.11258856460E+02  0.66085705990E+01  0.15529119599E+02  0.00000000000E+00 0.  1.
</event>
<event>
 7    1  0.1335379E-011  0.5930170E+02  0.7816164E-02  0.1266606E+00
        -11   -1    0    0    0    0  0.00000000000E+00  0.00000000000E+00  0.45593999997E+02  0.45594000000E+02  0.51100000000E-03 0. -1.
         11   -1    0    0    0    0 -0.00000000000E+00 -0.00000000000E+00 -0.45593999997E+02  0.45594000000E+02  0.51100000000E-03 0.  1.
    9900012    2    1    2    0    0  0.30204992925E+02 -0.76833037468E+01  0.67350797149E+01  0.59301701174E+02  0.49999557091E+02 0.  0.
        -12    1    1    2    0    0 -0.30204992925E+02  0.76833037468E+01 -0.67350797149E+01  0.31886298826E+02  0.00000000000E+00 0.  1.
         11    1    3    3    0    0 -0.56308649954E+01 -0.46082563062E+01  0.38727072070E+00  0.72864700406E+01  0.51100000000E-03 0. -1.
        -11    1    3    3    0    0 -0.45206172827E+01 -0.22291598295E+01  0.10289693129E+02  0.11457875855E+02  0.51100000000E-03 0.  1.
        -12    1    3    3    0    0  0.40356475203E+02 -0.84588761119E+00 -0.39418841344E+01  0.40557355279E+02  0.00000000000E+00 0.  1.
</event>
<event>
 7    1  0.1335379E-011  0.5930201E+02  0.7816164E-02  0.1266605E+00
        -11   -1    0    0    0    0  0.00000000000E+00  0.00000000000E+00  0.45593999997E+02  0.45594000000E+02  0.51100000000E-03 0. -1.
         11   -1    0    0    0    0 -0.00000000000E+00 -0.00000000000E+00 -0.45593999997E+02  0.45594000000E+02  0.51100000000E-03 0.  1.
    9900012    2    1    2    0    0  0.24970446491E+01  0.31156478794E+02  0.63051760787E+01  0.59302005453E+02  0.50000112026E+02 0.  0.
        -12    1    1    2    0    0 -0.24970446491E+01 -0.31156478794E+02 -0.63051760787E+01  0.31885994547E+02  0.00000000000E+00 0.  1.
         11    1    3    3    0    0 -0.21175565049E+02  0.20213783026E+02  0.20734489164E+01  0.29347926163E+02  0.51100000000E-03 0. -1.
        -11    1    3    3    0    0  0.69061770938E+00  0.45244876108E+01 -0.24276277281E+01  0.51808607015E+01  0.51100000000E-03 0.  1.
        -12    1    3    3    0    0  0.22981991989E+02  0.64182081572E+01  0.66593548904E+01  0.24773218589E+02  0.00000000000E+00 0.  1.
</event>
<event>
 7    1  0.1335379E-011  0.5930195E+02  0.7816164E-02  0.1266605E+00
        -11   -1    0    0    0    0  0.00000000000E+00  0.00000000000E+00  0.45593999997E+02  0.45594000000E+02  0.51100000000E-03 0.  1.
         11   -1    0    0    0    0 -0.00000000000E+00 -0.00000000000E+00 -0.45593999997E+02  0.45594000000E+02  0.51100000000E-03 0. -1.
    9900012    2    1    2    0    0 -0.17409537905E+02  0.26713569489E+02  0.11650689643E+00  0.59301946955E+02  0.50000005339E+02 0.  0.
        -12    1    1    2    0    0  0.17409537905E+02 -0.26713569489E+02 -0.11650689643E+00  0.31886053045E+02  0.00000000000E+00 0.  1.
         11    1    3    3    0    0 -0.11435766396E+02  0.10371210496E+02  0.12236085795E+02  0.19699252678E+02  0.51100000000E-03 0. -1.
        -11    1    3    3    0    0  0.46311845481E+01  0.23817047230E+02 -0.48934792136E+01  0.24751681724E+02  0.51100000000E-03 0.  1.
         12    1    3    3    0    0 -0.10604956057E+02 -0.74746882369E+01 -0.72260996849E+01  0.14851012553E+02  0.00000000000E+00 0. -1.
</event>
<event>
 7    1  0.1335379E-011  0.5930195E+02  0.7816164E-02  0.1266605E+00
        -11   -1    0    0    0    0  0.00000000000E+00  0.00000000000E+00  0.45593999997E+02  0.45594000000E+02  0.51100000000E-03 0.  1.
         11   -1    0    0    0    0 -0.00000000000E+00 -0.00000000000E+00 -0.45593999997E+02  0.45594000000E+02  0.51100000000E-03 0. -1.
    9900012    2    1    2    0    0 -0.10619562018E+02  0.21889893088E+02 -0.20610140845E+02  0.59301946269E+02  0.50000004088E+02 0.  0.
        -12    1    1    2    0    0  0.10619562018E+02 -0.21889893088E+02  0.20610140845E+02  0.31886053731E+02  0.00000000000E+00 0.  1.
         11    1    3    3    0    0  0.13620150648E+02  0.54581511309E+01 -0.90947105293E+01  0.17263072650E+02  0.51100000000E-03 0. -1.
        -11    1    3    3    0    0 -0.11226799254E+02 -0.63915356222E+01  0.96126808640E+00  0.12954411824E+02  0.51100000000E-03 0.  1.
         12    1    3    3    0    0 -0.13012913411E+02  0.22823277580E+02 -0.12476698402E+02  0.29084461796E+02  0.00000000000E+00 0. -1.
</event>
<event>
 7    1  0.1335379E-011  0.5930197E+02  0.7816164E-02  0.1266605E+00
        -11   -1    0    0    0    0  0.00000000000E+00  0.00000000000E+00  0.45593999997E+02  0.45594000000E+02  0.51100000000E-03 0. -1.
         11   -1    0    0    0    0 -0.00000000000E+00 -0.00000000000E+00 -0.45593999997E+02  0.45594000000E+02  0.51100000000E-03 0.  1.
    9900012    2    1    2    0    0  0.90512523533E+01  0.25836167619E+02  0.16348889218E+02  0.59301970065E+02  0.50000047485E+02 0.  0.
        -12    1    1    2    0    0 -0.90512523533E+01 -0.25836167619E+02 -0.16348889218E+02  0.31886029935E+02  0.00000000000E+00 0.  1.
         11    1    3    3    0    0  0.17311481729E+02  0.88757851365E+01  0.47927225801E+01  0.20035896571E+02  0.51100000000E-03 0. -1.
        -11    1    3    3    0    0  0.54254568745E+00  0.67788796317E+01  0.21488391018E+02  0.22538822367E+02  0.51100000000E-03 0.  1.
        -12    1    3    3    0    0 -0.88027750627E+01  0.10181502850E+02 -0.99322243807E+01  0.16727251126E+02  0.00000000000E+00 0.  1.
</event>
<event>
 7    1  0.1335379E-011  0.5930193E+02  0.7816164E-02  0.1266605E+00
        -11   -1    0    0    0    0  0.00000000000E+00  0.00000000000E+00  0.45593999997E+02  0.45594000000E+02  0.51100000000E-03 0. -1.
         11   -1    0    0    0    0 -0.00000000000E+00 -0.00000000000E+00 -0.45593999997E+02  0.45594000000E+02  0.51100000000E-03 0.  1.
    9900012    2    1    2    0    0 -0.14502724492E+02  0.28088317652E+02  0.41759895752E+01  0.59301929449E+02  0.49999973413E+02 0.  0.
        -12    1    1    2    0    0  0.14502724492E+02 -0.28088317652E+02 -0.41759895752E+01  0.31886070551E+02  0.00000000000E+00 0.  1.
         11    1    3    3    0    0  0.35786881828E+01  0.13282588045E+02  0.43192137336E+00  0.13763019677E+02  0.51100000000E-03 0. -1.
        -11    1    3    3    0    0 -0.76687695481E+01  0.29758545262E+01 -0.17353822456E+02  0.19204710116E+02  0.51100000000E-03 0.  1.
         12    1    3    3    0    0 -0.10412643127E+02  0.11829875081E+02  0.21097890658E+02  0.26334199656E+02  0.00000000000E+00 0. -1.
</event>
<event>
 7    1  0.1335379E-011  0.5930195E+02  0.7816164E-02  0.1266605E+00
        -11   -1    0    0    0    0  0.00000000000E+00  0.00000000000E+00  0.45593999997E+02  0.45594000000E+02  0.51100000000E-03 0.  1.
         11   -1    0    0    0    0 -0.00000000000E+00 -0.00000000000E+00 -0.45593999997E+02  0.45594000000E+02  0.51100000000E-03 0. -1.
    9900012    2    1    2    0    0  0.81554877330E+01 -0.29851005164E+02 -0.76893263630E+01  0.59301949298E+02  0.50000009611E+02 0.  0.
        -12    1    1    2    0    0 -0.81554877330E+01  0.29851005164E+02  0.76893263630E+01  0.31886050702E+02  0.00000000000E+00 0.  1.
         11    1    3    3    0    0 -0.21210081307E+01 -0.34035710098E+01 -0.21866401511E+02  0.22231115276E+02  0.51100000000E-03 0. -1.
        -11    1    3    3    0    0 -0.47262158417E+00  0.12373010130E+01 -0.26313534673E+01  0.29458965171E+01  0.51100000000E-03 0.  1.
        -12    1    3    3    0    0  0.10749117448E+02 -0.27684735167E+02  0.16808428615E+02  0.34124937505E+02  0.00000000000E+00 0.  1.
</event>
<event>
 7    1  0.1335379E-011  0.5930179E+02  0.7816164E-02  0.1266605E+00
        -11   -1    0    0    0    0  0.00000000000E+00  0.00000000000E+00  0.45593999997E+02  0.45594000000E+02  0.51100000000E-03 0. -1.
         11   -1    0    0    0    0 -0.00000000000E+00 -0.00000000000E+00 -0.45593999997E+02  0.45594000000E+02  0.51100000000E-03 0.  1.
    9900012    2    1    2    0    0 -0.25037869978E+01 -0.18814130099E+02  0.25622064175E+02  0.59301786470E+02  0.49999712651E+02 0.  0.
        -12    1    1    2    0    0  0.25037869978E+01  0.18814130099E+02 -0.25622064175E+02  0.31886213530E+02  0.00000000000E+00 0.  1.
         11    1    3    3    0    0 -0.23378839076E+01  0.11568151959E+02  0.92432630057E+00  0.11838167944E+02  0.51100000000E-03 0. -1.
        -11    1    3    3    0    0 -0.93959336062E+01 -0.22694922879E+01  0.11615481023E+02  0.15111371983E+02  0.51100000000E-03 0.  1.
        -12    1    3    3    0    0  0.92300305159E+01 -0.28112789770E+02  0.13082256852E+02  0.32352246542E+02  0.00000000000E+00 0.  1.
</event>
<event>
 7    1  0.1335379E-011  0.5930186E+02  0.7816164E-02  0.1266605E+00
        -11   -1    0    0    0    0  0.00000000000E+00  0.00000000000E+00  0.45593999997E+02  0.45594000000E+02  0.51100000000E-03 0. -1.
         11   -1    0    0    0    0 -0.00000000000E+00 -0.00000000000E+00 -0.45593999997E+02  0.45594000000E+02  0.51100000000E-03 0.  1.
    9900012    2    1    2    0    0 -0.21415581437E+02 -0.20543393760E+02 -0.11664807837E+02  0.59301860420E+02  0.49999847519E+02 0.  0.
        -12    1    1    2    0    0  0.21415581437E+02  0.20543393760E+02  0.11664807837E+02  0.31886139580E+02  0.00000000000E+00 0.  1.
         11    1    3    3    0    0 -0.83144810620E+01 -0.13850121530E+02 -0.69517989449E+01  0.17586471237E+02  0.51100000000E-03 0. -1.
        -11    1    3    3    0    0  0.68258024147E+00  0.36423154707E+01 -0.18985099003E+02  0.19343380320E+02  0.51100000000E-03 0.  1.
         12    1    3    3    0    0 -0.13783680616E+02 -0.10335587700E+02  0.14272090111E+02  0.22372008863E+02  0.00000000000E+00 0. -1.
</event>
<event>
 7    1  0.1335379E-011  0.5930201E+02  0.7816164E-02  0.1266605E+00
        -11   -1    0    0    0    0  0.00000000000E+00  0.00000000000E+00  0.45593999997E+02  0.45594000000E+02  0.51100000000E-03 0. -1.
         11   -1    0    0    0    0 -0.00000000000E+00 -0.00000000000E+00 -0.45593999997E+02  0.45594000000E+02  0.51100000000E-03 0.  1.
    9900012    2    1    2    0    0  0.73701413061E+01  0.69416758522E+01  0.30235918477E+02  0.59302006011E+02  0.50000113043E+02 0.  0.
        -12    1    1    2    0    0 -0.73701413061E+01 -0.69416758522E+01 -0.30235918477E+02  0.31885993989E+02  0.00000000000E+00 0.  1.
         11    1    3    3    0    0  0.17899985478E+01  0.20646471648E+01  0.44098077409E+01  0.51877998505E+01  0.51100000000E-03 0. -1.
        -11    1    3    3    0    0  0.13304334306E+02  0.11685359731E+02  0.35698897762E+02  0.39849269066E+02  0.51100000000E-03 0.  1.
         12    1    3    3    0    0 -0.77241915479E+01 -0.68083310439E+01 -0.98727870259E+01  0.14264937095E+02  0.00000000000E+00 0. -1.
</event>
<event>
 7    1  0.1335379E-011  0.5930196E+02  0.7816164E-02  0.1266605E+00
        -11   -1    0    0    0    0  0.00000000000E+00  0.00000000000E+00  0.45593999997E+02  0.45594000000E+02  0.51100000000E-03 0. -1.
         11   -1    0    0    0    0 -0.00000000000E+00 -0.00000000000E+00 -0.45593999997E+02  0.45594000000E+02  0.51100000000E-03 0.  1.
    9900012    2    1    2    0    0  0.15595588362E+02 -0.20134710807E+02  0.19185694643E+02  0.59301955489E+02  0.50000020902E+02 0.  0.
        -12    1    1    2    0    0 -0.15595588362E+02  0.20134710807E+02 -0.19185694643E+02  0.31886044511E+02  0.00000000000E+00 0.  1.
         11    1    3    3    0    0  0.11804118250E+02  0.12815269120E+01 -0.15290042873E+01  0.11971523431E+02  0.51100000000E-03 0. -1.
        -11    1    3    3    0    0  0.72946623413E+01  0.31921470830E+01 -0.66410861966E+01  0.10368506537E+02  0.51100000000E-03 0.  1.
         12    1    3    3    0    0 -0.35031922288E+01 -0.24608384802E+02  0.27355785127E+02  0.36961925521E+02  0.00000000000E+00 0. -1.
</event>
<event>
 7    1  0.1335379E-011  0.5930196E+02  0.7816164E-02  0.1266605E+00
        -11   -1    0    0    0    0  0.00000000000E+00  0.00000000000E+00  0.45593999997E+02  0.45594000000E+02  0.51100000000E-03 0. -1.
         11   -1    0    0    0    0 -0.00000000000E+00 -0.00000000000E+00 -0.45593999997E+02  0.45594000000E+02  0.51100000000E-03 0.  1.
    9900012    2    1    2    0    0  0.51081868611E+01  0.10659713202E+02  0.29614121286E+02  0.59301964842E+02  0.50000037959E+02 0.  0.
        -12    1    1    2    0    0 -0.51081868611E+01 -0.10659713202E+02 -0.29614121286E+02  0.31886035158E+02  0.00000000000E+00 0.  1.
         11    1    3    3    0    0  0.12396875957E+02 -0.55216082568E+01 -0.35654500300E+01  0.14031504746E+02  0.51100000000E-03 0. -1.
        -11    1    3    3    0    0  0.32209718847E+01 -0.31510127577E+01 -0.10044687255E+01  0.46165462158E+01  0.51100000000E-03 0.  1.
         12    1    3    3    0    0 -0.10509660981E+02  0.19332334216E+02  0.34184040042E+02  0.40653913880E+02  0.00000000000E+00 0. -1.
</event>
<event>
 7    1  0.1335379E-011  0.5930191E+02  0.7816164E-02  0.1266605E+00
        -11   -1    0    0    0    0  0.00000000000E+00  0.00000000000E+00  0.45593999997E+02  0.45594000000E+02  0.51100000000E-03 0.  1.
         11   -1    0    0    0    0 -0.00000000000E+00 -0.00000000000E+00 -0.45593999997E+02  0.45594000000E+02  0.51100000000E-03 0. -1.
    9900012    2    1    2    0    0  0.10966120345E+02 -0.89776845131E+01 -0.28563402493E+02  0.59301912491E+02  0.49999942485E+02 0.  0.
        -12    1    1    2    0    0 -0.10966120345E+02  0.89776845131E+01  0.28563402493E+02  0.31886087509E+02  0.00000000000E+00 0.  1.
         11    1    3    3    0    0  0.55228204502E+01  0.27980105140E+01  0.52833978239E+01  0.81390848004E+01  0.51100000000E-03 0. -1.
        -11    1    3    3    0    0  0.17745222017E+02 -0.15139550690E+02 -0.12944507746E+02  0.26676940990E+02  0.51100000000E-03 0.  1.
         12    1    3    3    0    0 -0.12301922122E+02  0.33638556626E+01 -0.20902292571E+02  0.24485886701E+02  0.00000000000E+00 0. -1.
</event>
<event>
 7    1  0.1335379E-011  0.5930217E+02  0.7816164E-02  0.1266604E+00
        -11   -1    0    0    0    0  0.00000000000E+00  0.00000000000E+00  0.45593999997E+02  0.45594000000E+02  0.51100000000E-03 0. -1.
         11   -1    0    0    0    0 -0.00000000000E+00 -0.00000000000E+00 -0.45593999997E+02  0.45594000000E+02  0.51100000000E-03 0.  1.
    9900012    2    1    2    0    0 -0.36788687406E+01  0.24333454568E+02  0.20274491272E+02  0.59302171129E+02  0.50000414177E+02 0.  0.
        -12    1    1    2    0    0  0.36788687406E+01 -0.24333454568E+02 -0.20274491272E+02  0.31885828871E+02  0.00000000000E+00 0.  1.
         11    1    3    3    0    0 -0.91013882332E+01 -0.77905858893E+01  0.18629309949E+02  0.22149033516E+02  0.51100000000E-03 0. -1.
        -11    1    3    3    0    0  0.10846475502E+02  0.11915923901E+02 -0.49346235727E+00  0.16120756142E+02  0.51100000000E-03 0.  1.
        -12    1    3    3    0    0 -0.54239560092E+01  0.20208116556E+02  0.21386436806E+01  0.21032381471E+02  0.00000000000E+00 0.  1.
</event>
<event>
 7    1  0.1335379E-011  0.5930196E+02  0.7816164E-02  0.1266605E+00
        -11   -1    0    0    0    0  0.00000000000E+00  0.00000000000E+00  0.45593999997E+02  0.45594000000E+02  0.51100000000E-03 0.  1.
         11   -1    0    0    0    0 -0.00000000000E+00 -0.00000000000E+00 -0.45593999997E+02  0.45594000000E+02  0.51100000000E-03 0. -1.
    9900012    2    1    2    0    0  0.12872410880E+02 -0.13882297273E+02 -0.25657402527E+02  0.59301961616E+02  0.50000032076E+02 0.  0.
        -12    1    1    2    0    0 -0.12872410880E+02  0.13882297273E+02  0.25657402527E+02  0.31886038384E+02  0.00000000000E+00 0.  1.
         11    1    3    3    0    0 -0.64598360671E+01 -0.10697498807E+02 -0.88156571577E+01  0.15293193719E+02  0.51100000000E-03 0. -1.
        -11    1    3    3    0    0  0.17883783897E+02 -0.14675909201E+02  0.51750409638E+00  0.23140437509E+02  0.51100000000E-03 0.  1.
         12    1    3    3    0    0  0.14484630508E+01  0.11491110736E+02 -0.17359249465E+02  0.20868330388E+02  0.00000000000E+00 0. -1.
</event>
<event>
 7    1  0.1335379E-011  0.5930193E+02  0.7816164E-02  0.1266605E+00
        -11   -1    0    0    0    0  0.00000000000E+00  0.00000000000E+00  0.45593999997E+02  0.45594000000E+02  0.51100000000E-03 0.  1.
         11   -1    0    0    0    0 -0.00000000000E+00 -0.00000000000E+00 -0.45593999997E+02  0.45594000000E+02  0.51100000000E-03 0. -1.
    9900012    2    1    2    0    0  0.22702346308E+02  0.11305482176E+02 -0.19326432248E+02  0.59301930337E+02  0.49999975032E+02 0.  0.
        -12    1    1    2    0    0 -0.22702346308E+02 -0.11305482176E+02  0.19326432248E+02  0.31886069663E+02  0.00000000000E+00 0.  1.
         11    1    3    3    0    0  0.64255424745E+01  0.13080160416E+02 -0.75495154456E+01  0.16412598098E+02  0.51100000000E-03 0. -1.
        -11    1    3    3    0    0  0.94729053836E+01 -0.89905051562E+01 -0.23894404150E+02  0.27230638430E+02  0.51100000000E-03 0.  1.
        -12    1    3    3    0    0  0.68038984495E+01  0.72158269162E+01  0.12117487347E+02  0.15658693809E+02  0.00000000000E+00 0.  1.
</event>
<event>
 7    1  0.1335379E-011  0.5930195E+02  0.7816164E-02  0.1266605E+00
        -11   -1    0    0    0    0  0.00000000000E+00  0.00000000000E+00  0.45593999997E+02  0.45594000000E+02  0.51100000000E-03 0.  1.
         11   -1    0    0    0    0 -0.00000000000E+00 -0.00000000000E+00 -0.45593999997E+02  0.45594000000E+02  0.51100000000E-03 0. -1.
    9900012    2    1    2    0    0  0.13697768687E+02 -0.28420669093E+02 -0.46213646061E+01  0.59301948041E+02  0.50000007319E+02 0.  0.
        -12    1    1    2    0    0 -0.13697768687E+02  0.28420669093E+02  0.46213646061E+01  0.31886051959E+02  0.00000000000E+00 0.  1.
         11    1    3    3    0    0 -0.17029818339E-01 -0.58760402484E+01  0.26018533736E+01  0.64263349006E+01  0.51100000000E-03 0. -1.
        -11    1    3    3    0    0  0.13113946868E+02 -0.35383355626E+02  0.76421417840E+00  0.37743098460E+02  0.51100000000E-03 0.  1.
        -12    1    3    3    0    0  0.60085163755E+00  0.12838726781E+02 -0.79874321581E+01  0.15132514680E+02  0.00000000000E+00 0.  1.
</event>
<event>
 7    1  0.1335379E-011  0.5930194E+02  0.7816164E-02  0.1266605E+00
        -11   -1    0    0    0    0  0.00000000000E+00  0.00000000000E+00  0.45593999997E+02  0.45594000000E+02  0.51100000000E-03 0.  1.
         11   -1    0    0    0    0 -0.00000000000E+00 -0.00000000000E+00 -0.45593999997E+02  0.45594000000E+02  0.51100000000E-03 0. -1.
    9900012    2    1    2    0    0  0.27779100605E+02 -0.79890221513E+01 -0.13461713788E+02  0.59301942804E+02  0.49999997768E+02 0.  0.
        -12    1    1    2    0    0 -0.27779100605E+02  0.79890221513E+01  0.13461713788E+02  0.31886057196E+02  0.00000000000E+00 0.  1.
         11    1    3    3    0    0  0.25795843387E+02 -0.13941785853E+02 -0.14064175521E+02  0.32520762017E+02  0.51100000000E-03 0. -1.
        -11    1    3    3    0    0  0.37782055300E+01 -0.61105157459E+01  0.93362152930E+01  0.11780414083E+02  0.51100000000E-03 0.  1.
        -12    1    3    3    0    0 -0.17949483113E+01  0.12063279447E+02 -0.87337535607E+01  0.15000766705E+02  0.00000000000E+00 0.  1.
</event>
<event>
 7    1  0.1335379E-011  0.5930197E+02  0.7816164E-02  0.1266605E+00
        -11   -1    0    0    0    0  0.00000000000E+00  0.00000000000E+00  0.45593999997E+02  0.45594000000E+02  0.51100000000E-03 0.  1.
         11   -1    0    0    0    0 -0.00000000000E+00 -0.00000000000E+00 -0.45593999997E+02  0.45594000000E+02  0.51100000000E-03 0. -1.
    9900012    2    1    2    0    0  0.14639226116E+02  0.52882783162E+01 -0.27828868857E+02  0.59301972171E+02  0.50000051327E+02 0.  0.
        -12    1    1    2    0    0 -0.14639226116E+02 -0.52882783162E+01  0.27828868857E+02  0.31886027829E+02  0.00000000000E+00 0.  1.
         11    1    3    3    0    0 -0.47544698697E+01  0.47603038497E+00 -0.13225491529E+02  0.14062190979E+02  0.51100000000E-03 0. -1.
        -11    1    3    3    0    0  0.10933020393E+02  0.80106738597E+01 -0.26813494863E+02  0.30044389453E+02  0.51100000000E-03 0.  1.
        -12    1    3    3    0    0  0.84606755923E+01 -0.31984259284E+01  0.12210117535E+02  0.15195391739E+02  0.00000000000E+00 0.  1.
</event>
<event>
 7    1  0.1335379E-011  0.5930198E+02  0.7816164E-02  0.1266605E+00
        -11   -1    0    0    0    0  0.00000000000E+00  0.00000000000E+00  0.45593999997E+02  0.45594000000E+02  0.51100000000E-03 0. -1.
         11   -1    0    0    0    0 -0.00000000000E+00 -0.00000000000E+00 -0.45593999997E+02  0.45594000000E+02  0.51100000000E-03 0.  1.
    9900012    2    1    2    0    0  0.24830923899E+02 -0.44264676227E+01  0.19507691352E+02  0.59301977683E+02  0.50000061380E+02 0.  0.
        -12    1    1    2    0    0 -0.24830923899E+02  0.44264676227E+01 -0.19507691352E+02  0.31886022317E+02  0.00000000000E+00 0.  1.
         11    1    3    3    0    0  0.14418633391E+02  0.99972021501E+01  0.41228551331E+01  0.18023289778E+02  0.51100000000E-03 0. -1.
        -11    1    3    3    0    0  0.10808238459E+02  0.78438133424E+01 -0.13476926051E+01  0.13422358286E+02  0.51100000000E-03 0.  1.
        -12    1    3    3    0    0 -0.39594795078E+00 -0.22267483115E+02  0.16732528824E+02  0.27856329620E+02  0.00000000000E+00 0.  1.
</event>
<event>
 7    1  0.1335379E-011  0.5930192E+02  0.7816164E-02  0.1266605E+00
        -11   -1    0    0    0    0  0.00000000000E+00  0.00000000000E+00  0.45593999997E+02  0.45594000000E+02  0.51100000000E-03 0.  1.
         11   -1    0    0    0    0 -0.00000000000E+00 -0.00000000000E+00 -0.45593999997E+02  0.45594000000E+02  0.51100000000E-03 0. -1.
    9900012    2    1    2    0    0  0.19016706482E+02 -0.23537912955E+01 -0.25486200356E+02  0.59301923611E+02  0.49999962765E+02 0.  0.
        -12    1    1    2    0    0 -0.19016706482E+02  0.23537912955E+01  0.25486200356E+02  0.31886076389E+02  0.00000000000E+00 0.  1.
         11    1    3    3    0    0  0.66188553992E+01  0.13713956991E+02 -0.66245612279E+01  0.16606223980E+02  0.51100000000E-03 0. -1.
        -11    1    3    3    0    0  0.17651579833E+02 -0.48142517283E+01  0.20121705474E+01  0.18406632524E+02  0.51100000000E-03 0.  1.
         12    1    3    3    0    0 -0.52537287504E+01 -0.11253496558E+02 -0.20873809675E+02  0.24289067107E+02  0.00000000000E+00 0. -1.
</event>
<event>
 7    1  0.1335379E-011  0.5930172E+02  0.7816164E-02  0.1266606E+00
        -11   -1    0    0    0    0  0.00000000000E+00  0.00000000000E+00  0.45593999997E+02  0.45594000000E+02  0.51100000000E-03 0.  1.
         11   -1    0    0    0    0 -0.00000000000E+00 -0.00000000000E+00 -0.45593999997E+02  0.45594000000E+02  0.51100000000E-03 0. -1.
    9900012    2    1    2    0    0 -0.27875737164E+02 -0.14088699856E+02  0.64176676115E+01  0.59301723271E+02  0.49999597391E+02 0.  0.
        -12    1    1    2    0    0  0.27875737164E+02  0.14088699856E+02 -0.64176676115E+01  0.31886276729E+02  0.00000000000E+00 0.  1.
         11    1    3    3    0    0 -0.47275573166E+01  0.99751486418E+01  0.24205977446E+01  0.11301003597E+02  0.51100000000E-03 0. -1.
        -11    1    3    3    0    0 -0.13231203008E+01 -0.37161882736E+01 -0.13051658679E+02  0.13634753285E+02  0.51100000000E-03 0.  1.
        -12    1    3    3    0    0 -0.21825059547E+02 -0.20347660224E+02  0.17048728546E+02  0.34365966389E+02  0.00000000000E+00 0.  1.
</event>
<event>
 7    1  0.1335379E-011  0.5930204E+02  0.7816164E-02  0.1266604E+00
        -11   -1    0    0    0    0  0.00000000000E+00  0.00000000000E+00  0.45593999997E+02  0.45594000000E+02  0.51100000000E-03 0.  1.
         11   -1    0    0    0    0 -0.00000000000E+00 -0.00000000000E+00 -0.45593999997E+02  0.45594000000E+02  0.51100000000E-03 0. -1.
    9900012    2    1    2    0    0  0.28690312051E+02  0.71715609000E+01  0.11922629288E+02  0.59302041014E+02  0.50000176879E+02 0.  0.
        -12    1    1    2    0    0 -0.28690312051E+02 -0.71715609000E+01 -0.11922629288E+02  0.31885958986E+02  0.00000000000E+00 0.  1.
         11    1    3    3    0    0 -0.28775998105E+01 -0.13289387822E+02 -0.45997086243E+01  0.14354293053E+02  0.51100000000E-03 0. -1.
        -11    1    3    3    0    0  0.17303970554E+02  0.77693883621E+01 -0.10528559722E+01  0.18997349774E+02  0.51100000000E-03 0.  1.
        -12    1    3    3    0    0  0.14263941307E+02  0.12691560360E+02  0.17575193885E+02  0.25950398187E+02  0.00000000000E+00 0.  1.
</event>
<event>
 7    1  0.1335379E-011  0.5930195E+02  0.7816164E-02  0.1266605E+00
        -11   -1    0    0    0    0  0.00000000000E+00  0.00000000000E+00  0.45593999997E+02  0.45594000000E+02  0.51100000000E-03 0.  1.
         11   -1    0    0    0    0 -0.00000000000E+00 -0.00000000000E+00 -0.45593999997E+02  0.45594000000E+02  0.51100000000E-03 0. -1.
    9900012    2    1    2    0    0 -0.28503482140E+02  0.66270175274E+01 -0.12663107509E+02  0.59301950586E+02  0.50000011961E+02 0.  0.
        -12    1    1    2    0    0  0.28503482140E+02 -0.66270175274E+01  0.12663107509E+02  0.31886049414E+02  0.00000000000E+00 0.  1.
         11    1    3    3    0    0 -0.26964272297E+01  0.92925067234E+01 -0.18425056145E+02  0.20811153144E+02  0.51100000000E-03 0. -1.
        -11    1    3    3    0    0 -0.10512324261E+02  0.12125088630E+02 -0.12304299249E+01  0.16094741182E+02  0.51100000000E-03 0.  1.
        -12    1    3    3    0    0 -0.15294730650E+02 -0.14790577826E+02  0.69923785603E+01  0.22396056260E+02  0.00000000000E+00 0.  1.
</event>
<event>
 7    1  0.1335379E-011  0.5930208E+02  0.7816164E-02  0.1266604E+00
        -11   -1    0    0    0    0  0.00000000000E+00  0.00000000000E+00  0.45593999997E+02  0.45594000000E+02  0.51100000000E-03 0. -1.
         11   -1    0    0    0    0 -0.00000000000E+00 -0.00000000000E+00 -0.45593999997E+02  0.45594000000E+02  0.51100000000E-03 0.  1.
    9900012    2    1    2    0    0 -0.10959447307E+02 -0.41231614486E+01  0.29658080953E+02  0.59302082867E+02  0.50000253209E+02 0.  0.
        -12    1    1    2    0    0  0.10959447307E+02  0.41231614486E+01 -0.29658080953E+02  0.31885917133E+02  0.00000000000E+00 0.  1.
         11    1    3    3    0    0 -0.13662022828E+02 -0.76098715349E+01  0.29768503544E+02  0.33626251888E+02  0.51100000000E-03 0. -1.
        -11    1    3    3    0    0 -0.93123654773E+01  0.65121686085E+01  0.48165937708E+01  0.12342125691E+02  0.51100000000E-03 0.  1.
        -12    1    3    3    0    0  0.12014940999E+02 -0.30254585222E+01 -0.49270163616E+01  0.13333705288E+02  0.00000000000E+00 0.  1.
</event>
<event>
 7    1  0.1335379E-011  0.5930189E+02  0.7816164E-02  0.1266605E+00
        -11   -1    0    0    0    0  0.00000000000E+00  0.00000000000E+00  0.45593999997E+02  0.45594000000E+02  0.51100000000E-03 0.  1.
         11   -1    0    0    0    0 -0.00000000000E+00 -0.00000000000E+00 -0.45593999997E+02  0.45594000000E+02  0.51100000000E-03 0. -1.
    9900012    2    1    2    0    0 -0.25243953499E+02 -0.18553354856E+02 -0.59363400601E+01  0.59301885499E+02  0.49999893258E+02 0.  0.
        -12    1    1    2    0    0  0.25243953499E+02  0.18553354856E+02  0.59363400601E+01  0.31886114501E+02  0.00000000000E+00 0.  1.
         11    1    3    3    0    0 -0.88474030700E+01 -0.88357698362E-01  0.93730430557E+00  0.88973528528E+01  0.51100000000E-03 0. -1.
        -11    1    3    3    0    0 -0.29641991479E+02 -0.34634152055E+01 -0.54911174310E+01  0.30344608659E+02  0.51100000000E-03 0.  1.
         12    1    3    3    0    0  0.13245441051E+02 -0.15001581952E+02 -0.13825269346E+01  0.20059923988E+02  0.00000000000E+00 0. -1.
</event>
<event>
 7    1  0.1335379E-011  0.5930193E+02  0.7816164E-02  0.1266605E+00
        -11   -1    0    0    0    0  0.00000000000E+00  0.00000000000E+00  0.45593999997E+02  0.45594000000E+02  0.51100000000E-03 0.  1.
         11   -1    0    0    0    0 -0.00000000000E+00 -0.00000000000E+00 -0.45593999997E+02  0.45594000000E+02  0.51100000000E-03 0. -1.
    9900012    2    1    2    0    0  0.23754750477E+02 -0.16250941877E+02 -0.13723704691E+02  0.59301931686E+02  0.49999977491E+02 0.  0.
        -12    1    1    2    0    0 -0.23754750477E+02  0.16250941877E+02  0.13723704691E+02  0.31886068314E+02  0.00000000000E+00 0.  1.
         11    1    3    3    0    0  0.75387457483E+01 -0.79312337737E+01 -0.64118177231E+01  0.12682608699E+02  0.51100000000E-03 0. -1.
        -11    1    3    3    0    0 -0.81281681542E+00  0.13552166349E+02 -0.12458245429E+02  0.18426333421E+02  0.51100000000E-03 0.  1.
         12    1    3    3    0    0  0.17028821544E+02 -0.21871874452E+02  0.51463584612E+01  0.28192989565E+02  0.00000000000E+00 0. -1.
</event>
<event>
 7    1  0.1335379E-011  0.5930192E+02  0.7816164E-02  0.1266605E+00
        -11   -1    0    0    0    0  0.00000000000E+00  0.00000000000E+00  0.45593999997E+02  0.45594000000E+02  0.51100000000E-03 0. -1.
         11   -1    0    0    0    0 -0.00000000000E+00 -0.00000000000E+00 -0.45593999997E+02  0.45594000000E+02  0.51100000000E-03 0.  1.
    9900012    2    1    2    0    0 -0.36536644998E+01 -0.16371093707E+02  0.27117524171E+02  0.59301920112E+02  0.49999956384E+02 0.  0.
        -12    1    1    2    0    0  0.36536644998E+01  0.16371093707E+02 -0.27117524171E+02  0.31886079888E+02  0.00000000000E+00 0.  1.
         11    1    3    3    0    0  0.11337312119E+01  0.16242623713E+01  0.16074942203E+02  0.16196522522E+02  0.51100000000E-03 0. -1.
        -11    1    3    3    0    0 -0.20556033509E+02 -0.49816166435E+01  0.68694260565E+01  0.22238615798E+02  0.51100000000E-03 0.  1.
         12    1    3    3    0    0  0.15768637798E+02 -0.13013739435E+02  0.41731559111E+01  0.20866781791E+02  0.00000000000E+00 0. -1.
</event>
<event>
 7    1  0.1335379E-011  0.5930194E+02  0.7816164E-02  0.1266605E+00
        -11   -1    0    0    0    0  0.00000000000E+00  0.00000000000E+00  0.45593999997E+02  0.45594000000E+02  0.51100000000E-03 0.  1.
         11   -1    0    0    0    0 -0.00000000000E+00 -0.00000000000E+00 -0.45593999997E+02  0.45594000000E+02  0.51100000000E-03 0. -1.
    9900012    2    1    2    0    0 -0.13289633804E+02  0.25694616593E+02 -0.13412413224E+02  0.59301944787E+02  0.50000001385E+02 0.  0.
        -12    1    1    2    0    0  0.13289633804E+02 -0.25694616593E+02  0.13412413224E+02  0.31886055213E+02  0.00000000000E+00 0.  1.
         11    1    3    3    0    0 -0.10939433984E+02  0.20074998704E+02 -0.22832953750E+02  0.32311307093E+02  0.51100000000E-03 0. -1.
        -11    1    3    3    0    0 -0.45340684830E+01 -0.74023057335E+01 -0.26758207277E+01  0.90836074336E+01  0.51100000000E-03 0.  1.
        -12    1    3    3    0    0  0.21838686626E+01  0.13021923623E+02  0.12096361254E+02  0.17907030261E+02  0.00000000000E+00 0.  1.
</event>
<event>
 7    1  0.1335379E-011  0.5930191E+02  0.7816164E-02  0.1266605E+00
        -11   -1    0    0    0    0  0.00000000000E+00  0.00000000000E+00  0.45593999997E+02  0.45594000000E+02  0.51100000000E-03 0. -1.
         11   -1    0    0    0    0 -0.00000000000E+00 -0.00000000000E+00 -0.45593999997E+02  0.45594000000E+02  0.51100000000E-03 0.  1.
    9900012    2    1    2    0    0  0.20740152528E+02 -0.23876276305E+02 -0.40610505017E+01  0.59301911682E+02  0.49999941009E+02 0.  0.
        -12    1    1    2    0    0 -0.20740152528E+02  0.23876276305E+02  0.40610505017E+01  0.31886088318E+02  0.00000000000E+00 0.  1.
         11    1    3    3    0    0 -0.47532846337E+01 -0.10585643713E+02  0.15854014248E+02  0.19646865798E+02  0.51100000000E-03 0. -1.
        -11    1    3    3    0    0  0.40627270710E+01 -0.12171514839E+02 -0.74345570981E+01  0.14829840331E+02  0.51100000000E-03 0.  1.
         12    1    3    3    0    0  0.21430710091E+02 -0.11191177525E+01 -0.12480507652E+02  0.24825205553E+02  0.00000000000E+00 0. -1.
</event>
<event>
 7    1  0.1335379E-011  0.5930197E+02  0.7816164E-02  0.1266605E+00
        -11   -1    0    0    0    0  0.00000000000E+00  0.00000000000E+00  0.45593999997E+02  0.45594000000E+02  0.51100000000E-03 0.  1.
         11   -1    0    0    0    0 -0.00000000000E+00 -0.00000000000E+00 -0.45593999997E+02  0.45594000000E+02  0.51100000000E-03 0. -1.
    9900012    2    1    2    0    0 -0.63056382775E+01  0.13674609582E+02 -0.28106275944E+02  0.59301972202E+02  0.50000051382E+02 0.  0.
        -12    1    1    2    0    0  0.63056382775E+01 -0.13674609582E+02  0.28106275944E+02  0.31886027798E+02  0.00000000000E+00 0.  1.
         11    1    3    3    0    0 -0.79795657894E+01  0.12071265044E+02 -0.25237789919E+02  0.29091836487E+02  0.51100000000E-03 0. -1.
        -11    1    3    3    0    0  0.99914605608E+01  0.12724081223E+02 -0.18995131054E+01  0.16289250364E+02  0.51100000000E-03 0.  1.
        -12    1    3    3    0    0 -0.83175330489E+01 -0.11120736685E+02 -0.96897291982E+00  0.13920885351E+02  0.00000000000E+00 0.  1.
</event>
<event>
 7    1  0.1335379E-011  0.5930192E+02  0.7816164E-02  0.1266605E+00
        -11   -1    0    0    0    0  0.00000000000E+00  0.00000000000E+00  0.45593999997E+02  0.45594000000E+02  0.51100000000E-03 0.  1.
         11   -1    0    0    0    0 -0.00000000000E+00 -0.00000000000E+00 -0.45593999997E+02  0.45594000000E+02  0.51100000000E-03 0. -1.
    9900012    2    1    2    0    0 -0.18020513916E+02 -0.26278664852E+02 -0.11894538154E+01  0.59301922340E+02  0.49999960447E+02 0.  0.
        -12    1    1    2    0    0  0.18020513916E+02  0.26278664852E+02  0.11894538154E+01  0.31886077660E+02  0.00000000000E+00 0.  1.
         11    1    3    3    0    0 -0.12444759864E+01 -0.26816250206E+02  0.82240345970E+00  0.26857705473E+02  0.51100000000E-03 0. -1.
        -11    1    3    3    0    0  0.25363674558E+01 -0.70501121715E+01 -0.78874693879E+01  0.10878851737E+02  0.51100000000E-03 0.  1.
        -12    1    3    3    0    0 -0.19312405385E+02  0.75876975255E+01  0.58756121128E+01  0.21565365130E+02  0.00000000000E+00 0.  1.
</event>
<event>
 7    1  0.1335379E-011  0.5930194E+02  0.7816164E-02  0.1266605E+00
        -11   -1    0    0    0    0  0.00000000000E+00  0.00000000000E+00  0.45593999997E+02  0.45594000000E+02  0.51100000000E-03 0.  1.
         11   -1    0    0    0    0 -0.00000000000E+00 -0.00000000000E+00 -0.45593999997E+02  0.45594000000E+02  0.51100000000E-03 0. -1.
    9900012    2    1    2    0    0  0.63857051576E+01 -0.29877496435E+02 -0.91257104457E+01  0.59301943255E+02  0.49999998591E+02 0.  0.
        -12    1    1    2    0    0 -0.63857051576E+01  0.29877496435E+02  0.91257104457E+01  0.31886056745E+02  0.00000000000E+00 0.  1.
         11    1    3    3    0    0  0.10955429340E+02  0.38363570015E+01 -0.18695858893E+02  0.22006231097E+02  0.51100000000E-03 0. -1.
        -11    1    3    3    0    0 -0.20024781197E+01 -0.36154365797E+01 -0.24269568938E+01  0.47928509582E+01  0.51100000000E-03 0.  1.
        -12    1    3    3    0    0 -0.25672460629E+01 -0.30098416857E+02  0.11997105341E+02  0.32502861200E+02  0.00000000000E+00 0.  1.
</event>
<event>
 7    1  0.1335379E-011  0.5930195E+02  0.7816164E-02  0.1266605E+00
        -11   -1    0    0    0    0  0.00000000000E+00  0.00000000000E+00  0.45593999997E+02  0.45594000000E+02  0.51100000000E-03 0.  1.
         11   -1    0    0    0    0 -0.00000000000E+00 -0.00000000000E+00 -0.45593999997E+02  0.45594000000E+02  0.51100000000E-03 0. -1.
    9900012    2    1    2    0    0  0.12837111555E+02  0.18253477094E+02 -0.22775853105E+02  0.59301947504E+02  0.50000006341E+02 0.  0.
        -12    1    1    2    0    0 -0.12837111555E+02 -0.18253477094E+02  0.22775853105E+02  0.31886052496E+02  0.00000000000E+00 0.  1.
         11    1    3    3    0    0  0.92725630116E+01  0.90855483931E+01 -0.28390896357E+01  0.13288643446E+02  0.51100000000E-03 0. -1.
        -11    1    3    3    0    0 -0.13256550357E+01  0.10141250561E+02 -0.31661492164E+02  0.33272397126E+02  0.51100000000E-03 0.  1.
        -12    1    3    3    0    0  0.48902035792E+01 -0.97332186073E+00  0.11724728695E+02  0.12740906932E+02  0.00000000000E+00 0.  1.
</event>
<event>
 7    1  0.1335379E-011  0.5930194E+02  0.7816164E-02  0.1266605E+00
        -11   -1    0    0    0    0  0.00000000000E+00  0.00000000000E+00  0.45593999997E+02  0.45594000000E+02  0.51100000000E-03 0.  1.
         11   -1    0    0    0    0 -0.00000000000E+00 -0.00000000000E+00 -0.45593999997E+02  0.45594000000E+02  0.51100000000E-03 0. -1.
    9900012    2    1    2    0    0 -0.25366296914E+02  0.20724962525E+01 -0.19208770181E+02  0.59301935462E+02  0.49999984378E+02 0.  0.
        -12    1    1    2    0    0  0.25366296914E+02 -0.20724962525E+01  0.19208770181E+02  0.31886064538E+02  0.00000000000E+00 0.  1.
         11    1    3    3    0    0 -0.15033822544E+02 -0.56060763298E+01 -0.12319709721E+01  0.16092285880E+02  0.51100000000E-03 0. -1.
        -11    1    3    3    0    0 -0.13322967606E+02 -0.11731213828E+02 -0.19447004551E+01  0.17857903119E+02  0.51100000000E-03 0.  1.
         12    1    3    3    0    0  0.29904932358E+01  0.19409786410E+02 -0.16032098754E+02  0.25351746463E+02  0.00000000000E+00 0. -1.
</event>
<event>
 7    1  0.1335379E-011  0.5930191E+02  0.7816164E-02  0.1266605E+00
        -11   -1    0    0    0    0  0.00000000000E+00  0.00000000000E+00  0.45593999997E+02  0.45594000000E+02  0.51100000000E-03 0. -1.
         11   -1    0    0    0    0 -0.00000000000E+00 -0.00000000000E+00 -0.45593999997E+02  0.45594000000E+02  0.51100000000E-03 0.  1.
    9900012    2    1    2    0    0  0.18519856979E+02 -0.23512235451E+02  0.10996020101E+02  0.59301909357E+02  0.49999936769E+02 0.  0.
        -12    1    1    2    0    0 -0.18519856979E+02  0.23512235451E+02 -0.10996020101E+02  0.31886090643E+02  0.00000000000E+00 0.  1.
         11    1    3    3    0    0  0.21756490575E+02 -0.20252509164E+02 -0.92084424813E-01  0.29724022093E+02  0.51100000000E-03 0. -1.
        -11    1    3    3    0    0  0.87508817727E+01 -0.56364879126E+01  0.13575165262E+02  0.17106520392E+02  0.51100000000E-03 0.  1.
        -12    1    3    3    0    0 -0.11987515369E+02  0.23767616249E+01 -0.24870607361E+01  0.12471366872E+02  0.00000000000E+00 0.  1.
</event>
<event>
 7    1  0.1335379E-011  0.5930194E+02  0.7816164E-02  0.1266605E+00
        -11   -1    0    0    0    0  0.00000000000E+00  0.00000000000E+00  0.45593999997E+02  0.45594000000E+02  0.51100000000E-03 0.  1.
         11   -1    0    0    0    0 -0.00000000000E+00 -0.00000000000E+00 -0.45593999997E+02  0.45594000000E+02  0.51100000000E-03 0. -1.
    9900012    2    1    2    0    0 -0.10508893517E+01  0.74445888679E+01 -0.30987003786E+02  0.59301942302E+02  0.49999996853E+02 0.  0.
        -12    1    1    2    0    0  0.10508893517E+01 -0.74445888679E+01  0.30987003786E+02  0.31886057698E+02  0.00000000000E+00 0.  1.
         11    1    3    3    0    0  0.65465047593E+01  0.97516343575E+01 -0.14196116520E+02  0.18425005339E+02  0.51100000000E-03 0. -1.
        -11    1    3    3    0    0  0.58772056152E+01 -0.11897980236E+02 -0.20026305769E+02  0.24024079640E+02  0.51100000000E-03 0.  1.
         12    1    3    3    0    0 -0.13474599726E+02  0.95909347463E+01  0.32354185027E+01  0.16852857324E+02  0.00000000000E+00 0. -1.
</event>
<event>
 7    1  0.1335379E-011  0.5930193E+02  0.7816164E-02  0.1266605E+00
        -11   -1    0    0    0    0  0.00000000000E+00  0.00000000000E+00  0.45593999997E+02  0.45594000000E+02  0.51100000000E-03 0. -1.
         11   -1    0    0    0    0 -0.00000000000E+00 -0.00000000000E+00 -0.45593999997E+02  0.45594000000E+02  0.51100000000E-03 0.  1.
    9900012    2    1    2    0    0  0.27104733764E+02 -0.13632172963E+02  0.98091122828E+01  0.59301930692E+02  0.49999975679E+02 0.  0.
        -12    1    1    2    0    0 -0.27104733764E+02  0.13632172963E+02 -0.98091122828E+01  0.31886069308E+02  0.00000000000E+00 0.  1.
         11    1    3    3    0    0  0.35603998663E+01 -0.25839759316E+01  0.29142500484E+00  0.44088896128E+01  0.51100000000E-03 0. -1.
        -11    1    3    3    0    0  0.15557282624E+02 -0.29652517107E+02  0.29837472234E+01  0.33618500281E+02  0.51100000000E-03 0.  1.
        -12    1    3    3    0    0  0.79870512740E+01  0.18604320076E+02  0.65339400545E+01  0.21274540798E+02  0.00000000000E+00 0.  1.
</event>
<event>
 7    1  0.1335379E-011  0.5930196E+02  0.7816164E-02  0.1266605E+00
        -11   -1    0    0    0    0  0.00000000000E+00  0.00000000000E+00  0.45593999997E+02  0.45594000000E+02  0.51100000000E-03 0. -1.
         11   -1    0    0    0    0 -0.00000000000E+00 -0.00000000000E+00 -0.45593999997E+02  0.45594000000E+02  0.51100000000E-03 0.  1.
    9900012    2    1    2    0    0 -0.13866433379E+02 -0.28267219475E+02  0.50404199820E+01  0.59301960655E+02  0.50000030325E+02 0.  0.
        -12    1    1    2    0    0  0.13866433379E+02  0.28267219475E+02 -0.50404199820E+01  0.31886039345E+02  0.00000000000E+00 0.  1.
         11    1    3    3    0    0 -0.10849167916E+02 -0.18037192528E+02  0.34440322230E+01  0.21328528242E+02  0.51100000000E-03 0. -1.
        -11    1    3    3    0    0  0.81968161465E+01 -0.20104916249E+02  0.57586471954E+01  0.22462356735E+02  0.51100000000E-03 0.  1.
         12    1    3    3    0    0 -0.11214081609E+02  0.98748893021E+01 -0.41622594364E+01  0.15511075678E+02  0.00000000000E+00 0. -1.
</event>
<event>
 7    1  0.1335379E-011  0.5930199E+02  0.7816164E-02  0.1266605E+00
        -11   -1    0    0    0    0  0.00000000000E+00  0.00000000000E+00  0.45593999997E+02  0.45594000000E+02  0.51100000000E-03 0. -1.
         11   -1    0    0    0    0 -0.00000000000E+00 -0.00000000000E+00 -0.45593999997E+02  0.45594000000E+02  0.51100000000E-03 0.  1.
    9900012    2    1    2    0    0  0.27242126963E+02 -0.14826923227E+02  0.73990796372E+01  0.59301991888E+02  0.50000087286E+02 0.  0.
        -12    1    1    2    0    0 -0.27242126963E+02  0.14826923227E+02 -0.73990796372E+01  0.31886008112E+02  0.00000000000E+00 0.  1.
         11    1    3    3    0    0  0.15732836963E+02 -0.18992359232E+02  0.19488287642E+02  0.31432868523E+02  0.51100000000E-03 0. -1.
        -11    1    3    3    0    0  0.16019044206E+02  0.90509324727E+01 -0.79969527571E+01  0.20061914404E+02  0.51100000000E-03 0.  1.
        -12    1    3    3    0    0 -0.45097542062E+01 -0.48854964673E+01 -0.40922552482E+01  0.78072089603E+01  0.00000000000E+00 0.  1.
</event>
<event>
 7    1  0.1335379E-011  0.5930196E+02  0.7816164E-02  0.1266605E+00
        -11   -1    0    0    0    0  0.00000000000E+00  0.00000000000E+00  0.45593999997E+02  0.45594000000E+02  0.51100000000E-03 0. -1.
         11   -1    0    0    0    0 -0.00000000000E+00 -0.00000000000E+00 -0.45593999997E+02  0.45594000000E+02  0.51100000000E-03 0.  1.
    9900012    2    1    2    0    0  0.14344407170E+02 -0.27593512250E+02  0.70395948551E+01  0.59301955544E+02  0.50000021002E+02 0.  0.
        -12    1    1    2    0    0 -0.14344407170E+02  0.27593512250E+02 -0.70395948551E+01  0.31886044456E+02  0.00000000000E+00 0.  1.
         11    1    3    3    0    0 -0.18633552029E+01  0.76321446743E+00 -0.37357200384E+01  0.42438418210E+01  0.51100000000E-03 0. -1.
        -11    1    3    3    0    0 -0.69470830465E+01  0.53451859534E+01 -0.62501241799E+01  0.10765548210E+02  0.51100000000E-03 0.  1.
         12    1    3    3    0    0  0.23154845420E+02 -0.33701912671E+02  0.17025439073E+02  0.44292565513E+02  0.00000000000E+00 0. -1.
</event>
<event>
 7    1  0.1335379E-011  0.5930193E+02  0.7816164E-02  0.1266605E+00
        -11   -1    0    0    0    0  0.00000000000E+00  0.00000000000E+00  0.45593999997E+02  0.45594000000E+02  0.51100000000E-03 0.  1.
         11   -1    0    0    0    0 -0.00000000000E+00 -0.00000000000E+00 -0.45593999997E+02  0.45594000000E+02  0.51100000000E-03 0. -1.
    9900012    2    1    2    0    0  0.25866943797E+02  0.35630020811E+01 -0.18301029257E+02  0.59301930360E+02  0.49999975073E+02 0.  0.
        -12    1    1    2    0    0 -0.25866943797E+02 -0.35630020811E+01  0.18301029257E+02  0.31886069640E+02  0.00000000000E+00 0.  1.
         11    1    3    3    0    0  0.29572632407E+02  0.91047362300E+01 -0.25605302062E+01  0.31048238670E+02  0.51100000000E-03 0. -1.
        -11    1    3    3    0    0 -0.21406067301E+01 -0.83900848857E+01  0.30529481321E+01  0.91812969738E+01  0.51100000000E-03 0.  1.
         12    1    3    3    0    0 -0.15650818799E+01  0.28483507368E+01 -0.18793447182E+02  0.19072394716E+02  0.00000000000E+00 0. -1.
</event>
<event>
 7    1  0.1335379E-011  0.5930196E+02  0.7816164E-02  0.1266605E+00
        -11   -1    0    0    0    0  0.00000000000E+00  0.00000000000E+00  0.45593999997E+02  0.45594000000E+02  0.51100000000E-03 0.  1.
         11   -1    0    0    0    0 -0.00000000000E+00 -0.00000000000E+00 -0.45593999997E+02  0.45594000000E+02  0.51100000000E-03 0. -1.
    9900012    2    1    2    0    0 -0.20629797409E+02  0.23841229314E+02 -0.47672373270E+01  0.59301963745E+02  0.50000035960E+02 0.  0.
        -12    1    1    2    0    0  0.20629797409E+02 -0.23841229314E+02  0.47672373270E+01  0.31886036255E+02  0.00000000000E+00 0.  1.
         11    1    3    3    0    0  0.93734618927E+00  0.68707023962E+01 -0.12254788145E+02  0.14080660568E+02  0.51100000000E-03 0. -1.
        -11    1    3    3    0    0 -0.27046009107E+02  0.24003319183E+01 -0.15948886655E+01  0.27199115281E+02  0.51100000000E-03 0.  1.
        -12    1    3    3    0    0  0.54788655090E+01  0.14570194999E+02  0.90824394836E+01  0.18022187896E+02  0.00000000000E+00 0.  1.
</event>
<event>
 7    1  0.1335379E-011  0.5930198E+02  0.7816164E-02  0.1266605E+00
        -11   -1    0    0    0    0  0.00000000000E+00  0.00000000000E+00  0.45593999997E+02  0.45594000000E+02  0.51100000000E-03 0.  1.
         11   -1    0    0    0    0 -0.00000000000E+00 -0.00000000000E+00 -0.45593999997E+02  0.45594000000E+02  0.51100000000E-03 0. -1.
    9900012    2    1    2    0    0 -0.18931475147E+02 -0.16783538434E+01 -0.25602750577E+02  0.59301977044E+02  0.50000060213E+02 0.  0.
        -12    1    1    2    0    0  0.18931475147E+02  0.16783538434E+01  0.25602750577E+02  0.31886022956E+02  0.00000000000E+00 0.  1.
         11    1    3    3    0    0 -0.34311455208E+01  0.14504493806E+00 -0.20248733012E+02  0.20537891480E+02  0.51100000000E-03 0. -1.
        -11    1    3    3    0    0 -0.68565463703E+01  0.14125222187E+02  0.66074817360E+01  0.17035050488E+02  0.51100000000E-03 0.  1.
         12    1    3    3    0    0 -0.86437832559E+01 -0.15948620969E+02 -0.11961499301E+02  0.21729035076E+02  0.00000000000E+00 0. -1.
</event>
<event>
 7    1  0.1335379E-011  0.5930187E+02  0.7816164E-02  0.1266605E+00
        -11   -1    0    0    0    0  0.00000000000E+00  0.00000000000E+00  0.45593999997E+02  0.45594000000E+02  0.51100000000E-03 0.  1.
         11   -1    0    0    0    0 -0.00000000000E+00 -0.00000000000E+00 -0.45593999997E+02  0.45594000000E+02  0.51100000000E-03 0. -1.
    9900012    2    1    2    0    0  0.94554983391E+01 -0.26139788259E+02  0.15621464700E+02  0.59301872319E+02  0.49999869221E+02 0.  0.
        -12    1    1    2    0    0 -0.94554983391E+01  0.26139788259E+02 -0.15621464700E+02  0.31886127681E+02  0.00000000000E+00 0.  1.
         11    1    3    3    0    0 -0.14883898982E+02 -0.98616831659E+01  0.28256431423E+01  0.18076711626E+02  0.51100000000E-03 0. -1.
        -11    1    3    3    0    0 -0.46045476350E+00 -0.49588805518E+01  0.13044764798E+02  0.13963108673E+02  0.51100000000E-03 0.  1.
         12    1    3    3    0    0  0.24799852084E+02 -0.11319224542E+02 -0.24894324062E+00  0.27262052021E+02  0.00000000000E+00 0. -1.
</event>
<event>
 7    1  0.1543895E-011  0.5930195E+02  0.7816164E-02  0.1266605E+00
        -11   -1    0    0    0    0  0.00000000000E+00  0.00000000000E+00  0.45593999997E+02  0.45594000000E+02  0.51100000000E-03 0. -1.
         11   -1    0    0    0    0 -0.00000000000E+00 -0.00000000000E+00 -0.45593999997E+02  0.45594000000E+02  0.51100000000E-03 0.  1.
    9900012    2    1    2    0    0  0.20375549550E+02 -0.17738284790E+01  0.24462436608E+02  0.59301948320E+02  0.50000007827E+02 0.  0.
        -12    1    1    2    0    0 -0.20375549550E+02  0.17738284790E+01 -0.24462436608E+02  0.31886051680E+02  0.00000000000E+00 0.  1.
         11    1    3    3    0    0  0.38690774211E-02  0.11283325632E+02  0.10918054614E+02  0.15700871604E+02  0.51100000000E-03 0. -1.
        -11    1    3    3    0    0 -0.74088916992E+01 -0.11282848065E+02  0.29536389932E+01  0.13817319575E+02  0.51100000000E-03 0.  1.
         12    1    3    3    0    0  0.27780572172E+02 -0.17743060463E+01  0.10590743001E+02  0.29783757141E+02  0.00000000000E+00 0. -1.
</event>
<event>
 7    1  0.1335379E-011  0.5930172E+02  0.7816164E-02  0.1266606E+00
        -11   -1    0    0    0    0  0.00000000000E+00  0.00000000000E+00  0.45593999997E+02  0.45594000000E+02  0.51100000000E-03 0.  1.
         11   -1    0    0    0    0 -0.00000000000E+00 -0.00000000000E+00 -0.45593999997E+02  0.45594000000E+02  0.51100000000E-03 0. -1.
    9900012    2    1    2    0    0 -0.15300887664E+01 -0.26618668686E+02 -0.17488290528E+02  0.59301717686E+02  0.49999587205E+02 0.  0.
        -12    1    1    2    0    0  0.15300887664E+01  0.26618668686E+02  0.17488290528E+02  0.31886282314E+02  0.00000000000E+00 0.  1.
         11    1    3    3    0    0  0.13308556589E+02 -0.39823899873E+01  0.16063043332E+01  0.13984181148E+02  0.51100000000E-03 0. -1.
        -11    1    3    3    0    0 -0.91277457872E+01  0.42369122044E+01  0.25047871193E+01  0.10370203805E+02  0.51100000000E-03 0.  1.
        -12    1    3    3    0    0 -0.57108995687E+01 -0.26873190903E+02 -0.21599381980E+02  0.34947332733E+02  0.00000000000E+00 0.  1.
</event>
<event>
 7    1  0.1335379E-011  0.5930195E+02  0.7816164E-02  0.1266605E+00
        -11   -1    0    0    0    0  0.00000000000E+00  0.00000000000E+00  0.45593999997E+02  0.45594000000E+02  0.51100000000E-03 0.  1.
         11   -1    0    0    0    0 -0.00000000000E+00 -0.00000000000E+00 -0.45593999997E+02  0.45594000000E+02  0.51100000000E-03 0. -1.
    9900012    2    1    2    0    0 -0.27404744854E+02  0.78742796648E+01 -0.14272209914E+02  0.59301948244E+02  0.50000007690E+02 0.  0.
        -12    1    1    2    0    0  0.27404744854E+02 -0.78742796648E+01  0.14272209914E+02  0.31886051756E+02  0.00000000000E+00 0.  1.
         11    1    3    3    0    0 -0.15429930281E+02  0.78377350844E+01 -0.12193281931E+02  0.21170473878E+02  0.51100000000E-03 0. -1.
        -11    1    3    3    0    0 -0.13123528280E+02  0.82306298579E+01 -0.15788235190E+02  0.22118739409E+02  0.51100000000E-03 0.  1.
        -12    1    3    3    0    0  0.11487137066E+01 -0.81940852776E+01  0.13709307207E+02  0.16012734957E+02  0.00000000000E+00 0.  1.
</event>
<event>
 7    1  0.1335379E-011  0.5930192E+02  0.7816164E-02  0.1266605E+00
        -11   -1    0    0    0    0  0.00000000000E+00  0.00000000000E+00  0.45593999997E+02  0.45594000000E+02  0.51100000000E-03 0.  1.
         11   -1    0    0    0    0 -0.00000000000E+00 -0.00000000000E+00 -0.45593999997E+02  0.45594000000E+02  0.51100000000E-03 0. -1.
    9900012    2    1    2    0    0  0.30150811099E+02 -0.30315216572E+01 -0.99227217517E+01  0.59301922467E+02  0.49999960678E+02 0.  0.
        -12    1    1    2    0    0 -0.30150811099E+02  0.30315216572E+01  0.99227217517E+01  0.31886077533E+02  0.00000000000E+00 0.  1.
         11    1    3    3    0    0  0.61817911063E+01  0.48615714385E+01 -0.12347738777E+02  0.14639537947E+02  0.51100000000E-03 0. -1.
        -11    1    3    3    0    0  0.49605733083E+01  0.99341299165E+01  0.12502653355E+02  0.16721559913E+02  0.51100000000E-03 0.  1.
        -12    1    3    3    0    0  0.19008446685E+02 -0.17827223012E+02 -0.10077636330E+02  0.27940824607E+02  0.00000000000E+00 0.  1.
</event>
<event>
 7    1  0.1335379E-011  0.5930170E+02  0.7816164E-02  0.1266606E+00
        -11   -1    0    0    0    0  0.00000000000E+00  0.00000000000E+00  0.45593999997E+02  0.45594000000E+02  0.51100000000E-03 0. -1.
         11   -1    0    0    0    0 -0.00000000000E+00 -0.00000000000E+00 -0.45593999997E+02  0.45594000000E+02  0.51100000000E-03 0.  1.
    9900012    2    1    2    0    0  0.16213207175E+02  0.13892427031E+02  0.23682667235E+02  0.59301696623E+02  0.49999548791E+02 0.  0.
        -12    1    1    2    0    0 -0.16213207175E+02 -0.13892427031E+02 -0.23682667235E+02  0.31886303377E+02  0.00000000000E+00 0.  1.
         11    1    3    3    0    0  0.25791659413E+00  0.66186694461E+01  0.15597449471E+02  0.16945611127E+02  0.51100000000E-03 0. -1.
        -11    1    3    3    0    0  0.18528820233E+02 -0.89645556928E+00  0.20260033437E+02  0.27469797359E+02  0.51100000000E-03 0.  1.
        -12    1    3    3    0    0 -0.25735296519E+01  0.81702131539E+01 -0.12174815672E+02  0.14886288137E+02  0.00000000000E+00 0.  1.
</event>
<event>
 7    1  0.1335379E-011  0.5930197E+02  0.7816164E-02  0.1266605E+00
        -11   -1    0    0    0    0  0.00000000000E+00  0.00000000000E+00  0.45593999997E+02  0.45594000000E+02  0.51100000000E-03 0.  1.
         11   -1    0    0    0    0 -0.00000000000E+00 -0.00000000000E+00 -0.45593999997E+02  0.45594000000E+02  0.51100000000E-03 0. -1.
    9900012    2    1    2    0    0  0.64505184895E+01 -0.38795529072E+01 -0.30984819744E+02  0.59301965845E+02  0.50000039790E+02 0.  0.
        -12    1    1    2    0    0 -0.64505184895E+01  0.38795529072E+01  0.30984819744E+02  0.31886034155E+02  0.00000000000E+00 0.  1.
         11    1    3    3    0    0 -0.76565276511E+01 -0.83247714391E+01 -0.81682171227E+01  0.13951487606E+02  0.51100000000E-03 0. -1.
        -11    1    3    3    0    0  0.13740402671E+02  0.18425384454E+02 -0.21206477200E+02  0.31273121580E+02  0.51100000000E-03 0.  1.
         12    1    3    3    0    0  0.36664347012E+00 -0.13980165923E+02 -0.16101254209E+01  0.14077356660E+02  0.00000000000E+00 0. -1.
</event>
<event>
 7    1  0.1335379E-011  0.5930192E+02  0.7816164E-02  0.1266605E+00
        -11   -1    0    0    0    0  0.00000000000E+00  0.00000000000E+00  0.45593999997E+02  0.45594000000E+02  0.51100000000E-03 0.  1.
         11   -1    0    0    0    0 -0.00000000000E+00 -0.00000000000E+00 -0.45593999997E+02  0.45594000000E+02  0.51100000000E-03 0. -1.
    9900012    2    1    2    0    0 -0.17176718350E+02  0.23348948159E+02 -0.13285679334E+02  0.59301916691E+02  0.49999950144E+02 0.  0.
        -12    1    1    2    0    0  0.17176718350E+02 -0.23348948159E+02  0.13285679334E+02  0.31886083309E+02  0.00000000000E+00 0.  1.
         11    1    3    3    0    0 -0.15814474650E+02 -0.95683960858E+01 -0.65372265506E+01  0.19605793617E+02  0.51100000000E-03 0. -1.
        -11    1    3    3    0    0  0.27766429650E+01  0.22927936705E+01 -0.79944943099E+01  0.87680435961E+01  0.51100000000E-03 0.  1.
        -12    1    3    3    0    0 -0.41388866650E+01  0.30624550574E+02  0.12460415261E+01  0.30928079478E+02  0.00000000000E+00 0.  1.
</event>
<event>
 7    1  0.1335379E-011  0.5930195E+02  0.7816164E-02  0.1266605E+00
        -11   -1    0    0    0    0  0.00000000000E+00  0.00000000000E+00  0.45593999997E+02  0.45594000000E+02  0.51100000000E-03 0.  1.
         11   -1    0    0    0    0 -0.00000000000E+00 -0.00000000000E+00 -0.45593999997E+02  0.45594000000E+02  0.51100000000E-03 0. -1.
    9900012    2    1    2    0    0  0.63186840065E+01  0.27904217094E+02 -0.14076542735E+02  0.59301950471E+02  0.50000011750E+02 0.  0.
        -12    1    1    2    0    0 -0.63186840065E+01 -0.27904217094E+02  0.14076542735E+02  0.31886049529E+02  0.00000000000E+00 0.  1.
         11    1    3    3    0    0 -0.10758305670E+01  0.27652191644E+02  0.51796653499E+01  0.28153686216E+02  0.51100000000E-03 0. -1.
        -11    1    3    3    0    0 -0.60599909290E+01 -0.84431185118E+00  0.15819846866E+01  0.63197332516E+01  0.51100000000E-03 0.  1.
        -12    1    3    3    0    0  0.13454505502E+02  0.10963373013E+01 -0.20838192772E+02  0.24828531003E+02  0.00000000000E+00 0.  1.
</event>
<event>
 7    1  0.1335379E-011  0.5930204E+02  0.7816164E-02  0.1266604E+00
        -11   -1    0    0    0    0  0.00000000000E+00  0.00000000000E+00  0.45593999997E+02  0.45594000000E+02  0.51100000000E-03 0.  1.
         11   -1    0    0    0    0 -0.00000000000E+00 -0.00000000000E+00 -0.45593999997E+02  0.45594000000E+02  0.51100000000E-03 0. -1.
    9900012    2    1    2    0    0  0.48115941408E+01  0.18902529961E+02 -0.25224143754E+02  0.59302039058E+02  0.50000173312E+02 0.  0.
        -12    1    1    2    0    0 -0.48115941408E+01 -0.18902529961E+02  0.25224143754E+02  0.31885960942E+02  0.00000000000E+00 0.  1.
         11    1    3    3    0    0 -0.31667335241E+00  0.68190985223E+01 -0.10632992081E+02  0.12635699724E+02  0.51100000000E-03 0. -1.
        -11    1    3    3    0    0 -0.64008324164E+00  0.48836886582E+01 -0.29077553152E+02  0.29491765275E+02  0.51100000000E-03 0.  1.
        -12    1    3    3    0    0  0.57683507349E+01  0.71997427804E+01  0.14486401479E+02  0.17174574059E+02  0.00000000000E+00 0.  1.
</event>
<event>
 7    1  0.1335379E-011  0.5930194E+02  0.7816164E-02  0.1266605E+00
        -11   -1    0    0    0    0  0.00000000000E+00  0.00000000000E+00  0.45593999997E+02  0.45594000000E+02  0.51100000000E-03 0. -1.
         11   -1    0    0    0    0 -0.00000000000E+00 -0.00000000000E+00 -0.45593999997E+02  0.45594000000E+02  0.51100000000E-03 0.  1.
    9900012    2    1    2    0    0 -0.26549421448E+02  0.17156471433E+02 -0.41838246137E+01  0.59301942237E+02  0.49999996735E+02 0.  0.
        -12    1    1    2    0    0  0.26549421448E+02 -0.17156471433E+02  0.41838246137E+01  0.31886057763E+02  0.00000000000E+00 0.  1.
         11    1    3    3    0    0 -0.76583210667E+01  0.11787593304E+02  0.66183869804E+01  0.15537061625E+02  0.51100000000E-03 0. -1.
        -11    1    3    3    0    0 -0.29067799739E+02  0.77533005680E+01 -0.20878901435E+01  0.30156424471E+02  0.51100000000E-03 0.  1.
         12    1    3    3    0    0  0.10176699358E+02 -0.23844224394E+01 -0.87143214506E+01  0.13608456141E+02  0.00000000000E+00 0. -1.
</event>
<event>
 7    1  0.1335379E-011  0.5930195E+02  0.7816164E-02  0.1266605E+00
        -11   -1    0    0    0    0  0.00000000000E+00  0.00000000000E+00  0.45593999997E+02  0.45594000000E+02  0.51100000000E-03 0. -1.
         11   -1    0    0    0    0 -0.00000000000E+00 -0.00000000000E+00 -0.45593999997E+02  0.45594000000E+02  0.51100000000E-03 0.  1.
    9900012    2    1    2    0    0  0.27770048098E+02  0.11887506321E+02  0.10209393130E+02  0.59301951546E+02  0.50000013712E+02 0.  0.
        -12    1    1    2    0    0 -0.27770048098E+02 -0.11887506321E+02 -0.10209393130E+02  0.31886048454E+02  0.00000000000E+00 0.  1.
         11    1    3    3    0    0  0.16050470514E+02  0.16763303873E+01 -0.68953088022E+01  0.17549158699E+02  0.51100000000E-03 0.  1.
        -11    1    3    3    0    0  0.12735793435E+02  0.19744270354E+02  0.16337885485E+01  0.23552195472E+02  0.51100000000E-03 0. -1.
         12    1    3    3    0    0 -0.10162158511E+01 -0.95330944209E+01  0.15470913384E+02  0.18200597376E+02  0.00000000000E+00 0. -1.
</event>
<event>
 7    1  0.1335379E-011  0.5930195E+02  0.7816164E-02  0.1266605E+00
        -11   -1    0    0    0    0  0.00000000000E+00  0.00000000000E+00  0.45593999997E+02  0.45594000000E+02  0.51100000000E-03 0.  1.
         11   -1    0    0    0    0 -0.00000000000E+00 -0.00000000000E+00 -0.45593999997E+02  0.45594000000E+02  0.51100000000E-03 0. -1.
    9900012    2    1    2    0    0 -0.26478982782E+02  0.25729237042E+01 -0.17577370877E+02  0.59301946113E+02  0.50000003803E+02 0.  0.
        -12    1    1    2    0    0  0.26478982782E+02 -0.25729237042E+01  0.17577370877E+02  0.31886053887E+02  0.00000000000E+00 0.  1.
         11    1    3    3    0    0 -0.19696455303E+02  0.99173422918E+01 -0.86131308784E+00  0.22069116206E+02  0.51100000000E-03 0. -1.
        -11    1    3    3    0    0  0.36433474535E+01  0.35820731316E+00  0.82923934148E+01  0.90645508412E+01  0.51100000000E-03 0.  1.
        -12    1    3    3    0    0 -0.10425874933E+02 -0.77026259007E+01 -0.25008451204E+02  0.28168279065E+02  0.00000000000E+00 0.  1.
</event>
<event>
 7    1  0.1335379E-011  0.5930196E+02  0.7816164E-02  0.1266605E+00
        -11   -1    0    0    0    0  0.00000000000E+00  0.00000000000E+00  0.45593999997E+02  0.45594000000E+02  0.51100000000E-03 0.  1.
         11   -1    0    0    0    0 -0.00000000000E+00 -0.00000000000E+00 -0.45593999997E+02  0.45594000000E+02  0.51100000000E-03 0. -1.
    9900012    2    1    2    0    0 -0.18637966494E+02 -0.25744182344E+02 -0.25656523453E+01  0.59301964004E+02  0.50000036433E+02 0.  0.
        -12    1    1    2    0    0  0.18637966494E+02  0.25744182344E+02  0.25656523453E+01  0.31886035996E+02  0.00000000000E+00 0.  1.
         11    1    3    3    0    0  0.80409689589E+01 -0.40059882015E+01  0.56930991293E+01  0.10635624158E+02  0.51100000000E-03 0. -1.
        -11    1    3    3    0    0  0.53248889848E+01 -0.11726182076E+02  0.31270104877E+01  0.13252772677E+02  0.51100000000E-03 0.  1.
         12    1    3    3    0    0 -0.32003824437E+02 -0.10012012067E+02 -0.11385761962E+02  0.35413567170E+02  0.00000000000E+00 0. -1.
</event>
<event>
 7    1  0.1335379E-011  0.5930194E+02  0.7816164E-02  0.1266605E+00
        -11   -1    0    0    0    0  0.00000000000E+00  0.00000000000E+00  0.45593999997E+02  0.45594000000E+02  0.51100000000E-03 0.  1.
         11   -1    0    0    0    0 -0.00000000000E+00 -0.00000000000E+00 -0.45593999997E+02  0.45594000000E+02  0.51100000000E-03 0. -1.
    9900012    2    1    2    0    0  0.26191693008E+02  0.65460572108E+01 -0.16966594135E+02  0.59301937776E+02  0.49999988598E+02 0.  0.
        -12    1    1    2    0    0 -0.26191693008E+02 -0.65460572108E+01  0.16966594135E+02  0.31886062224E+02  0.00000000000E+00 0.  1.
         11    1    3    3    0    0  0.20000028517E+01 -0.48154681564E+01 -0.26485071882E+02  0.26993476579E+02  0.51100000000E-03 0. -1.
        -11    1    3    3    0    0  0.14746405266E+02  0.15941047944E+01 -0.13715199664E+01  0.14895593497E+02  0.51100000000E-03 0.  1.
        -12    1    3    3    0    0  0.94452848907E+01  0.97674205727E+01  0.10889997714E+02  0.17412867699E+02  0.00000000000E+00 0.  1.
</event>
<event>
 7    1  0.1335379E-011  0.5930194E+02  0.7816164E-02  0.1266605E+00
        -11   -1    0    0    0    0  0.00000000000E+00  0.00000000000E+00  0.45593999997E+02  0.45594000000E+02  0.51100000000E-03 0.  1.
         11   -1    0    0    0    0 -0.00000000000E+00 -0.00000000000E+00 -0.45593999997E+02  0.45594000000E+02  0.51100000000E-03 0. -1.
    9900012    2    1    2    0    0  0.14862424024E+02  0.90876316272E+01 -0.26706634228E+02  0.59301937085E+02  0.49999987338E+02 0.  0.
        -12    1    1    2    0    0 -0.14862424024E+02 -0.90876316272E+01  0.26706634228E+02  0.31886062915E+02  0.00000000000E+00 0.  1.
         11    1    3    3    0    0  0.54760776536E+01 -0.13517262838E+02  0.47530080998E+00  0.14592111986E+02  0.51100000000E-03 0. -1.
        -11    1    3    3    0    0  0.78393275121E+00 -0.29126249745E+01  0.30048172127E+01  0.42575652130E+01  0.51100000000E-03 0.  1.
        -12    1    3    3    0    0  0.86024136188E+01  0.25517519440E+02 -0.30186752251E+02  0.40452259886E+02  0.00000000000E+00 0.  1.
</event>
<event>
 7    1  0.1335379E-011  0.5930195E+02  0.7816164E-02  0.1266605E+00
        -11   -1    0    0    0    0  0.00000000000E+00  0.00000000000E+00  0.45593999997E+02  0.45594000000E+02  0.51100000000E-03 0. -1.
         11   -1    0    0    0    0 -0.00000000000E+00 -0.00000000000E+00 -0.45593999997E+02  0.45594000000E+02  0.51100000000E-03 0.  1.
    9900012    2    1    2    0    0  0.16386185900E+01 -0.12992707716E+02  0.29072744531E+02  0.59301952907E+02  0.50000016194E+02 0.  0.
        -12    1    1    2    0    0 -0.16386185900E+01  0.12992707716E+02 -0.29072744531E+02  0.31886047093E+02  0.00000000000E+00 0.  1.
         11    1    3    3    0    0  0.58450492466E+01 -0.36859812655E-01  0.63111682711E+01  0.86021395331E+01  0.51100000000E-03 0. -1.
        -11    1    3    3    0    0 -0.12093864908E+02  0.95146574771E+01 -0.29344022181E+01  0.15665279824E+02  0.51100000000E-03 0.  1.
         12    1    3    3    0    0  0.78874342517E+01 -0.22470505380E+02  0.25695978478E+02  0.35034533550E+02  0.00000000000E+00 0. -1.
</event>
<event>
 7    1  0.1335379E-011  0.5930194E+02  0.7816164E-02  0.1266605E+00
        -11   -1    0    0    0    0  0.00000000000E+00  0.00000000000E+00  0.45593999997E+02  0.45594000000E+02  0.51100000000E-03 0. -1.
         11   -1    0    0    0    0 -0.00000000000E+00 -0.00000000000E+00 -0.45593999997E+02  0.45594000000E+02  0.51100000000E-03 0.  1.
    9900012    2    1    2    0    0  0.28337825186E+02 -0.15057495087E+01  0.14540328243E+02  0.59301940926E+02  0.49999994343E+02 0.  0.
        -12    1    1    2    0    0 -0.28337825186E+02  0.15057495087E+01 -0.14540328243E+02  0.31886059074E+02  0.00000000000E+00 0.  1.
         11    1    3    3    0    0  0.20584653553E+01  0.10809897201E+02  0.38439945806E+01  0.11656219444E+02  0.51100000000E-03 0. -1.
        -11    1    3    3    0    0 -0.80000155302E+00 -0.13540381036E+02 -0.70098339807E+01  0.15268257719E+02  0.51100000000E-03 0.  1.
         12    1    3    3    0    0  0.27079361384E+02  0.12247343256E+01  0.17706167643E+02  0.32377463763E+02  0.00000000000E+00 0. -1.
</event>
<event>
 7    1  0.1335379E-011  0.5930195E+02  0.7816164E-02  0.1266605E+00
        -11   -1    0    0    0    0  0.00000000000E+00  0.00000000000E+00  0.45593999997E+02  0.45594000000E+02  0.51100000000E-03 0.  1.
         11   -1    0    0    0    0 -0.00000000000E+00 -0.00000000000E+00 -0.45593999997E+02  0.45594000000E+02  0.51100000000E-03 0. -1.
    9900012    2    1    2    0    0 -0.16802340297E+02 -0.60597538498E+01 -0.26413647433E+02  0.59301952473E+02  0.50000015402E+02 0.  0.
        -12    1    1    2    0    0  0.16802340297E+02  0.60597538498E+01  0.26413647433E+02  0.31886047527E+02  0.00000000000E+00 0.  1.
         11    1    3    3    0    0 -0.61448492141E+00 -0.18515863048E+02 -0.14608625737E+01  0.18583565208E+02  0.51100000000E-03 0. -1.
        -11    1    3    3    0    0  0.19347180302E+01 -0.59486926554E+01 -0.61283943020E+01  0.87571282477E+01  0.51100000000E-03 0.  1.
         12    1    3    3    0    0 -0.18122573405E+02  0.18404801853E+02 -0.18824390558E+02  0.31961259017E+02  0.00000000000E+00 0. -1.
</event>
<event>
 7    1  0.1335379E-011  0.5930185E+02  0.7816164E-02  0.1266605E+00
        -11   -1    0    0    0    0  0.00000000000E+00  0.00000000000E+00  0.45593999997E+02  0.45594000000E+02  0.51100000000E-03 0. -1.
         11   -1    0    0    0    0 -0.00000000000E+00 -0.00000000000E+00 -0.45593999997E+02  0.45594000000E+02  0.51100000000E-03 0.  1.
    9900012    2    1    2    0    0  0.25594586976E+02 -0.59345662731E+01  0.18067227962E+02  0.59301848060E+02  0.49999824977E+02 0.  0.
        -12    1    1    2    0    0 -0.25594586976E+02  0.59345662731E+01 -0.18067227962E+02  0.31886151940E+02  0.00000000000E+00 0.  1.
         11    1    3    3    0    0  0.10174124840E+02  0.14935873440E+01 -0.41383348020E+00  0.10291495412E+02  0.51100000000E-03 0. -1.
        -11    1    3    3    0    0 -0.10197100343E+02  0.80065012088E+01  0.13451712031E+02  0.18682437578E+02  0.51100000000E-03 0.  1.
         12    1    3    3    0    0  0.25617562480E+02 -0.15434654826E+02  0.50293494105E+01  0.30327915070E+02  0.00000000000E+00 0. -1.
</event>
<event>
 7    1  0.1369469E-011  0.5930193E+02  0.7816164E-02  0.1266605E+00
        -11   -1    0    0    0    0  0.00000000000E+00  0.00000000000E+00  0.45593999997E+02  0.45594000000E+02  0.51100000000E-03 0. -1.
         11   -1    0    0    0    0 -0.00000000000E+00 -0.00000000000E+00 -0.45593999997E+02  0.45594000000E+02  0.51100000000E-03 0.  1.
    9900012    2    1    2    0    0  0.30680092979E+01  0.24747237791E+02  0.19871657870E+02  0.59301933359E+02  0.49999980542E+02 0.  0.
        -12    1    1    2    0    0 -0.30680092979E+01 -0.24747237791E+02 -0.19871657870E+02  0.31886066641E+02  0.00000000000E+00 0.  1.
         11    1    3    3    0    0 -0.63976317492E+01  0.26479292707E+02  0.21896553964E+02  0.34950560940E+02  0.51100000000E-03 0. -1.
        -11    1    3    3    0    0  0.82160675834E+01 -0.59515135305E+01  0.83128726576E+01  0.13115949524E+02  0.51100000000E-03 0.  1.
        -12    1    3    3    0    0  0.12495734637E+01  0.42194586144E+01 -0.10337768752E+02  0.11235422894E+02  0.00000000000E+00 0.  1.
</event>
<event>
 7    1  0.1335379E-011  0.5930193E+02  0.7816164E-02  0.1266605E+00
        -11   -1    0    0    0    0  0.00000000000E+00  0.00000000000E+00  0.45593999997E+02  0.45594000000E+02  0.51100000000E-03 0.  1.
         11   -1    0    0    0    0 -0.00000000000E+00 -0.00000000000E+00 -0.45593999997E+02  0.45594000000E+02  0.51100000000E-03 0. -1.
    9900012    2    1    2    0    0 -0.31704966401E+02  0.30401086388E+01  0.15079753889E+01  0.59301934943E+02  0.49999983432E+02 0.  0.
        -12    1    1    2    0    0  0.31704966401E+02 -0.30401086388E+01 -0.15079753889E+01  0.31886065057E+02  0.00000000000E+00 0.  1.
         11    1    3    3    0    0 -0.67546555423E+01 -0.10899028450E+02 -0.12578151943E+02  0.17961739872E+02  0.51100000000E-03 0. -1.
        -11    1    3    3    0    0 -0.12472145826E+02  0.47165580219E+00 -0.62365282124E+01  0.13952460898E+02  0.51100000000E-03 0.  1.
        -12    1    3    3    0    0 -0.12478165033E+02  0.13467481287E+02  0.20322655544E+02  0.27387734174E+02  0.00000000000E+00 0.  1.
</event>
<event>
 7    1  0.1335379E-011  0.5930193E+02  0.7816164E-02  0.1266605E+00
        -11   -1    0    0    0    0  0.00000000000E+00  0.00000000000E+00  0.45593999997E+02  0.45594000000E+02  0.51100000000E-03 0. -1.
         11   -1    0    0    0    0 -0.00000000000E+00 -0.00000000000E+00 -0.45593999997E+02  0.45594000000E+02  0.51100000000E-03 0.  1.
    9900012    2    1    2    0    0 -0.16551673400E+01 -0.13451924939E+00  0.31842802081E+02  0.59301925944E+02  0.49999967020E+02 0.  0.
        -12    1    1    2    0    0  0.16551673400E+01  0.13451924939E+00 -0.31842802081E+02  0.31886074056E+02  0.00000000000E+00 0.  1.
         11    1    3    3    0    0 -0.12503511159E+02  0.13671582049E+02  0.35601162261E+01  0.18865958094E+02  0.51100000000E-03 0. -1.
        -11    1    3    3    0    0 -0.39125821035E+01  0.32335994465E+01  0.12330695807E+01  0.52234973867E+01  0.51100000000E-03 0.  1.
        -12    1    3    3    0    0  0.14760925922E+02 -0.17039700744E+02  0.27049616274E+02  0.35212470463E+02  0.00000000000E+00 0.  1.
</event>
<event>
 7    1  0.1335379E-011  0.5930193E+02  0.7816164E-02  0.1266605E+00
        -11   -1    0    0    0    0  0.00000000000E+00  0.00000000000E+00  0.45593999997E+02  0.45594000000E+02  0.51100000000E-03 0.  1.
         11   -1    0    0    0    0 -0.00000000000E+00 -0.00000000000E+00 -0.45593999997E+02  0.45594000000E+02  0.51100000000E-03 0. -1.
    9900012    2    1    2    0    0  0.30613679965E+02 -0.64723049287E+01  0.61345849880E+01  0.59301933058E+02  0.49999979993E+02 0.  0.
        -12    1    1    2    0    0 -0.30613679965E+02  0.64723049287E+01 -0.61345849880E+01  0.31886066942E+02  0.00000000000E+00 0.  1.
         11    1    3    3    0    0  0.10408759401E+01 -0.13544703167E+02 -0.65739941460E+01  0.15091713153E+02  0.51100000000E-03 0. -1.
        -11    1    3    3    0    0  0.26422765993E+02 -0.74719856470E+01  0.79616892539E+01  0.28589886818E+02  0.51100000000E-03 0.  1.
         12    1    3    3    0    0  0.31500380315E+01  0.14544383885E+02  0.47468898802E+01  0.15620333086E+02  0.00000000000E+00 0. -1.
</event>
<event>
 7    1  0.1335379E-011  0.5930194E+02  0.7816164E-02  0.1266605E+00
        -11   -1    0    0    0    0  0.00000000000E+00  0.00000000000E+00  0.45593999997E+02  0.45594000000E+02  0.51100000000E-03 0.  1.
         11   -1    0    0    0    0 -0.00000000000E+00 -0.00000000000E+00 -0.45593999997E+02  0.45594000000E+02  0.51100000000E-03 0. -1.
    9900012    2    1    2    0    0  0.76667600998E+01  0.11181912266E+02 -0.28860122224E+02  0.59301936788E+02  0.49999986797E+02 0.  0.
        -12    1    1    2    0    0 -0.76667600998E+01 -0.11181912266E+02  0.28860122224E+02  0.31886063212E+02  0.00000000000E+00 0.  1.
         11    1    3    3    0    0 -0.81995370212E+01 -0.35424355435E+01  0.45315710693E+01  0.10015807185E+02  0.51100000000E-03 0. -1.
        -11    1    3    3    0    0  0.19402302104E+02  0.33318932449E+01 -0.80334210836E+01  0.21262330401E+02  0.51100000000E-03 0.  1.
         12    1    3    3    0    0 -0.35360049830E+01  0.11392454565E+02 -0.25358272210E+02  0.28023799202E+02  0.00000000000E+00 0. -1.
</event>
<event>
 7    1  0.1335379E-011  0.5930197E+02  0.7816164E-02  0.1266605E+00
        -11   -1    0    0    0    0  0.00000000000E+00  0.00000000000E+00  0.45593999997E+02  0.45594000000E+02  0.51100000000E-03 0. -1.
         11   -1    0    0    0    0 -0.00000000000E+00 -0.00000000000E+00 -0.45593999997E+02  0.45594000000E+02  0.51100000000E-03 0.  1.
    9900012    2    1    2    0    0 -0.15775714199E+02 -0.26167186042E+02 -0.91172452080E+01  0.59301969453E+02  0.50000046370E+02 0.  0.
        -12    1    1    2    0    0  0.15775714199E+02  0.26167186042E+02  0.91172452080E+01  0.31886030547E+02  0.00000000000E+00 0.  1.
         11    1    3    3    0    0 -0.44094066359E+01 -0.16104804917E+02 -0.10282421821E+02  0.19609584571E+02  0.51100000000E-03 0. -1.
        -11    1    3    3    0    0  0.12606789362E+02 -0.25871452650E+01 -0.50471748451E+01  0.13823835677E+02  0.51100000000E-03 0.  1.
         12    1    3    3    0    0 -0.23973096925E+02 -0.74752358606E+01  0.62123514584E+01  0.25868549205E+02  0.00000000000E+00 0. -1.
</event>
<event>
 7    1  0.1335379E-011  0.5930194E+02  0.7816164E-02  0.1266605E+00
        -11   -1    0    0    0    0  0.00000000000E+00  0.00000000000E+00  0.45593999997E+02  0.45594000000E+02  0.51100000000E-03 0. -1.
         11   -1    0    0    0    0 -0.00000000000E+00 -0.00000000000E+00 -0.45593999997E+02  0.45594000000E+02  0.51100000000E-03 0.  1.
    9900012    2    1    2    0    0  0.22058768384E+01  0.24470598034E+02  0.20323506918E+02  0.59301937304E+02  0.49999987738E+02 0.  0.
        -12    1    1    2    0    0 -0.22058768384E+01 -0.24470598034E+02 -0.20323506918E+02  0.31886062696E+02  0.00000000000E+00 0.  1.
         11    1    3    3    0    0  0.12958430367E+02  0.11665016587E+02  0.48258229804E+01  0.18090939646E+02  0.51100000000E-03 0. -1.
        -11    1    3    3    0    0 -0.61143956517E+01 -0.80348945892E+01  0.17038134407E+02  0.19805135435E+02  0.51100000000E-03 0.  1.
         12    1    3    3    0    0 -0.46381578771E+01  0.20840476036E+02 -0.15404504693E+01  0.21405862224E+02  0.00000000000E+00 0. -1.
</event>
<event>
 7    1  0.1335379E-011  0.5930194E+02  0.7816164E-02  0.1266605E+00
        -11   -1    0    0    0    0  0.00000000000E+00  0.00000000000E+00  0.45593999997E+02  0.45594000000E+02  0.51100000000E-03 0.  1.
         11   -1    0    0    0    0 -0.00000000000E+00 -0.00000000000E+00 -0.45593999997E+02  0.45594000000E+02  0.51100000000E-03 0. -1.
    9900012    2    1    2    0    0  0.29986017271E+01 -0.13588022728E+02 -0.28689630060E+02  0.59301939614E+02  0.49999991951E+02 0.  0.
        -12    1    1    2    0    0 -0.29986017271E+01  0.13588022728E+02  0.28689630060E+02  0.31886060386E+02  0.00000000000E+00 0.  1.
         11    1    3    3    0    0 -0.35267470706E-01  0.58536485576E+00 -0.19557254601E+02  0.19566044659E+02  0.51100000000E-03 0. -1.
        -11    1    3    3    0    0  0.14635713162E+02  0.99703046581E-01 -0.14472118813E+02  0.20582911934E+02  0.51100000000E-03 0.  1.
         12    1    3    3    0    0 -0.11601843964E+02 -0.14273090630E+02  0.53397433547E+01  0.19152983021E+02  0.00000000000E+00 0. -1.
</event>
<event>
 7    1  0.1335379E-011  0.5930219E+02  0.7816164E-02  0.1266604E+00
        -11   -1    0    0    0    0  0.00000000000E+00  0.00000000000E+00  0.45593999997E+02  0.45594000000E+02  0.51100000000E-03 0.  1.
         11   -1    0    0    0    0 -0.00000000000E+00 -0.00000000000E+00 -0.45593999997E+02  0.45594000000E+02  0.51100000000E-03 0. -1.
    9900012    2    1    2    0    0 -0.25741941427E+02 -0.35508345988E+01 -0.18478329372E+02  0.59302193892E+02  0.50000455690E+02 0.  0.
        -12    1    1    2    0    0  0.25741941427E+02  0.35508345988E+01  0.18478329372E+02  0.31885806108E+02  0.00000000000E+00 0.  1.
         11    1    3    3    0    0 -0.10110700274E+01  0.87910573884E+01 -0.20974353206E+02  0.22764631455E+02  0.51100000000E-03 0. -1.
        -11    1    3    3    0    0 -0.74690028234E+01 -0.14264384117E+02 -0.60243835619E+01  0.17191621650E+02  0.51100000000E-03 0.  1.
        -12    1    3    3    0    0 -0.17261868577E+02  0.19224921294E+01  0.85204073961E+01  0.19345940787E+02  0.00000000000E+00 0.  1.
</event>
<event>
 7    1  0.1335379E-011  0.5930191E+02  0.7816164E-02  0.1266605E+00
        -11   -1    0    0    0    0  0.00000000000E+00  0.00000000000E+00  0.45593999997E+02  0.45594000000E+02  0.51100000000E-03 0. -1.
         11   -1    0    0    0    0 -0.00000000000E+00 -0.00000000000E+00 -0.45593999997E+02  0.45594000000E+02  0.51100000000E-03 0.  1.
    9900012    2    1    2    0    0 -0.89767358034E+01  0.30527060177E+02  0.20589952499E+01  0.59301911338E+02  0.49999940381E+02 0.  0.
        -12    1    1    2    0    0  0.89767358034E+01 -0.30527060177E+02 -0.20589952499E+01  0.31886088662E+02  0.00000000000E+00 0.  1.
         11    1    3    3    0    0 -0.12604308041E+02  0.14265765418E+02  0.13548537409E+02  0.23365434093E+02  0.51100000000E-03 0. -1.
        -11    1    3    3    0    0 -0.16658830882E+01  0.11955255927E+02  0.85335553440E+01  0.14782586980E+02  0.51100000000E-03 0.  1.
        -12    1    3    3    0    0  0.52934553263E+01  0.43060388322E+01 -0.20023097503E+02  0.21153890265E+02  0.00000000000E+00 0.  1.
</event>
<event>
 7    1  0.1335379E-011  0.5930197E+02  0.7816164E-02  0.1266605E+00
        -11   -1    0    0    0    0  0.00000000000E+00  0.00000000000E+00  0.45593999997E+02  0.45594000000E+02  0.51100000000E-03 0.  1.
         11   -1    0    0    0    0 -0.00000000000E+00 -0.00000000000E+00 -0.45593999997E+02  0.45594000000E+02  0.51100000000E-03 0. -1.
    9900012    2    1    2    0    0 -0.38647130900E+00  0.54600644506E+01 -0.31412691018E+02  0.59301971385E+02  0.50000049893E+02 0.  0.
        -12    1    1    2    0    0  0.38647130900E+00 -0.54600644506E+01  0.31412691018E+02  0.31886028615E+02  0.00000000000E+00 0.  1.
         11    1    3    3    0    0 -0.87158999132E+01  0.10508747759E+02 -0.32703270293E+01  0.14039078670E+02  0.51100000000E-03 0.  1.
        -11    1    3    3    0    0  0.17278169662E+02  0.83026844354E+01 -0.12854106979E+02  0.23080246580E+02  0.51100000000E-03 0. -1.
        -12    1    3    3    0    0 -0.89487410579E+01 -0.13351367744E+02 -0.15288257010E+02  0.22182646135E+02  0.00000000000E+00 0.  1.
</event>
<event>
 7    1  0.1335379E-011  0.5930199E+02  0.7816164E-02  0.1266605E+00
        -11   -1    0    0    0    0  0.00000000000E+00  0.00000000000E+00  0.45593999997E+02  0.45594000000E+02  0.51100000000E-03 0. -1.
         11   -1    0    0    0    0 -0.00000000000E+00 -0.00000000000E+00 -0.45593999997E+02  0.45594000000E+02  0.51100000000E-03 0.  1.
    9900012    2    1    2    0    0  0.12218293626E+02 -0.29441940406E+02 -0.77642672389E+00  0.59301993783E+02  0.50000090742E+02 0.  0.
        -12    1    1    2    0    0 -0.12218293626E+02  0.29441940406E+02  0.77642672389E+00  0.31886006217E+02  0.00000000000E+00 0.  1.
         11    1    3    3    0    0 -0.73069415664E+01 -0.79206265127E+01 -0.15148461792E+02  0.18590417272E+02  0.51100000000E-03 0. -1.
        -11    1    3    3    0    0  0.29222982922E+01  0.55843267615E+01  0.22549236092E+01  0.66939684368E+01  0.51100000000E-03 0.  1.
         12    1    3    3    0    0  0.16602936900E+02 -0.27105640655E+02  0.12117111459E+02  0.34017608075E+02  0.00000000000E+00 0. -1.
</event>
<event>
 7    1  0.1335379E-011  0.5930182E+02  0.7816164E-02  0.1266605E+00
        -11   -1    0    0    0    0  0.00000000000E+00  0.00000000000E+00  0.45593999997E+02  0.45594000000E+02  0.51100000000E-03 0.  1.
         11   -1    0    0    0    0 -0.00000000000E+00 -0.00000000000E+00 -0.45593999997E+02  0.45594000000E+02  0.51100000000E-03 0. -1.
    9900012    2    1    2    0    0  0.24957909139E+02 -0.14962554532E+02 -0.13036609667E+02  0.59301820261E+02  0.49999774279E+02 0.  0.
        -12    1    1    2    0    0 -0.24957909139E+02  0.14962554532E+02  0.13036609667E+02  0.31886179739E+02  0.00000000000E+00 0.  1.
         11    1    3    3    0    0  0.14723092585E+02 -0.29530652646E+01 -0.16732616281E+02  0.22482671052E+02  0.51100000000E-03 0. -1.
        -11    1    3    3    0    0  0.82578450180E+01 -0.14749554847E+02 -0.12021444071E+02  0.20742624963E+02  0.51100000000E-03 0.  1.
        -12    1    3    3    0    0  0.19769715357E+01  0.27400655797E+01  0.15717450685E+02  0.16076524247E+02  0.00000000000E+00 0.  1.
</event>
<event>
 7    1  0.1335379E-011  0.5930194E+02  0.7816164E-02  0.1266605E+00
        -11   -1    0    0    0    0  0.00000000000E+00  0.00000000000E+00  0.45593999997E+02  0.45594000000E+02  0.51100000000E-03 0.  1.
         11   -1    0    0    0    0 -0.00000000000E+00 -0.00000000000E+00 -0.45593999997E+02  0.45594000000E+02  0.51100000000E-03 0. -1.
    9900012    2    1    2    0    0 -0.59525645917E+01  0.49834915213E+01 -0.30926572631E+02  0.59301935525E+02  0.49999984493E+02 0.  0.
        -12    1    1    2    0    0  0.59525645917E+01 -0.49834915213E+01  0.30926572631E+02  0.31886064475E+02  0.00000000000E+00 0.  1.
         11    1    3    3    0    0  0.13200402105E+02 -0.80397314218E+00 -0.84007370661E+01  0.15667462209E+02  0.51100000000E-03 0. -1.
        -11    1    3    3    0    0 -0.22197035655E+01 -0.12002139031E+02 -0.39108965573E+01  0.12816923866E+02  0.51100000000E-03 0.  1.
        -12    1    3    3    0    0 -0.16933263131E+02  0.17789603695E+02 -0.18614939008E+02  0.30817549451E+02  0.00000000000E+00 0.  1.
</event>
<event>
 7    1  0.1335379E-011  0.5930194E+02  0.7816164E-02  0.1266605E+00
        -11   -1    0    0    0    0  0.00000000000E+00  0.00000000000E+00  0.45593999997E+02  0.45594000000E+02  0.51100000000E-03 0.  1.
         11   -1    0    0    0    0 -0.00000000000E+00 -0.00000000000E+00 -0.45593999997E+02  0.45594000000E+02  0.51100000000E-03 0. -1.
    9900012    2    1    2    0    0  0.25760052558E+02  0.93960833981E+00 -0.18768535379E+02  0.59301935773E+02  0.49999984946E+02 0.  0.
        -12    1    1    2    0    0 -0.25760052558E+02 -0.93960833981E+00  0.18768535379E+02  0.31886064227E+02  0.00000000000E+00 0.  1.
         11    1    3    3    0    0  0.76169414655E+01  0.33866066743E+01 -0.21211731588E+02  0.22790885443E+02  0.51100000000E-03 0. -1.
        -11    1    3    3    0    0  0.84961771155E+01  0.64667686132E+01 -0.12616545078E+02  0.16528198082E+02  0.51100000000E-03 0.  1.
        -12    1    3    3    0    0  0.96469339766E+01 -0.89137669476E+01  0.15059741287E+02  0.19982852248E+02  0.00000000000E+00 0.  1.
</event>
<event>
 7    1  0.1335379E-011  0.5930181E+02  0.7816164E-02  0.1266605E+00
        -11   -1    0    0    0    0  0.00000000000E+00  0.00000000000E+00  0.45593999997E+02  0.45594000000E+02  0.51100000000E-03 0.  1.
         11   -1    0    0    0    0 -0.00000000000E+00 -0.00000000000E+00 -0.45593999997E+02  0.45594000000E+02  0.51100000000E-03 0. -1.
    9900012    2    1    2    0    0 -0.19027068231E+02 -0.93609115644E+01 -0.23813301927E+02  0.59301806445E+02  0.49999749081E+02 0.  0.
        -12    1    1    2    0    0  0.19027068231E+02  0.93609115644E+01  0.23813301927E+02  0.31886193555E+02  0.00000000000E+00 0.  1.
         11    1    3    3    0    0 -0.12963617799E+02 -0.60624885102E+01 -0.25426535350E+02  0.29177351723E+02  0.51100000000E-03 0. -1.
        -11    1    3    3    0    0  0.30313893760E+01 -0.40094252733E+01 -0.12413271461E+02  0.13392315752E+02  0.51100000000E-03 0.  1.
        -12    1    3    3    0    0 -0.90948398073E+01  0.71100221905E+00  0.14026504884E+02  0.16732138971E+02  0.00000000000E+00 0.  1.
</event>
<event>
 7    1  0.1335379E-011  0.5930194E+02  0.7816164E-02  0.1266605E+00
        -11   -1    0    0    0    0  0.00000000000E+00  0.00000000000E+00  0.45593999997E+02  0.45594000000E+02  0.51100000000E-03 0.  1.
         11   -1    0    0    0    0 -0.00000000000E+00 -0.00000000000E+00 -0.45593999997E+02  0.45594000000E+02  0.51100000000E-03 0. -1.
    9900012    2    1    2    0    0  0.25070831930E+02 -0.18170675851E+01 -0.19618166710E+02  0.59301940141E+02  0.49999992912E+02 0.  0.
        -12    1    1    2    0    0 -0.25070831930E+02  0.18170675851E+01  0.19618166710E+02  0.31886059859E+02  0.00000000000E+00 0.  1.
         11    1    3    3    0    0 -0.36510896086E+01 -0.52515879174E+01 -0.20141809842E+02  0.21132963232E+02  0.51100000000E-03 0. -1.
        -11    1    3    3    0    0 -0.15934774569E+01  0.41503052205E+01 -0.56841660616E+01  0.72162280941E+01  0.51100000000E-03 0.  1.
         12    1    3    3    0    0  0.30315398995E+02 -0.71578488828E+00  0.62078091931E+01  0.30952748815E+02  0.00000000000E+00 0. -1.
</event>
<event>
 7    1  0.1335379E-011  0.5930194E+02  0.7816164E-02  0.1266605E+00
        -11   -1    0    0    0    0  0.00000000000E+00  0.00000000000E+00  0.45593999997E+02  0.45594000000E+02  0.51100000000E-03 0. -1.
         11   -1    0    0    0    0 -0.00000000000E+00 -0.00000000000E+00 -0.45593999997E+02  0.45594000000E+02  0.51100000000E-03 0.  1.
    9900012    2    1    2    0    0  0.12243580312E+02  0.19341494697E+02  0.22197341420E+02  0.59301942827E+02  0.49999997809E+02 0.  0.
        -12    1    1    2    0    0 -0.12243580312E+02 -0.19341494697E+02 -0.22197341420E+02  0.31886057173E+02  0.00000000000E+00 0.  1.
         11    1    3    3    0    0  0.21350922508E+02  0.38424069380E+01  0.93331389842E+01  0.23616381319E+02  0.51100000000E-03 0. -1.
        -11    1    3    3    0    0 -0.21297193963E+01  0.20424501926E+02  0.35449858598E+00  0.20538297231E+02  0.51100000000E-03 0.  1.
         12    1    3    3    0    0 -0.69776228004E+01 -0.49254141674E+01  0.12509703850E+02  0.15147264277E+02  0.00000000000E+00 0. -1.
</event>
<event>
 7    1  0.1335379E-011  0.5930199E+02  0.7816164E-02  0.1266605E+00
        -11   -1    0    0    0    0  0.00000000000E+00  0.00000000000E+00  0.45593999997E+02  0.45594000000E+02  0.51100000000E-03 0.  1.
         11   -1    0    0    0    0 -0.00000000000E+00 -0.00000000000E+00 -0.45593999997E+02  0.45594000000E+02  0.51100000000E-03 0. -1.
    9900012    2    1    2    0    0 -0.10511627507E+02 -0.44871428542E+01 -0.29767244098E+02  0.59301990763E+02  0.50000085234E+02 0.  0.
        -12    1    1    2    0    0  0.10511627507E+02  0.44871428542E+01  0.29767244098E+02  0.31886009237E+02  0.00000000000E+00 0.  1.
         11    1    3    3    0    0 -0.86588023922E+01  0.73265835654E+00  0.64980872271E+01  0.10850658275E+02  0.51100000000E-03 0. -1.
        -11    1    3    3    0    0 -0.10113856427E+02  0.52188955997E+01 -0.18231785820E+01  0.11526098365E+02  0.51100000000E-03 0.  1.
         12    1    3    3    0    0  0.82610313126E+01 -0.10438696810E+02 -0.34442152743E+02  0.36925234123E+02  0.00000000000E+00 0. -1.
</event>
<event>
 7    1  0.1335379E-011  0.5930194E+02  0.7816164E-02  0.1266605E+00
        -11   -1    0    0    0    0  0.00000000000E+00  0.00000000000E+00  0.45593999997E+02  0.45594000000E+02  0.51100000000E-03 0.  1.
         11   -1    0    0    0    0 -0.00000000000E+00 -0.00000000000E+00 -0.45593999997E+02  0.45594000000E+02  0.51100000000E-03 0. -1.
    9900012    2    1    2    0    0  0.16909427882E+01  0.29933710089E+02 -0.10855156606E+02  0.59301941728E+02  0.49999995806E+02 0.  0.
        -12    1    1    2    0    0 -0.16909427882E+01 -0.29933710089E+02  0.10855156606E+02  0.31886058272E+02  0.00000000000E+00 0.  1.
         11    1    3    3    0    0  0.21385834131E+02  0.11911417458E+02  0.59765282628E+01  0.25198306643E+02  0.51100000000E-03 0. -1.
        -11    1    3    3    0    0  0.17258200442E+01  0.30379907378E+01 -0.15417107260E+01  0.38189939476E+01  0.51100000000E-03 0.  1.
        -12    1    3    3    0    0 -0.21420711387E+02  0.14984301893E+02 -0.15289974142E+02  0.30284641137E+02  0.00000000000E+00 0.  1.
</event>
<event>
 7    1  0.1335379E-011  0.5930191E+02  0.7816164E-02  0.1266605E+00
        -11   -1    0    0    0    0  0.00000000000E+00  0.00000000000E+00  0.45593999997E+02  0.45594000000E+02  0.51100000000E-03 0.  1.
         11   -1    0    0    0    0 -0.00000000000E+00 -0.00000000000E+00 -0.45593999997E+02  0.45594000000E+02  0.51100000000E-03 0. -1.
    9900012    2    1    2    0    0  0.20821644775E+02  0.13443888982E+02 -0.20060998044E+02  0.59301910798E+02  0.49999939396E+02 0.  0.
        -12    1    1    2    0    0 -0.20821644775E+02 -0.13443888982E+02  0.20060998044E+02  0.31886089202E+02  0.00000000000E+00 0.  1.
         11    1    3    3    0    0  0.13785651662E+02  0.37741451988E+01 -0.23146694684E+02  0.27204004095E+02  0.51100000000E-03 0. -1.
        -11    1    3    3    0    0 -0.89805491194E+01 -0.37071889667E+01  0.53773687654E+01  0.11104485923E+02  0.51100000000E-03 0.  1.
         12    1    3    3    0    0  0.16016542233E+02  0.13376932750E+02 -0.22916721247E+01  0.20993420780E+02  0.00000000000E+00 0. -1.
</event>
<event>
 7    1  0.1335379E-011  0.5930201E+02  0.7816164E-02  0.1266605E+00
        -11   -1    0    0    0    0  0.00000000000E+00  0.00000000000E+00  0.45593999997E+02  0.45594000000E+02  0.51100000000E-03 0.  1.
         11   -1    0    0    0    0 -0.00000000000E+00 -0.00000000000E+00 -0.45593999997E+02  0.45594000000E+02  0.51100000000E-03 0. -1.
    9900012    2    1    2    0    0  0.81731939006E+01 -0.42321646284E+01 -0.30528745292E+02  0.59302006130E+02  0.50000113260E+02 0.  0.
        -12    1    1    2    0    0 -0.81731939006E+01  0.42321646284E+01  0.30528745292E+02  0.31885993870E+02  0.00000000000E+00 0.  1.
         11    1    3    3    0    0 -0.87056687786E+01 -0.11847111723E+02 -0.22565365995E+02  0.26932108492E+02  0.51100000000E-03 0. -1.
        -11    1    3    3    0    0  0.11470442722E+01 -0.83406569145E+01  0.46060199719E+00  0.84317508733E+01  0.51100000000E-03 0.  1.
        -12    1    3    3    0    0  0.15731818407E+02  0.15955604009E+02 -0.84239812937E+01  0.23938146765E+02  0.00000000000E+00 0.  1.
</event>
<event>
 7    1  0.1335379E-011  0.5930194E+02  0.7816164E-02  0.1266605E+00
        -11   -1    0    0    0    0  0.00000000000E+00  0.00000000000E+00  0.45593999997E+02  0.45594000000E+02  0.51100000000E-03 0.  1.
         11   -1    0    0    0    0 -0.00000000000E+00 -0.00000000000E+00 -0.45593999997E+02  0.45594000000E+02  0.51100000000E-03 0. -1.
    9900012    2    1    2    0    0 -0.16861824333E+02  0.18994399094E+02 -0.19277258377E+02  0.59301937099E+02  0.49999987364E+02 0.  0.
        -12    1    1    2    0    0  0.16861824333E+02 -0.18994399094E+02  0.19277258377E+02  0.31886062901E+02  0.00000000000E+00 0.  1.
         11    1    3    3    0    0 -0.73474665204E+01  0.72749791536E+01 -0.11786793857E+02  0.15679256859E+02  0.51100000000E-03 0. -1.
        -11    1    3    3    0    0 -0.53430065977E+01  0.12484583457E+02 -0.23456021753E+02  0.27103459195E+02  0.51100000000E-03 0.  1.
        -12    1    3    3    0    0 -0.41713512150E+01 -0.76516351702E+00  0.15965557233E+02  0.16519221045E+02  0.00000000000E+00 0.  1.
</event>
<event>
 7    1  0.1335379E-011  0.5930195E+02  0.7816164E-02  0.1266605E+00
        -11   -1    0    0    0    0  0.00000000000E+00  0.00000000000E+00  0.45593999997E+02  0.45594000000E+02  0.51100000000E-03 0.  1.
         11   -1    0    0    0    0 -0.00000000000E+00 -0.00000000000E+00 -0.45593999997E+02  0.45594000000E+02  0.51100000000E-03 0. -1.
    9900012    2    1    2    0    0 -0.23561111242E+02 -0.21353940049E+02 -0.23672114549E+01  0.59301946487E+02  0.50000004485E+02 0.  0.
        -12    1    1    2    0    0  0.23561111242E+02  0.21353940049E+02  0.23672114549E+01  0.31886053513E+02  0.00000000000E+00 0.  1.
         11    1    3    3    0    0 -0.87617648941E+01 -0.24853730956E+02 -0.48176662644E+01  0.26789669184E+02  0.51100000000E-03 0.  1.
        -11    1    3    3    0    0 -0.34651063406E+01  0.14854451353E+02 -0.30440030620E+01  0.15554023334E+02  0.51100000000E-03 0. -1.
         12    1    3    3    0    0 -0.11334240007E+02 -0.11354660446E+02  0.54944578716E+01  0.16958253969E+02  0.00000000000E+00 0. -1.
</event>
<event>
 7    1  0.1335379E-011  0.5930171E+02  0.7816164E-02  0.1266606E+00
        -11   -1    0    0    0    0  0.00000000000E+00  0.00000000000E+00  0.45593999997E+02  0.45594000000E+02  0.51100000000E-03 0. -1.
         11   -1    0    0    0    0 -0.00000000000E+00 -0.00000000000E+00 -0.45593999997E+02  0.45594000000E+02  0.51100000000E-03 0.  1.
    9900012    2    1    2    0    0 -0.19643492405E+02  0.11825843667E+02  0.22158935075E+02  0.59301705515E+02  0.49999565008E+02 0.  0.
        -12    1    1    2    0    0  0.19643492405E+02 -0.11825843667E+02 -0.22158935075E+02  0.31886294485E+02  0.00000000000E+00 0.  1.
         11    1    3    3    0    0 -0.62059561534E+01 -0.36323215188E+01  0.23872167817E+01  0.75767047995E+01  0.51100000000E-03 0. -1.
        -11    1    3    3    0    0 -0.25998166833E+02  0.20795862306E+01  0.19655195517E+01  0.26155164403E+02  0.51100000000E-03 0.  1.
         12    1    3    3    0    0  0.12560630581E+02  0.13378578956E+02  0.17806198741E+02  0.25569836313E+02  0.00000000000E+00 0. -1.
</event>
<event>
 7    1  0.1335379E-011  0.5930194E+02  0.7816164E-02  0.1266605E+00
        -11   -1    0    0    0    0  0.00000000000E+00  0.00000000000E+00  0.45593999997E+02  0.45594000000E+02  0.51100000000E-03 0. -1.
         11   -1    0    0    0    0 -0.00000000000E+00 -0.00000000000E+00 -0.45593999997E+02  0.45594000000E+02  0.51100000000E-03 0.  1.
    9900012    2    1    2    0    0  0.92303208410E+00 -0.30129265451E+02  0.10396933177E+02  0.59301939655E+02  0.49999992025E+02 0.  0.
        -12    1    1    2    0    0 -0.92303208410E+00  0.30129265451E+02 -0.10396933177E+02  0.31886060345E+02  0.00000000000E+00 0.  1.
         11    1    3    3    0    0 -0.61888199718E+01 -0.21988811484E+02  0.13228937268E+02  0.26397236685E+02  0.51100000000E-03 0. -1.
        -11    1    3    3    0    0 -0.73719692977E+01  0.27063314456E+01 -0.10617216271E+02  0.13205886674E+02  0.51100000000E-03 0.  1.
         12    1    3    3    0    0  0.14483821354E+02 -0.10846785413E+02  0.77852121799E+01  0.19698816296E+02  0.00000000000E+00 0. -1.
</event>
<event>
 7    1  0.1335379E-011  0.5930194E+02  0.7816164E-02  0.1266605E+00
        -11   -1    0    0    0    0  0.00000000000E+00  0.00000000000E+00  0.45593999997E+02  0.45594000000E+02  0.51100000000E-03 0.  1.
         11   -1    0    0    0    0 -0.00000000000E+00 -0.00000000000E+00 -0.45593999997E+02  0.45594000000E+02  0.51100000000E-03 0. -1.
    9900012    2    1    2    0    0 -0.14009193114E+02  0.16198683359E+02 -0.23623426656E+02  0.59301935313E+02  0.49999984106E+02 0.  0.
        -12    1    1    2    0    0  0.14009193114E+02 -0.16198683359E+02  0.23623426656E+02  0.31886064687E+02  0.00000000000E+00 0.  1.
         11    1    3    3    0    0  0.44549346278E+01 -0.27010316046E+01  0.48505469384E+01  0.71182736762E+01  0.51100000000E-03 0. -1.
        -11    1    3    3    0    0 -0.65850037470E+00 -0.14360439681E+01 -0.24864243114E+02  0.24914382009E+02  0.51100000000E-03 0.  1.
         12    1    3    3    0    0 -0.17805627367E+02  0.20335758932E+02 -0.36097304808E+01  0.27269279627E+02  0.00000000000E+00 0. -1.
</event>
<event>
 7    1  0.1335379E-011  0.5930201E+02  0.7816164E-02  0.1266605E+00
        -11   -1    0    0    0    0  0.00000000000E+00  0.00000000000E+00  0.45593999997E+02  0.45594000000E+02  0.51100000000E-03 0.  1.
         11   -1    0    0    0    0 -0.00000000000E+00 -0.00000000000E+00 -0.45593999997E+02  0.45594000000E+02  0.51100000000E-03 0. -1.
    9900012    2    1    2    0    0 -0.22122678761E+02  0.14268033842E+02 -0.17992401995E+02  0.59302011936E+02  0.50000123848E+02 0.  0.
        -12    1    1    2    0    0  0.22122678761E+02 -0.14268033842E+02  0.17992401995E+02  0.31885988064E+02  0.00000000000E+00 0.  1.
         11    1    3    3    0    0 -0.10953579441E+02  0.28293505572E+02 -0.91125317569E+01  0.31678724649E+02  0.51100000000E-03 0. -1.
        -11    1    3    3    0    0 -0.91612470621E+00  0.44066468417E+01 -0.38906488594E+01  0.59493671658E+01  0.51100000000E-03 0.  1.
        -12    1    3    3    0    0 -0.10252974614E+02 -0.18432118571E+02 -0.49892213790E+01  0.21673920121E+02  0.00000000000E+00 0.  1.
</event>
<event>
 7    1  0.1335379E-011  0.5930195E+02  0.7816164E-02  0.1266605E+00
        -11   -1    0    0    0    0  0.00000000000E+00  0.00000000000E+00  0.45593999997E+02  0.45594000000E+02  0.51100000000E-03 0.  1.
         11   -1    0    0    0    0 -0.00000000000E+00 -0.00000000000E+00 -0.45593999997E+02  0.45594000000E+02  0.51100000000E-03 0. -1.
    9900012    2    1    2    0    0  0.27339461324E+02 -0.15461118623E+02  0.54979934646E+01  0.59301948713E+02  0.50000008544E+02 0.  0.
        -12    1    1    2    0    0 -0.27339461324E+02  0.15461118623E+02 -0.54979934646E+01  0.31886051287E+02  0.00000000000E+00 0.  1.
         11    1    3    3    0    0 -0.36620406704E+01  0.19370931698E+01  0.13680489649E+01  0.43628465537E+01  0.51100000000E-03 0. -1.
        -11    1    3    3    0    0  0.31269139406E+02  0.55100370112E+01  0.42126324129E+01  0.32029140781E+02  0.51100000000E-03 0.  1.
         12    1    3    3    0    0 -0.26763741189E+00 -0.22908248804E+02 -0.82687913214E-01  0.22909961378E+02  0.00000000000E+00 0. -1.
</event>
<event>
 7    1  0.1335379E-011  0.5930193E+02  0.7816164E-02  0.1266605E+00
        -11   -1    0    0    0    0  0.00000000000E+00  0.00000000000E+00  0.45593999997E+02  0.45594000000E+02  0.51100000000E-03 0.  1.
         11   -1    0    0    0    0 -0.00000000000E+00 -0.00000000000E+00 -0.45593999997E+02  0.45594000000E+02  0.51100000000E-03 0. -1.
    9900012    2    1    2    0    0  0.18567415230E+02  0.13973707446E+01 -0.25884748364E+02  0.59301925435E+02  0.49999966091E+02 0.  0.
        -12    1    1    2    0    0 -0.18567415230E+02 -0.13973707446E+01  0.25884748364E+02  0.31886074565E+02  0.00000000000E+00 0.  1.
         11    1    3    3    0    0  0.46457969237E+01  0.76226096024E+01 -0.12891354226E+02  0.15680389672E+02  0.51100000000E-03 0. -1.
        -11    1    3    3    0    0  0.12098919364E+02  0.14917211496E+02 -0.11412829943E+02  0.22341883004E+02  0.51100000000E-03 0.  1.
        -12    1    3    3    0    0  0.18226989422E+01 -0.21142450353E+02 -0.15805641944E+01  0.21279652759E+02  0.00000000000E+00 0.  1.
</event>
<event>
 7    1  0.1335379E-011  0.5930193E+02  0.7816164E-02  0.1266605E+00
        -11   -1    0    0    0    0  0.00000000000E+00  0.00000000000E+00  0.45593999997E+02  0.45594000000E+02  0.51100000000E-03 0.  1.
         11   -1    0    0    0    0 -0.00000000000E+00 -0.00000000000E+00 -0.45593999997E+02  0.45594000000E+02  0.51100000000E-03 0. -1.
    9900012    2    1    2    0    0 -0.94608876989E+01  0.21824339380E+02 -0.21234671102E+02  0.59301930279E+02  0.49999974926E+02 0.  0.
        -12    1    1    2    0    0  0.94608876989E+01 -0.21824339380E+02  0.21234671102E+02  0.31886069721E+02  0.00000000000E+00 0.  1.
         11    1    3    3    0    0  0.92579968795E+01 -0.26319276134E+00 -0.16438350679E+02  0.18867939738E+02  0.51100000000E-03 0. -1.
        -11    1    3    3    0    0  0.47328627726E+01  0.64771393072E+01  0.62543508576E+01  0.10172031682E+02  0.51100000000E-03 0.  1.
         12    1    3    3    0    0 -0.23451747351E+02  0.15610392834E+02 -0.11050671280E+02  0.30261958859E+02  0.00000000000E+00 0. -1.
</event>
<event>
 7    1  0.1335379E-011  0.5930192E+02  0.7816164E-02  0.1266605E+00
        -11   -1    0    0    0    0  0.00000000000E+00  0.00000000000E+00  0.45593999997E+02  0.45594000000E+02  0.51100000000E-03 0. -1.
         11   -1    0    0    0    0 -0.00000000000E+00 -0.00000000000E+00 -0.45593999997E+02  0.45594000000E+02  0.51100000000E-03 0.  1.
    9900012    2    1    2    0    0  0.50520591874E+01  0.30660879333E+02  0.71490799764E+01  0.59301918898E+02  0.49999954170E+02 0.  0.
        -12    1    1    2    0    0 -0.50520591874E+01 -0.30660879333E+02 -0.71490799764E+01  0.31886081102E+02  0.00000000000E+00 0.  1.
         11    1    3    3    0    0  0.10703053161E+02  0.25847019949E+02 -0.98845307184E+01  0.29670317406E+02  0.51100000000E-03 0. -1.
        -11    1    3    3    0    0  0.84953579689E+01  0.43307964097E+01  0.38340061818E+01  0.10277475771E+02  0.51100000000E-03 0.  1.
        -12    1    3    3    0    0 -0.14146351942E+02  0.48306297434E+00  0.13199604513E+02  0.19354125721E+02  0.00000000000E+00 0.  1.
</event>
<event>
 7    1  0.1335379E-011  0.5930196E+02  0.7816164E-02  0.1266605E+00
        -11   -1    0    0    0    0  0.00000000000E+00  0.00000000000E+00  0.45593999997E+02  0.45594000000E+02  0.51100000000E-03 0.  1.
         11   -1    0    0    0    0 -0.00000000000E+00 -0.00000000000E+00 -0.45593999997E+02  0.45594000000E+02  0.51100000000E-03 0. -1.
    9900012    2    1    2    0    0  0.35946814266E+01 -0.31284022347E+02 -0.50107711571E+01  0.59301958910E+02  0.50000027142E+02 0.  0.
        -12    1    1    2    0    0 -0.35946814266E+01  0.31284022347E+02  0.50107711571E+01  0.31886041090E+02  0.00000000000E+00 0.  1.
         11    1    3    3    0    0  0.12221353540E+02 -0.12660273976E+02 -0.31456017714E+01  0.17875649086E+02  0.51100000000E-03 0.  1.
        -11    1    3    3    0    0 -0.15152346755E+02 -0.24900097568E+02 -0.83137428362E+01  0.30310506285E+02  0.51100000000E-03 0. -1.
         12    1    3    3    0    0  0.65256746414E+01  0.62763491965E+01  0.64485734505E+01  0.11115803539E+02  0.00000000000E+00 0. -1.
</event>
<event>
 7    1  0.1335379E-011  0.5930187E+02  0.7816164E-02  0.1266605E+00
        -11   -1    0    0    0    0  0.00000000000E+00  0.00000000000E+00  0.45593999997E+02  0.45594000000E+02  0.51100000000E-03 0.  1.
         11   -1    0    0    0    0 -0.00000000000E+00 -0.00000000000E+00 -0.45593999997E+02  0.45594000000E+02  0.51100000000E-03 0. -1.
    9900012    2    1    2    0    0 -0.39137204976E+01 -0.17124341687E+00 -0.31644565750E+02  0.59301873331E+02  0.49999871066E+02 0.  0.
        -12    1    1    2    0    0  0.39137204976E+01  0.17124341687E+00  0.31644565750E+02  0.31886126669E+02  0.00000000000E+00 0.  1.
         11    1    3    3    0    0 -0.82533955042E+00  0.77213175890E+01 -0.11076822035E+02  0.13527598358E+02  0.51100000000E-03 0. -1.
        -11    1    3    3    0    0  0.22755133126E+01  0.54682509912E+01 -0.28655240690E+02  0.29260938964E+02  0.51100000000E-03 0.  1.
        -12    1    3    3    0    0 -0.53638942598E+01 -0.13360811997E+02  0.80874969751E+01  0.16513336010E+02  0.00000000000E+00 0.  1.
</event>
<event>
 7    1  0.1335379E-011  0.5930198E+02  0.7816164E-02  0.1266605E+00
        -11   -1    0    0    0    0  0.00000000000E+00  0.00000000000E+00  0.45593999997E+02  0.45594000000E+02  0.51100000000E-03 0.  1.
         11   -1    0    0    0    0 -0.00000000000E+00 -0.00000000000E+00 -0.45593999997E+02  0.45594000000E+02  0.51100000000E-03 0. -1.
    9900012    2    1    2    0    0  0.15498378330E+02  0.16236483905E+02 -0.22647187581E+02  0.59301980403E+02  0.50000066339E+02 0.  0.
        -12    1    1    2    0    0 -0.15498378330E+02 -0.16236483905E+02  0.22647187581E+02  0.31886019597E+02  0.00000000000E+00 0.  1.
         11    1    3    3    0    0 -0.85365739492E+01  0.56046048359E+01 -0.28475830763E+01  0.10601576288E+02  0.51100000000E-03 0. -1.
        -11    1    3    3    0    0  0.15292251340E+02  0.16778531930E+02  0.35908799751E+01  0.22984048904E+02  0.51100000000E-03 0.  1.
        -12    1    3    3    0    0  0.87427009391E+01 -0.61466528617E+01 -0.23390484480E+02  0.25716355210E+02  0.00000000000E+00 0.  1.
</event>
<event>
 7    1  0.1335379E-011  0.5930194E+02  0.7816164E-02  0.1266605E+00
        -11   -1    0    0    0    0  0.00000000000E+00  0.00000000000E+00  0.45593999997E+02  0.45594000000E+02  0.51100000000E-03 0. -1.
         11   -1    0    0    0    0 -0.00000000000E+00 -0.00000000000E+00 -0.45593999997E+02  0.45594000000E+02  0.51100000000E-03 0.  1.
    9900012    2    1    2    0    0  0.10242270986E+02 -0.41558508605E-02  0.30196304058E+02  0.59301938609E+02  0.49999990118E+02 0.  0.
        -12    1    1    2    0    0 -0.10242270986E+02  0.41558508605E-02 -0.30196304058E+02  0.31886061391E+02  0.00000000000E+00 0.  1.
         11    1    3    3    0    0 -0.67491418488E+01 -0.72841023118E+01  0.16130915560E+02  0.18942425907E+02  0.51100000000E-03 0. -1.
        -11    1    3    3    0    0  0.52388879986E+01  0.67932408261E+01 -0.10239330216E+02  0.13358066923E+02  0.51100000000E-03 0.  1.
        -12    1    3    3    0    0  0.11752524837E+02  0.48670563487E+00  0.24304718714E+02  0.27001445779E+02  0.00000000000E+00 0.  1.
</event>
<event>
 7    1  0.1335379E-011  0.5930195E+02  0.7816164E-02  0.1266605E+00
        -11   -1    0    0    0    0  0.00000000000E+00  0.00000000000E+00  0.45593999997E+02  0.45594000000E+02  0.51100000000E-03 0. -1.
         11   -1    0    0    0    0 -0.00000000000E+00 -0.00000000000E+00 -0.45593999997E+02  0.45594000000E+02  0.51100000000E-03 0.  1.
    9900012    2    1    2    0    0  0.36970758250E+01  0.31615573554E+02  0.18727653455E+01  0.59301951157E+02  0.50000013001E+02 0.  0.
        -12    1    1    2    0    0 -0.36970758250E+01 -0.31615573554E+02 -0.18727653455E+01  0.31886048843E+02  0.00000000000E+00 0.  1.
         11    1    3    3    0    0  0.15278124798E+02  0.67942761844E+01  0.62659802343E+01  0.17856253660E+02  0.51100000000E-03 0. -1.
        -11    1    3    3    0    0 -0.75347303485E+01  0.12862312158E+02  0.13118741426E+02  0.19857306271E+02  0.51100000000E-03 0.  1.
        -12    1    3    3    0    0 -0.40463186249E+01  0.11958985211E+02 -0.17511956315E+02  0.21588391225E+02  0.00000000000E+00 0.  1.
</event>
<event>
 7    1  0.1335379E-011  0.5930195E+02  0.7816164E-02  0.1266605E+00
        -11   -1    0    0    0    0  0.00000000000E+00  0.00000000000E+00  0.45593999997E+02  0.45594000000E+02  0.51100000000E-03 0.  1.
         11   -1    0    0    0    0 -0.00000000000E+00 -0.00000000000E+00 -0.45593999997E+02  0.45594000000E+02  0.51100000000E-03 0. -1.
    9900012    2    1    2    0    0  0.30738712044E+02 -0.23172814078E+01 -0.81536593392E+01  0.59301947064E+02  0.50000005537E+02 0.  0.
        -12    1    1    2    0    0 -0.30738712044E+02  0.23172814078E+01  0.81536593392E+01  0.31886052936E+02  0.00000000000E+00 0.  1.
         11    1    3    3    0    0  0.18365565428E+02 -0.17347074894E+02 -0.12693357987E+02  0.28272536818E+02  0.51100000000E-03 0. -1.
        -11    1    3    3    0    0  0.17791702221E+02  0.42275078855E+01  0.52395102417E+00  0.18294562465E+02  0.51100000000E-03 0.  1.
        -12    1    3    3    0    0 -0.54185556053E+01  0.10802285600E+02  0.40157476240E+01  0.12734847781E+02  0.00000000000E+00 0.  1.
</event>
<event>
 7    1  0.1335379E-011  0.5930195E+02  0.7816164E-02  0.1266605E+00
        -11   -1    0    0    0    0  0.00000000000E+00  0.00000000000E+00  0.45593999997E+02  0.45594000000E+02  0.51100000000E-03 0. -1.
         11   -1    0    0    0    0 -0.00000000000E+00 -0.00000000000E+00 -0.45593999997E+02  0.45594000000E+02  0.51100000000E-03 0.  1.
    9900012    2    1    2    0    0 -0.31624533301E+02 -0.26023107803E+01 -0.31363957419E+01  0.59301951231E+02  0.50000013136E+02 0.  0.
        -12    1    1    2    0    0  0.31624533301E+02  0.26023107803E+01  0.31363957419E+01  0.31886048769E+02  0.00000000000E+00 0.  1.
         11    1    3    3    0    0  0.32042688234E+01  0.49435787085E+01  0.48481361545E+01  0.76295958984E+01  0.51100000000E-03 0. -1.
        -11    1    3    3    0    0 -0.10602583701E+02 -0.14725790018E+02  0.99425918217E+01  0.20691031999E+02  0.51100000000E-03 0.  1.
         12    1    3    3    0    0 -0.24226218422E+02  0.71799005291E+01 -0.17927123718E+02  0.30981323333E+02  0.00000000000E+00 0. -1.
</event>
<event>
 7    1  0.1335379E-011  0.5930204E+02  0.7816164E-02  0.1266604E+00
        -11   -1    0    0    0    0  0.00000000000E+00  0.00000000000E+00  0.45593999997E+02  0.45594000000E+02  0.51100000000E-03 0. -1.
         11   -1    0    0    0    0 -0.00000000000E+00 -0.00000000000E+00 -0.45593999997E+02  0.45594000000E+02  0.51100000000E-03 0.  1.
    9900012    2    1    2    0    0  0.15116583107E+02  0.95539501796E+01  0.26399340878E+02  0.59302043096E+02  0.50000180677E+02 0.  0.
        -12    1    1    2    0    0 -0.15116583107E+02 -0.95539501796E+01 -0.26399340878E+02  0.31885956904E+02  0.00000000000E+00 0.  1.
         11    1    3    3    0    0 -0.62086576690E+01  0.13612057943E+02  0.22498429415E+02  0.27018787499E+02  0.51100000000E-03 0. -1.
        -11    1    3    3    0    0  0.19182030561E+01  0.85475917376E+01  0.24490950509E+01  0.90960922547E+01  0.51100000000E-03 0.  1.
        -12    1    3    3    0    0  0.19407037720E+02 -0.12605699501E+02  0.14518164114E+01  0.23187163343E+02  0.00000000000E+00 0.  1.
</event>
<event>
 7    1  0.1335379E-011  0.5930194E+02  0.7816164E-02  0.1266605E+00
        -11   -1    0    0    0    0  0.00000000000E+00  0.00000000000E+00  0.45593999997E+02  0.45594000000E+02  0.51100000000E-03 0. -1.
         11   -1    0    0    0    0 -0.00000000000E+00 -0.00000000000E+00 -0.45593999997E+02  0.45594000000E+02  0.51100000000E-03 0.  1.
    9900012    2    1    2    0    0 -0.18359048182E+02  0.60775248759E+01  0.25352115527E+02  0.59301941598E+02  0.49999995568E+02 0.  0.
        -12    1    1    2    0    0  0.18359048182E+02 -0.60775248759E+01 -0.25352115527E+02  0.31886058402E+02  0.00000000000E+00 0.  1.
         11    1    3    3    0    0  0.13718900612E+02  0.28913389299E+01  0.80152655799E+01  0.16149692176E+02  0.51100000000E-03 0. -1.
        -11    1    3    3    0    0  0.30459127834E+01 -0.15468307208E+01 -0.53828463843E+00  0.34583262680E+01  0.51100000000E-03 0.  1.
        -12    1    3    3    0    0 -0.35123861577E+02  0.47330166669E+01  0.17875134585E+02  0.39693923153E+02  0.00000000000E+00 0.  1.
</event>
<event>
 7    1  0.1335379E-011  0.5930197E+02  0.7816164E-02  0.1266605E+00
        -11   -1    0    0    0    0  0.00000000000E+00  0.00000000000E+00  0.45593999997E+02  0.45594000000E+02  0.51100000000E-03 0. -1.
         11   -1    0    0    0    0 -0.00000000000E+00 -0.00000000000E+00 -0.45593999997E+02  0.45594000000E+02  0.51100000000E-03 0.  1.
    9900012    2    1    2    0    0 -0.31447332903E+02 -0.18500728606E+01  0.49357314653E+01  0.59301969181E+02  0.50000045874E+02 0.  0.
        -12    1    1    2    0    0  0.31447332903E+02  0.18500728606E+01 -0.49357314653E+01  0.31886030819E+02  0.00000000000E+00 0.  1.
         11    1    3    3    0    0 -0.23359305794E+02  0.63033937262E+01  0.49735776016E+01  0.24700737116E+02  0.51100000000E-03 0. -1.
        -11    1    3    3    0    0 -0.11561518016E+02  0.83798059763E+01  0.74688064246E+01  0.16114369882E+02  0.51100000000E-03 0.  1.
         12    1    3    3    0    0  0.34734909066E+01 -0.16533272563E+02 -0.75066525609E+01  0.18486862184E+02  0.00000000000E+00 0. -1.
</event>
<event>
 7    1  0.1335379E-011  0.5930193E+02  0.7816164E-02  0.1266605E+00
        -11   -1    0    0    0    0  0.00000000000E+00  0.00000000000E+00  0.45593999997E+02  0.45594000000E+02  0.51100000000E-03 0.  1.
         11   -1    0    0    0    0 -0.00000000000E+00 -0.00000000000E+00 -0.45593999997E+02  0.45594000000E+02  0.51100000000E-03 0. -1.
    9900012    2    1    2    0    0  0.16906206599E+02  0.22369595081E+02 -0.15182320156E+02  0.59301930142E+02  0.49999974677E+02 0.  0.
        -12    1    1    2    0    0 -0.16906206599E+02 -0.22369595081E+02  0.15182320156E+02  0.31886069858E+02  0.00000000000E+00 0.  1.
         11    1    3    3    0    0  0.49130159655E+01  0.69044111267E+01 -0.16224555717E+01  0.86279187078E+01  0.51100000000E-03 0. -1.
        -11    1    3    3    0    0  0.74616803562E+01  0.22063898383E+02  0.10329470028E+02  0.25479211858E+02  0.51100000000E-03 0.  1.
        -12    1    3    3    0    0  0.45315102770E+01 -0.65987144287E+01 -0.23889334612E+02  0.25194799577E+02  0.00000000000E+00 0.  1.
</event>
<event>
 7    1  0.1335379E-011  0.5930196E+02  0.7816164E-02  0.1266605E+00
        -11   -1    0    0    0    0  0.00000000000E+00  0.00000000000E+00  0.45593999997E+02  0.45594000000E+02  0.51100000000E-03 0.  1.
         11   -1    0    0    0    0 -0.00000000000E+00 -0.00000000000E+00 -0.45593999997E+02  0.45594000000E+02  0.51100000000E-03 0. -1.
    9900012    2    1    2    0    0 -0.22618610926E+02 -0.23441778870E+01 -0.22352245846E+02  0.59301958782E+02  0.50000026909E+02 0.  0.
        -12    1    1    2    0    0  0.22618610926E+02  0.23441778870E+01  0.22352245846E+02  0.31886041218E+02  0.00000000000E+00 0.  1.
         11    1    3    3    0    0 -0.13401209089E+02  0.39390015028E+01 -0.17723737907E+02  0.22566324989E+02  0.51100000000E-03 0. -1.
        -11    1    3    3    0    0  0.71331248239E+00 -0.14720835013E+02 -0.14278450093E+02  0.20520378541E+02  0.51100000000E-03 0.  1.
        -12    1    3    3    0    0 -0.99307143198E+01  0.84376556227E+01  0.96499421535E+01  0.16215255252E+02  0.00000000000E+00 0.  1.
</event>
<event>
 7    1  0.1335379E-011  0.5930194E+02  0.7816164E-02  0.1266605E+00
        -11   -1    0    0    0    0  0.00000000000E+00  0.00000000000E+00  0.45593999997E+02  0.45594000000E+02  0.51100000000E-03 0.  1.
         11   -1    0    0    0    0 -0.00000000000E+00 -0.00000000000E+00 -0.45593999997E+02  0.45594000000E+02  0.51100000000E-03 0. -1.
    9900012    2    1    2    0    0  0.30977490742E+02 -0.29770469997E+01 -0.69464254498E+01  0.59301943987E+02  0.49999999927E+02 0.  0.
        -12    1    1    2    0    0 -0.30977490742E+02  0.29770469997E+01  0.69464254498E+01  0.31886056013E+02  0.00000000000E+00 0.  1.
         11    1    3    3    0    0  0.88336419620E-01 -0.15836101023E+02 -0.51561713427E+01  0.16654609035E+02  0.51100000000E-03 0. -1.
        -11    1    3    3    0    0 -0.43240913327E+01  0.34927461087E+01  0.22288549202E+01  0.59887257201E+01  0.51100000000E-03 0.  1.
         12    1    3    3    0    0  0.35213245655E+02  0.93663079142E+01 -0.40191090273E+01  0.36658609233E+02  0.00000000000E+00 0. -1.
</event>
<event>
 7    1  0.1335379E-011  0.5930196E+02  0.7816164E-02  0.1266605E+00
        -11   -1    0    0    0    0  0.00000000000E+00  0.00000000000E+00  0.45593999997E+02  0.45594000000E+02  0.51100000000E-03 0. -1.
         11   -1    0    0    0    0 -0.00000000000E+00 -0.00000000000E+00 -0.45593999997E+02  0.45594000000E+02  0.51100000000E-03 0.  1.
    9900012    2    1    2    0    0 -0.14211326132E+01  0.28407812613E+02  0.14411661132E+02  0.59301962116E+02  0.50000032989E+02 0.  0.
        -12    1    1    2    0    0  0.14211326132E+01 -0.28407812613E+02 -0.14411661132E+02  0.31886037884E+02  0.00000000000E+00 0.  1.
         11    1    3    3    0    0  0.10852611717E+00 -0.79070334637E+00 -0.12828795738E+02  0.12853598331E+02  0.51100000000E-03 0. -1.
        -11    1    3    3    0    0  0.21080172597E+00 -0.37309606865E+01  0.96735464147E-01  0.37381630547E+01  0.51100000000E-03 0.  1.
         12    1    3    3    0    0 -0.17404604564E+01  0.32929476645E+02  0.27143721406E+02  0.42710200731E+02  0.00000000000E+00 0. -1.
</event>
<event>
 7    1  0.1335379E-011  0.5930196E+02  0.7816164E-02  0.1266605E+00
        -11   -1    0    0    0    0  0.00000000000E+00  0.00000000000E+00  0.45593999997E+02  0.45594000000E+02  0.51100000000E-03 0.  1.
         11   -1    0    0    0    0 -0.00000000000E+00 -0.00000000000E+00 -0.45593999997E+02  0.45594000000E+02  0.51100000000E-03 0. -1.
    9900012    2    1    2    0    0 -0.11075391658E+02 -0.83920420987E+01 -0.28698936050E+02  0.59301959145E+02  0.50000027571E+02 0.  0.
        -12    1    1    2    0    0  0.11075391658E+02  0.83920420987E+01  0.28698936050E+02  0.31886040855E+02  0.00000000000E+00 0.  1.
         11    1    3    3    0    0 -0.57111204026E+01  0.48505973318E+00 -0.31027539237E+01  0.65176116308E+01  0.51100000000E-03 0. -1.
        -11    1    3    3    0    0 -0.20826588118E+02 -0.18576814213E+02 -0.15215321966E+02  0.31786016135E+02  0.51100000000E-03 0.  1.
        -12    1    3    3    0    0  0.15462316863E+02  0.96997123812E+01 -0.10380860161E+02  0.20998331379E+02  0.00000000000E+00 0.  1.
</event>
<event>
 7    1  0.1335379E-011  0.5930201E+02  0.7816164E-02  0.1266605E+00
        -11   -1    0    0    0    0  0.00000000000E+00  0.00000000000E+00  0.45593999997E+02  0.45594000000E+02  0.51100000000E-03 0.  1.
         11   -1    0    0    0    0 -0.00000000000E+00 -0.00000000000E+00 -0.45593999997E+02  0.45594000000E+02  0.51100000000E-03 0. -1.
    9900012    2    1    2    0    0 -0.61032053053E+01  0.30374370571E+02 -0.75408869504E+01  0.59302008114E+02  0.50000116877E+02 0.  0.
        -12    1    1    2    0    0  0.61032053053E+01 -0.30374370571E+02  0.75408869504E+01  0.31885991886E+02  0.00000000000E+00 0.  1.
         11    1    3    3    0    0 -0.82606624644E+01  0.91164206842E+01  0.53258998281E+01  0.13405703252E+02  0.51100000000E-03 0. -1.
        -11    1    3    3    0    0  0.70464274156E+01  0.80695627866E+01  0.12761432934E+02  0.16662057307E+02  0.51100000000E-03 0.  1.
         12    1    3    3    0    0 -0.48889702565E+01  0.13188387100E+02 -0.25628219713E+02  0.29234247555E+02  0.00000000000E+00 0. -1.
</event>
<event>
 7    1  0.1335379E-011  0.5930195E+02  0.7816164E-02  0.1266605E+00
        -11   -1    0    0    0    0  0.00000000000E+00  0.00000000000E+00  0.45593999997E+02  0.45594000000E+02  0.51100000000E-03 0. -1.
         11   -1    0    0    0    0 -0.00000000000E+00 -0.00000000000E+00 -0.45593999997E+02  0.45594000000E+02  0.51100000000E-03 0.  1.
    9900012    2    1    2    0    0 -0.32609739664E+01 -0.27244521180E+02 -0.16242602008E+02  0.59301952808E+02  0.50000016013E+02 0.  0.
        -12    1    1    2    0    0  0.32609739664E+01  0.27244521180E+02  0.16242602008E+02  0.31886047192E+02  0.00000000000E+00 0.  1.
         11    1    3    3    0    0 -0.66626512055E+01  0.75682179822E+01 -0.39577573523E+01  0.10832021420E+02  0.51100000000E-03 0. -1.
        -11    1    3    3    0    0 -0.20198368003E+01 -0.76072526582E+01  0.10113824497E+02  0.12815595184E+02  0.51100000000E-03 0.  1.
        -12    1    3    3    0    0  0.54215140394E+01 -0.27205486504E+02 -0.22398669152E+02  0.35654336205E+02  0.00000000000E+00 0.  1.
</event>
<event>
 7    1  0.1335379E-011  0.5930194E+02  0.7816164E-02  0.1266605E+00
        -11   -1    0    0    0    0  0.00000000000E+00  0.00000000000E+00  0.45593999997E+02  0.45594000000E+02  0.51100000000E-03 0.  1.
         11   -1    0    0    0    0 -0.00000000000E+00 -0.00000000000E+00 -0.45593999997E+02  0.45594000000E+02  0.51100000000E-03 0. -1.
    9900012    2    1    2    0    0  0.20375304016E+02  0.21646829750E+02  0.11531815991E+02  0.59301936711E+02  0.49999986657E+02 0.  0.
        -12    1    1    2    0    0 -0.20375304016E+02 -0.21646829750E+02 -0.11531815991E+02  0.31886063289E+02  0.00000000000E+00 0.  1.
         11    1    3    3    0    0  0.25484358060E+02  0.15079851789E+02  0.75012560739E+01  0.30547066613E+02  0.51100000000E-03 0. -1.
        -11    1    3    3    0    0  0.11216881224E+02  0.22743169753E+01  0.20989670182E+00  0.11447051978E+02  0.51100000000E-03 0.  1.
        -12    1    3    3    0    0 -0.16325935268E+02  0.42926609856E+01  0.38206632157E+01  0.17307818121E+02  0.00000000000E+00 0.  1.
</event>
<event>
 7    1  0.1335379E-011  0.5930197E+02  0.7816164E-02  0.1266605E+00
        -11   -1    0    0    0    0  0.00000000000E+00  0.00000000000E+00  0.45593999997E+02  0.45594000000E+02  0.51100000000E-03 0. -1.
         11   -1    0    0    0    0 -0.00000000000E+00 -0.00000000000E+00 -0.45593999997E+02  0.45594000000E+02  0.51100000000E-03 0.  1.
    9900012    2    1    2    0    0  0.17587119861E+02  0.11742402885E+02  0.23864784147E+02  0.59301972765E+02  0.50000052409E+02 0.  0.
        -12    1    1    2    0    0 -0.17587119861E+02 -0.11742402885E+02 -0.23864784147E+02  0.31886027235E+02  0.00000000000E+00 0.  1.
         11    1    3    3    0    0 -0.80819364157E-01  0.46003093977E+00 -0.18651209865E+01  0.19227159932E+01  0.51100000000E-03 0. -1.
        -11    1    3    3    0    0  0.62311262009E+01 -0.75058706502E+01 -0.10915555250E+02  0.14639479998E+02  0.51100000000E-03 0.  1.
         12    1    3    3    0    0  0.11436813024E+02  0.18788242595E+02  0.36645460383E+02  0.42739776773E+02  0.00000000000E+00 0. -1.
</event>
<event>
 7    1  0.1335379E-011  0.5930196E+02  0.7816164E-02  0.1266605E+00
        -11   -1    0    0    0    0  0.00000000000E+00  0.00000000000E+00  0.45593999997E+02  0.45594000000E+02  0.51100000000E-03 0.  1.
         11   -1    0    0    0    0 -0.00000000000E+00 -0.00000000000E+00 -0.45593999997E+02  0.45594000000E+02  0.51100000000E-03 0. -1.
    9900012    2    1    2    0    0  0.15449942342E+02 -0.92475414999E+01 -0.26315423699E+02  0.59301964395E+02  0.50000037144E+02 0.  0.
        -12    1    1    2    0    0 -0.15449942342E+02  0.92475414999E+01  0.26315423699E+02  0.31886035605E+02  0.00000000000E+00 0.  1.
         11    1    3    3    0    0  0.39160084311E+01  0.82928975715E+01 -0.81704635598E+01  0.12282660429E+02  0.51100000000E-03 0. -1.
        -11    1    3    3    0    0  0.39984952585E+01  0.10814281367E+02  0.16210404057E+01  0.11643213391E+02  0.51100000000E-03 0.  1.
         12    1    3    3    0    0  0.75354386526E+01 -0.28354720438E+02 -0.19766000545E+02  0.35376090575E+02  0.00000000000E+00 0. -1.
</event>
<event>
 7    1  0.1335379E-011  0.5930176E+02  0.7816164E-02  0.1266605E+00
        -11   -1    0    0    0    0  0.00000000000E+00  0.00000000000E+00  0.45593999997E+02  0.45594000000E+02  0.51100000000E-03 0.  1.
         11   -1    0    0    0    0 -0.00000000000E+00 -0.00000000000E+00 -0.45593999997E+02  0.45594000000E+02  0.51100000000E-03 0. -1.
    9900012    2    1    2    0    0 -0.29106231916E+01  0.68679193166E+01 -0.31001492214E+02  0.59301755903E+02  0.49999656904E+02 0.  0.
        -12    1    1    2    0    0  0.29106231916E+01 -0.68679193166E+01  0.31001492214E+02  0.31886244097E+02  0.00000000000E+00 0.  1.
         11    1    3    3    0    0 -0.62073897954E+01 -0.10305603933E+02 -0.96572286745E+01  0.15427223549E+02  0.51100000000E-03 0. -1.
        -11    1    3    3    0    0  0.15647160470E+02  0.80218211518E+00 -0.16598562428E+02  0.22825192263E+02  0.51100000000E-03 0.  1.
         12    1    3    3    0    0 -0.12350393867E+02  0.16371341134E+02 -0.47457011123E+01  0.21049340091E+02  0.00000000000E+00 0. -1.
</event>
<event>
 7    1  0.1335379E-011  0.5930193E+02  0.7816164E-02  0.1266605E+00
        -11   -1    0    0    0    0  0.00000000000E+00  0.00000000000E+00  0.45593999997E+02  0.45594000000E+02  0.51100000000E-03 0.  1.
         11   -1    0    0    0    0 -0.00000000000E+00 -0.00000000000E+00 -0.45593999997E+02  0.45594000000E+02  0.51100000000E-03 0. -1.
    9900012    2    1    2    0    0  0.27129661724E+02 -0.46334366133E+01  0.16100759265E+02  0.59301925782E+02  0.49999966725E+02 0.  0.
        -12    1    1    2    0    0 -0.27129661724E+02  0.46334366133E+01 -0.16100759265E+02  0.31886074218E+02  0.00000000000E+00 0.  1.
         11    1    3    3    0    0  0.10225892945E+02 -0.16431022859E+02 -0.38290434328E+01  0.19728379877E+02  0.51100000000E-03 0. -1.
        -11    1    3    3    0    0 -0.16857752450E+01 -0.57872093797E+01 -0.14828204605E+01  0.62074461222E+01  0.51100000000E-03 0.  1.
         12    1    3    3    0    0  0.18589544024E+02  0.17584795625E+02  0.21412623159E+02  0.33366099783E+02  0.00000000000E+00 0. -1.
</event>
<event>
 7    1  0.1806428E-011  0.5930201E+02  0.7816164E-02  0.1266605E+00
        -11   -1    0    0    0    0  0.00000000000E+00  0.00000000000E+00  0.45593999997E+02  0.45594000000E+02  0.51100000000E-03 0. -1.
         11   -1    0    0    0    0 -0.00000000000E+00 -0.00000000000E+00 -0.45593999997E+02  0.45594000000E+02  0.51100000000E-03 0.  1.
    9900012    2    1    2    0    0 -0.43845316466E+01  0.25744232231E+02  0.18295545554E+02  0.59302006240E+02  0.50000113461E+02 0.  0.
        -12    1    1    2    0    0  0.43845316466E+01 -0.25744232231E+02 -0.18295545554E+02  0.31885993760E+02  0.00000000000E+00 0.  1.
         11    1    3    3    0    0  0.64622528619E+01  0.87638369754E+01  0.21084707786E+02  0.23730369851E+02  0.51100000000E-03 0. -1.
        -11    1    3    3    0    0 -0.69283866863E+01  0.24721757802E+02  0.18350418622E+01  0.25739759708E+02  0.51100000000E-03 0.  1.
        -12    1    3    3    0    0 -0.39183978221E+01 -0.77413625467E+01 -0.46242040944E+01  0.98318766814E+01  0.00000000000E+00 0.  1.
</event>
<event>
 7    1  0.1335379E-011  0.5930193E+02  0.7816164E-02  0.1266605E+00
        -11   -1    0    0    0    0  0.00000000000E+00  0.00000000000E+00  0.45593999997E+02  0.45594000000E+02  0.51100000000E-03 0.  1.
         11   -1    0    0    0    0 -0.00000000000E+00 -0.00000000000E+00 -0.45593999997E+02  0.45594000000E+02  0.51100000000E-03 0. -1.
    9900012    2    1    2    0    0 -0.18942456134E+02 -0.23484696523E+02  0.10313768994E+02  0.59301930219E+02  0.49999974817E+02 0.  0.
        -12    1    1    2    0    0  0.18942456134E+02  0.23484696523E+02 -0.10313768994E+02  0.31886069781E+02  0.00000000000E+00 0.  1.
         11    1    3    3    0    0  0.71695869246E+00  0.71121918509E+01  0.12437802556E+01  0.72556386539E+01  0.51100000000E-03 0. -1.
        -11    1    3    3    0    0 -0.37158088951E+01  0.78764323064E+01 -0.20381714208E+01  0.89442475717E+01  0.51100000000E-03 0.  1.
         12    1    3    3    0    0 -0.15943605931E+02 -0.38473320681E+02  0.11108160160E+02  0.43102043994E+02  0.00000000000E+00 0. -1.
</event>
<event>
 7    1  0.1335379E-011  0.5930195E+02  0.7816164E-02  0.1266605E+00
        -11   -1    0    0    0    0  0.00000000000E+00  0.00000000000E+00  0.45593999997E+02  0.45594000000E+02  0.51100000000E-03 0.  1.
         11   -1    0    0    0    0 -0.00000000000E+00 -0.00000000000E+00 -0.45593999997E+02  0.45594000000E+02  0.51100000000E-03 0. -1.
    9900012    2    1    2    0    0 -0.10619109511E+02  0.25178784696E+02 -0.16431178868E+02  0.59301947805E+02  0.50000006888E+02 0.  0.
        -12    1    1    2    0    0  0.10619109511E+02 -0.25178784696E+02  0.16431178868E+02  0.31886052195E+02  0.00000000000E+00 0.  1.
         11    1    3    3    0    0  0.91663903494E+00  0.51657876189E+01 -0.23779458891E+02  0.24351350152E+02  0.51100000000E-03 0. -1.
        -11    1    3    3    0    0  0.70055126650E+01  0.46388424402E+00 -0.86270737141E-02  0.70208597037E+01  0.51100000000E-03 0.  1.
        -12    1    3    3    0    0 -0.18541261211E+02  0.19549112833E+02  0.73569070959E+01  0.27929737949E+02  0.00000000000E+00 0.  1.
</event>
<event>
 7    1  0.1335379E-011  0.5930196E+02  0.7816164E-02  0.1266605E+00
        -11   -1    0    0    0    0  0.00000000000E+00  0.00000000000E+00  0.45593999997E+02  0.45594000000E+02  0.51100000000E-03 0. -1.
         11   -1    0    0    0    0 -0.00000000000E+00 -0.00000000000E+00 -0.45593999997E+02  0.45594000000E+02  0.51100000000E-03 0.  1.
    9900012    2    1    2    0    0 -0.27535756153E+02  0.15879327864E+01  0.15999381210E+02  0.59301959221E+02  0.50000027710E+02 0.  0.
        -12    1    1    2    0    0  0.27535756153E+02 -0.15879327864E+01 -0.15999381210E+02  0.31886040779E+02  0.00000000000E+00 0.  1.
         11    1    3    3    0    0 -0.29965733168E+02 -0.31911016564E-01 -0.68150503560E+00  0.29973498828E+02  0.51100000000E-03 0.  1.
        -11    1    3    3    0    0 -0.62875588641E+01  0.91001601689E+01  0.13413433776E+02  0.17385813686E+02  0.51100000000E-03 0. -1.
        -12    1    3    3    0    0  0.87175358797E+01 -0.74803163660E+01  0.32674524689E+01  0.11942646708E+02  0.00000000000E+00 0.  1.
</event>
<event>
 7    1  0.1335379E-011  0.5930196E+02  0.7816164E-02  0.1266605E+00
        -11   -1    0    0    0    0  0.00000000000E+00  0.00000000000E+00  0.45593999997E+02  0.45594000000E+02  0.51100000000E-03 0.  1.
         11   -1    0    0    0    0 -0.00000000000E+00 -0.00000000000E+00 -0.45593999997E+02  0.45594000000E+02  0.51100000000E-03 0. -1.
    9900012    2    1    2    0    0 -0.17981744577E+02 -0.23356283917E+02 -0.12159782545E+02  0.59301961551E+02  0.50000031957E+02 0.  0.
        -12    1    1    2    0    0  0.17981744577E+02  0.23356283917E+02  0.12159782545E+02  0.31886038449E+02  0.00000000000E+00 0.  1.
         11    1    3    3    0    0 -0.21542167284E+01 -0.11668086314E+02 -0.17005935819E+02  0.20736121655E+02  0.51100000000E-03 0. -1.
        -11    1    3    3    0    0  0.53847581860E+00 -0.19857896155E+02  0.39362420908E+01  0.20251419653E+02  0.51100000000E-03 0.  1.
         12    1    3    3    0    0 -0.16366003668E+02  0.81696985516E+01  0.90991118298E+00  0.18314420243E+02  0.00000000000E+00 0. -1.
</event>
<event>
 7    1  0.1335379E-011  0.5930196E+02  0.7816164E-02  0.1266605E+00
        -11   -1    0    0    0    0  0.00000000000E+00  0.00000000000E+00  0.45593999997E+02  0.45594000000E+02  0.51100000000E-03 0. -1.
         11   -1    0    0    0    0 -0.00000000000E+00 -0.00000000000E+00 -0.45593999997E+02  0.45594000000E+02  0.51100000000E-03 0.  1.
    9900012    2    1    2    0    0  0.10908463244E+02  0.64019608683E+01  0.29270118278E+02  0.59301960777E+02  0.50000030547E+02 0.  0.
        -12    1    1    2    0    0 -0.10908463244E+02 -0.64019608683E+01 -0.29270118278E+02  0.31886039223E+02  0.00000000000E+00 0.  1.
         11    1    3    3    0    0 -0.89854085286E+01 -0.96819176981E+01  0.57646762613E+01  0.14412098716E+02  0.51100000000E-03 0. -1.
        -11    1    3    3    0    0 -0.66305208026E+01 -0.65986015718E+00  0.60112128443E+01  0.89740682893E+01  0.51100000000E-03 0.  1.
        -12    1    3    3    0    0  0.26524392576E+02  0.16743738724E+02  0.17494229172E+02  0.35915793772E+02  0.00000000000E+00 0.  1.
</event>
<event>
 7    1  0.1335379E-011  0.5930195E+02  0.7816164E-02  0.1266605E+00
        -11   -1    0    0    0    0  0.00000000000E+00  0.00000000000E+00  0.45593999997E+02  0.45594000000E+02  0.51100000000E-03 0. -1.
         11   -1    0    0    0    0 -0.00000000000E+00 -0.00000000000E+00 -0.45593999997E+02  0.45594000000E+02  0.51100000000E-03 0.  1.
    9900012    2    1    2    0    0 -0.10766591094E+02  0.25658904268E+02  0.15569882628E+02  0.59301951373E+02  0.50000013396E+02 0.  0.
        -12    1    1    2    0    0  0.10766591094E+02 -0.25658904268E+02 -0.15569882628E+02  0.31886048627E+02  0.00000000000E+00 0.  1.
         11    1    3    3    0    0  0.10552673749E+02  0.94717481072E+01  0.12466136743E+02  0.18880611776E+02  0.51100000000E-03 0. -1.
        -11    1    3    3    0    0  0.39804963386E+01 -0.15448363706E+00 -0.74987188666E+01  0.84911130717E+01  0.51100000000E-03 0.  1.
        -12    1    3    3    0    0 -0.25299761182E+02  0.16341639798E+02  0.10602464751E+02  0.31930226525E+02  0.00000000000E+00 0.  1.
</event>
<event>
 7    1  0.1335379E-011  0.5930193E+02  0.7816164E-02  0.1266605E+00
        -11   -1    0    0    0    0  0.00000000000E+00  0.00000000000E+00  0.45593999997E+02  0.45594000000E+02  0.51100000000E-03 0.  1.
         11   -1    0    0    0    0 -0.00000000000E+00 -0.00000000000E+00 -0.45593999997E+02  0.45594000000E+02  0.51100000000E-03 0. -1.
    9900012    2    1    2    0    0 -0.20797965121E+02 -0.11608810691E+02 -0.21199090495E+02  0.59301932875E+02  0.49999979661E+02 0.  0.
        -12    1    1    2    0    0  0.20797965121E+02  0.11608810691E+02  0.21199090495E+02  0.31886067125E+02  0.00000000000E+00 0.  1.
         11    1    3    3    0    0 -0.98599906942E+01  0.57605275748E+01 -0.83508738219E+01  0.14147091160E+02  0.51100000000E-03 0. -1.
        -11    1    3    3    0    0 -0.17341486804E+02  0.12446510896E+01  0.55097979746E+01  0.18238261838E+02  0.51100000000E-03 0.  1.
        -12    1    3    3    0    0  0.64035123767E+01 -0.18613989355E+02 -0.18358014648E+02  0.26916579878E+02  0.00000000000E+00 0.  1.
</event>
<event>
 7    1  0.1335379E-011  0.5930205E+02  0.7816164E-02  0.1266604E+00
        -11   -1    0    0    0    0  0.00000000000E+00  0.00000000000E+00  0.45593999997E+02  0.45594000000E+02  0.51100000000E-03 0. -1.
         11   -1    0    0    0    0 -0.00000000000E+00 -0.00000000000E+00 -0.45593999997E+02  0.45594000000E+02  0.51100000000E-03 0.  1.
    9900012    2    1    2    0    0  0.41953536558E-01  0.31829279983E+02 -0.18997265730E+01  0.59302050346E+02  0.50000193898E+02 0.  0.
        -12    1    1    2    0    0 -0.41953536558E-01 -0.31829279983E+02  0.18997265730E+01  0.31885949654E+02  0.00000000000E+00 0.  1.
         11    1    3    3    0    0  0.57261314272E+01  0.43133237224E+01  0.22109441721E+01  0.75021075071E+01  0.51100000000E-03 0. -1.
        -11    1    3    3    0    0 -0.62793255934E+01  0.32182050467E+02  0.12077248008E+02  0.34942441556E+02  0.51100000000E-03 0.  1.
        -12    1    3    3    0    0  0.59514770275E+00 -0.46660942068E+01 -0.16187918753E+02  0.16857501283E+02  0.00000000000E+00 0.  1.
</event>
<event>
 7    1  0.1335379E-011  0.5930200E+02  0.7816164E-02  0.1266605E+00
        -11   -1    0    0    0    0  0.00000000000E+00  0.00000000000E+00  0.45593999997E+02  0.45594000000E+02  0.51100000000E-03 0. -1.
         11   -1    0    0    0    0 -0.00000000000E+00 -0.00000000000E+00 -0.45593999997E+02  0.45594000000E+02  0.51100000000E-03 0.  1.
    9900012    2    1    2    0    0  0.31659393378E+02 -0.26122175487E+01  0.27524478913E+01  0.59302002462E+02  0.50000106570E+02 0.  0.
        -12    1    1    2    0    0 -0.31659393378E+02  0.26122175487E+01 -0.27524478913E+01  0.31885997538E+02  0.00000000000E+00 0.  1.
         11    1    3    3    0    0  0.45593493038E+01 -0.16530723531E+01 -0.82654924426E+00  0.49197050921E+01  0.51100000000E-03 0. -1.
        -11    1    3    3    0    0 -0.87367981734E+01 -0.72281344895E+01 -0.10421032281E+02  0.15400502738E+02  0.51100000000E-03 0.  1.
         12    1    3    3    0    0  0.35836842248E+02  0.62689892939E+01  0.14000029417E+02  0.38981794632E+02  0.00000000000E+00 0. -1.
</event>
<event>
 7    1  0.1335379E-011  0.5930195E+02  0.7816164E-02  0.1266605E+00
        -11   -1    0    0    0    0  0.00000000000E+00  0.00000000000E+00  0.45593999997E+02  0.45594000000E+02  0.51100000000E-03 0.  1.
         11   -1    0    0    0    0 -0.00000000000E+00 -0.00000000000E+00 -0.45593999997E+02  0.45594000000E+02  0.51100000000E-03 0. -1.
    9900012    2    1    2    0    0  0.24589290966E+02  0.11397547716E+02 -0.16798291608E+02  0.59301954070E+02  0.50000018314E+02 0.  0.
        -12    1    1    2    0    0 -0.24589290966E+02 -0.11397547716E+02  0.16798291608E+02  0.31886045930E+02  0.00000000000E+00 0.  1.
         11    1    3    3    0    0 -0.13621433092E+01 -0.59147810612E+01 -0.18233262914E+01  0.63375538201E+01  0.51100000000E-03 0. -1.
        -11    1    3    3    0    0  0.18783556777E+02  0.28725672255E+01  0.11322089963E+02  0.22119298566E+02  0.51100000000E-03 0.  1.
        -12    1    3    3    0    0  0.71678774982E+01  0.14439761552E+02 -0.26297055280E+02  0.30845101684E+02  0.00000000000E+00 0.  1.
</event>
<event>
 7    1  0.1335379E-011  0.5930194E+02  0.7816164E-02  0.1266605E+00
        -11   -1    0    0    0    0  0.00000000000E+00  0.00000000000E+00  0.45593999997E+02  0.45594000000E+02  0.51100000000E-03 0.  1.
         11   -1    0    0    0    0 -0.00000000000E+00 -0.00000000000E+00 -0.45593999997E+02  0.45594000000E+02  0.51100000000E-03 0. -1.
    9900012    2    1    2    0    0 -0.53520520571E+01 -0.29601228698E+02  0.10575601657E+02  0.59301944238E+02  0.50000000384E+02 0.  0.
        -12    1    1    2    0    0  0.53520520571E+01  0.29601228698E+02 -0.10575601657E+02  0.31886055762E+02  0.00000000000E+00 0.  1.
         11    1    3    3    0    0  0.99780846872E+01 -0.44648764576E+01 -0.10101004350E+02  0.14883802772E+02  0.51100000000E-03 0. -1.
        -11    1    3    3    0    0  0.20629594161E+01 -0.21098424296E+02  0.86831733888E+01  0.22908444070E+02  0.51100000000E-03 0.  1.
        -12    1    3    3    0    0 -0.17393096161E+02 -0.40379279436E+01  0.11993432618E+02  0.21509697397E+02  0.00000000000E+00 0.  1.
</event>
<event>
 7    1  0.1335379E-011  0.5930194E+02  0.7816164E-02  0.1266605E+00
        -11   -1    0    0    0    0  0.00000000000E+00  0.00000000000E+00  0.45593999997E+02  0.45594000000E+02  0.51100000000E-03 0.  1.
         11   -1    0    0    0    0 -0.00000000000E+00 -0.00000000000E+00 -0.45593999997E+02  0.45594000000E+02  0.51100000000E-03 0. -1.
    9900012    2    1    2    0    0 -0.30952921237E+02 -0.54376590672E+01  0.53915889079E+01  0.59301941915E+02  0.49999996147E+02 0.  0.
        -12    1    1    2    0    0  0.30952921237E+02  0.54376590672E+01 -0.53915889079E+01  0.31886058085E+02  0.00000000000E+00 0.  1.
         11    1    3    3    0    0 -0.32955889974E+02  0.33065111776E+01  0.10030431410E+01  0.33136532648E+02  0.51100000000E-03 0. -1.
        -11    1    3    3    0    0  0.87024681200E+01  0.39927159578E+01  0.65666413568E+01  0.11610146901E+02  0.51100000000E-03 0.  1.
         12    1    3    3    0    0 -0.66994993834E+01 -0.12736886203E+02 -0.21780955899E+01  0.14555262365E+02  0.00000000000E+00 0. -1.
</event>
<event>
 7    1  0.1335379E-011  0.5930190E+02  0.7816164E-02  0.1266605E+00
        -11   -1    0    0    0    0  0.00000000000E+00  0.00000000000E+00  0.45593999997E+02  0.45594000000E+02  0.51100000000E-03 0. -1.
         11   -1    0    0    0    0 -0.00000000000E+00 -0.00000000000E+00 -0.45593999997E+02  0.45594000000E+02  0.51100000000E-03 0.  1.
    9900012    2    1    2    0    0 -0.42665246869E+01  0.11782022405E+02  0.29320713003E+02  0.59301898077E+02  0.49999916197E+02 0.  0.
        -12    1    1    2    0    0  0.42665246869E+01 -0.11782022405E+02 -0.29320713003E+02  0.31886101923E+02  0.00000000000E+00 0.  1.
         11    1    3    3    0    0  0.10062865833E+02  0.37903575009E+01 -0.14777611173E+00  0.10754065129E+02  0.51100000000E-03 0. -1.
        -11    1    3    3    0    0  0.96825851395E+01  0.53682156390E+01  0.85804580252E+00  0.11104343159E+02  0.51100000000E-03 0.  1.
        -12    1    3    3    0    0 -0.24011975659E+02  0.26234492647E+01  0.28610443312E+02  0.37443489789E+02  0.00000000000E+00 0.  1.
</event>
<event>
 7    1  0.1335379E-011  0.5930183E+02  0.7816164E-02  0.1266605E+00
        -11   -1    0    0    0    0  0.00000000000E+00  0.00000000000E+00  0.45593999997E+02  0.45594000000E+02  0.51100000000E-03 0.  1.
         11   -1    0    0    0    0 -0.00000000000E+00 -0.00000000000E+00 -0.45593999997E+02  0.45594000000E+02  0.51100000000E-03 0. -1.
    9900012    2    1    2    0    0 -0.12343751598E+02  0.20215497279E+02 -0.21346967108E+02  0.59301834685E+02  0.49999800586E+02 0.  0.
        -12    1    1    2    0    0  0.12343751598E+02 -0.20215497279E+02  0.21346967108E+02  0.31886165315E+02  0.00000000000E+00 0.  1.
         11    1    3    3    0    0 -0.29675484929E+02  0.18230834467E+02 -0.95773260757E+01  0.36120948301E+02  0.51100000000E-03 0. -1.
        -11    1    3    3    0    0  0.47349436856E+01 -0.36761618884E+01 -0.22287782549E+01  0.63954132553E+01  0.51100000000E-03 0.  1.
        -12    1    3    3    0    0  0.12596789645E+02  0.56608247008E+01 -0.95408627770E+01  0.16785473129E+02  0.00000000000E+00 0.  1.
</event>
<event>
 7    1  0.1399546E-011  0.5930195E+02  0.7816164E-02  0.1266605E+00
        -11   -1    0    0    0    0  0.00000000000E+00  0.00000000000E+00  0.45593999997E+02  0.45594000000E+02  0.51100000000E-03 0. -1.
         11   -1    0    0    0    0 -0.00000000000E+00 -0.00000000000E+00 -0.45593999997E+02  0.45594000000E+02  0.51100000000E-03 0.  1.
    9900012    2    1    2    0    0 -0.16859236145E+01  0.20184416914E+02  0.24626559129E+02  0.59301946009E+02  0.50000003613E+02 0.  0.
        -12    1    1    2    0    0  0.16859236145E+01 -0.20184416914E+02 -0.24626559129E+02  0.31886053991E+02  0.00000000000E+00 0.  1.
         11    1    3    3    0    0  0.18804319652E+01  0.11598980207E+02  0.24966916201E+02  0.27593826684E+02  0.51100000000E-03 0. -1.
        -11    1    3    3    0    0 -0.68130459821E+01  0.15354832581E+02  0.95249366143E+01  0.19310952771E+02  0.51100000000E-03 0.  1.
        -12    1    3    3    0    0  0.32466904024E+01 -0.67693958740E+01 -0.98652936858E+01  0.12397166554E+02  0.00000000000E+00 0.  1.
</event>
<event>
 7    1  0.1335379E-011  0.5930193E+02  0.7816164E-02  0.1266605E+00
        -11   -1    0    0    0    0  0.00000000000E+00  0.00000000000E+00  0.45593999997E+02  0.45594000000E+02  0.51100000000E-03 0.  1.
         11   -1    0    0    0    0 -0.00000000000E+00 -0.00000000000E+00 -0.45593999997E+02  0.45594000000E+02  0.51100000000E-03 0. -1.
    9900012    2    1    2    0    0 -0.26442038688E+02 -0.83784968778E+01 -0.15727073090E+02  0.59301930191E+02  0.49999974765E+02 0.  0.
        -12    1    1    2    0    0  0.26442038688E+02  0.83784968778E+01  0.15727073090E+02  0.31886069809E+02  0.00000000000E+00 0.  1.
         11    1    3    3    0    0  0.30629174606E+01  0.23899984696E+00 -0.99094924629E+01  0.10374807248E+02  0.51100000000E-03 0. -1.
        -11    1    3    3    0    0 -0.63196649437E+01 -0.19644747779E+02 -0.99716382135E+01  0.22919158999E+02  0.51100000000E-03 0.  1.
        -12    1    3    3    0    0 -0.23185291205E+02  0.11027251055E+02  0.41540575867E+01  0.26007963944E+02  0.00000000000E+00 0.  1.
</event>
<event>
 7    1  0.1335379E-011  0.5930197E+02  0.7816164E-02  0.1266605E+00
        -11   -1    0    0    0    0  0.00000000000E+00  0.00000000000E+00  0.45593999997E+02  0.45594000000E+02  0.51100000000E-03 0.  1.
         11   -1    0    0    0    0 -0.00000000000E+00 -0.00000000000E+00 -0.45593999997E+02  0.45594000000E+02  0.51100000000E-03 0. -1.
    9900012    2    1    2    0    0 -0.23602888758E+02 -0.70935103768E+01 -0.20231275634E+02  0.59301972324E+02  0.50000051605E+02 0.  0.
        -12    1    1    2    0    0  0.23602888758E+02  0.70935103768E+01  0.20231275634E+02  0.31886027676E+02  0.00000000000E+00 0.  1.
         11    1    3    3    0    0 -0.11497424489E+02 -0.21492931245E+02 -0.27614406492E+02  0.36833304353E+02  0.51100000000E-03 0. -1.
        -11    1    3    3    0    0 -0.15759583841E+01 -0.14651441977E+01  0.40629603746E+00  0.21898331168E+01  0.51100000000E-03 0.  1.
        -12    1    3    3    0    0 -0.10529505886E+02  0.15864565066E+02  0.69768348208E+01  0.20278834854E+02  0.00000000000E+00 0.  1.
</event>
<event>
 7    1  0.1335379E-011  0.5930195E+02  0.7816164E-02  0.1266605E+00
        -11   -1    0    0    0    0  0.00000000000E+00  0.00000000000E+00  0.45593999997E+02  0.45594000000E+02  0.51100000000E-03 0. -1.
         11   -1    0    0    0    0 -0.00000000000E+00 -0.00000000000E+00 -0.45593999997E+02  0.45594000000E+02  0.51100000000E-03 0.  1.
    9900012    2    1    2    0    0 -0.45353513074E+01  0.31230627590E+02 -0.45605634242E+01  0.59301948976E+02  0.50000009025E+02 0.  0.
        -12    1    1    2    0    0  0.45353513074E+01 -0.31230627590E+02  0.45605634242E+01  0.31886051024E+02  0.00000000000E+00 0.  1.
         11    1    3    3    0    0 -0.26689598388E+01  0.53629048448E+01  0.17096414073E+02  0.18115503565E+02  0.51100000000E-03 0. -1.
        -11    1    3    3    0    0 -0.81993200412E+01  0.87552003882E-01 -0.29652248479E+01  0.87194651872E+01  0.51100000000E-03 0.  1.
        -12    1    3    3    0    0  0.63329285726E+01  0.25780170741E+02 -0.18691752649E+02  0.32466980224E+02  0.00000000000E+00 0.  1.
</event>
<event>
 7    1  0.1335379E-011  0.5930194E+02  0.7816164E-02  0.1266605E+00
        -11   -1    0    0    0    0  0.00000000000E+00  0.00000000000E+00  0.45593999997E+02  0.45594000000E+02  0.51100000000E-03 0.  1.
         11   -1    0    0    0    0 -0.00000000000E+00 -0.00000000000E+00 -0.45593999997E+02  0.45594000000E+02  0.51100000000E-03 0. -1.
    9900012    2    1    2    0    0  0.29762955161E+02 -0.11395882253E+02  0.10104412522E+01  0.59301943114E+02  0.49999998333E+02 0.  0.
        -12    1    1    2    0    0 -0.29762955161E+02  0.11395882253E+02 -0.10104412522E+01  0.31886056886E+02  0.00000000000E+00 0.  1.
         11    1    3    3    0    0  0.70941291433E+01 -0.81099653557E+01 -0.16591830065E+02  0.19783504026E+02  0.51100000000E-03 0. -1.
        -11    1    3    3    0    0 -0.35464650243E+01 -0.64579319296E+01  0.92436029304E+01  0.11820596194E+02  0.51100000000E-03 0.  1.
         12    1    3    3    0    0  0.26215291042E+02  0.31720150323E+01  0.83586683869E+01  0.27697842894E+02  0.00000000000E+00 0. -1.
</event>
<event>
 7    1  0.1335379E-011  0.5930187E+02  0.7816164E-02  0.1266605E+00
        -11   -1    0    0    0    0  0.00000000000E+00  0.00000000000E+00  0.45593999997E+02  0.45594000000E+02  0.51100000000E-03 0.  1.
         11   -1    0    0    0    0 -0.00000000000E+00 -0.00000000000E+00 -0.45593999997E+02  0.45594000000E+02  0.51100000000E-03 0. -1.
    9900012    2    1    2    0    0  0.32896943021E+01 -0.21013441291E+02 -0.23755814164E+02  0.59301866492E+02  0.49999858594E+02 0.  0.
        -12    1    1    2    0    0 -0.32896943021E+01  0.21013441291E+02  0.23755814164E+02  0.31886133508E+02  0.00000000000E+00 0.  1.
         11    1    3    3    0    0  0.38561240003E+00 -0.12317695163E+02 -0.22557437784E+02  0.25704324747E+02  0.51100000000E-03 0. -1.
        -11    1    3    3    0    0  0.29533912777E+01 -0.20939957849E+02 -0.24535503480E+01  0.21289064431E+02  0.51100000000E-03 0.  1.
        -12    1    3    3    0    0 -0.49309375638E-01  0.12244211722E+02  0.12551739679E+01  0.12308477314E+02  0.00000000000E+00 0.  1.
</event>
<event>
 7    1  0.1335379E-011  0.5930193E+02  0.7816164E-02  0.1266605E+00
        -11   -1    0    0    0    0  0.00000000000E+00  0.00000000000E+00  0.45593999997E+02  0.45594000000E+02  0.51100000000E-03 0. -1.
         11   -1    0    0    0    0 -0.00000000000E+00 -0.00000000000E+00 -0.45593999997E+02  0.45594000000E+02  0.51100000000E-03 0.  1.
    9900012    2    1    2    0    0 -0.26689430851E+02 -0.46991660326E+01  0.16802192294E+02  0.59301928645E+02  0.49999971946E+02 0.  0.
        -12    1    1    2    0    0  0.26689430851E+02  0.46991660326E+01 -0.16802192294E+02  0.31886071355E+02  0.00000000000E+00 0.  1.
         11    1    3    3    0    0  0.29744515926E+01 -0.58519675361E+01  0.23572910164E+02  0.24469879039E+02  0.51100000000E-03 0. -1.
        -11    1    3    3    0    0 -0.53861668604E+01  0.96411734044E+00 -0.89137331079E+01  0.10459204266E+02  0.51100000000E-03 0.  1.
        -12    1    3    3    0    0 -0.24277715584E+02  0.18868416313E+00  0.21430152379E+01  0.24372845340E+02  0.00000000000E+00 0.  1.
</event>
<event>
 7    1  0.1335379E-011  0.5930195E+02  0.7816164E-02  0.1266605E+00
        -11   -1    0    0    0    0  0.00000000000E+00  0.00000000000E+00  0.45593999997E+02  0.45594000000E+02  0.51100000000E-03 0.  1.
         11   -1    0    0    0    0 -0.00000000000E+00 -0.00000000000E+00 -0.45593999997E+02  0.45594000000E+02  0.51100000000E-03 0. -1.
    9900012    2    1    2    0    0  0.30341583414E+02 -0.96450072112E+01  0.17557130598E+01  0.59301946990E+02  0.50000005403E+02 0.  0.
        -12    1    1    2    0    0 -0.30341583414E+02  0.96450072112E+01 -0.17557130598E+01  0.31886053010E+02  0.00000000000E+00 0.  1.
         11    1    3    3    0    0 -0.70625095963E+01  0.37769642896E+00  0.58707641732E-01  0.70728454839E+01  0.51100000000E-03 0.  1.
        -11    1    3    3    0    0  0.46761802384E+01 -0.16671035640E+02 -0.53003465600E+01  0.18107560985E+02  0.51100000000E-03 0. -1.
        -12    1    3    3    0    0  0.32727912772E+02  0.66483319995E+01  0.69973519781E+01  0.34121540521E+02  0.00000000000E+00 0.  1.
</event>
<event>
 7    1  0.1335379E-011  0.5930190E+02  0.7816164E-02  0.1266605E+00
        -11   -1    0    0    0    0  0.00000000000E+00  0.00000000000E+00  0.45593999997E+02  0.45594000000E+02  0.51100000000E-03 0. -1.
         11   -1    0    0    0    0 -0.00000000000E+00 -0.00000000000E+00 -0.45593999997E+02  0.45594000000E+02  0.51100000000E-03 0.  1.
    9900012    2    1    2    0    0 -0.12946706330E+02  0.80461499550E+01  0.28006527054E+02  0.59301901281E+02  0.49999922040E+02 0.  0.
        -12    1    1    2    0    0  0.12946706330E+02 -0.80461499550E+01 -0.28006527054E+02  0.31886098719E+02  0.00000000000E+00 0.  1.
         11    1    3    3    0    0 -0.16356196349E+02 -0.96599799171E+01  0.21189316337E+02  0.28457468230E+02  0.51100000000E-03 0. -1.
        -11    1    3    3    0    0 -0.79671251931E+01  0.15944557802E+02  0.74416174226E+01  0.19315322349E+02  0.51100000000E-03 0.  1.
        -12    1    3    3    0    0  0.11376615211E+02  0.17615720704E+01 -0.62440670582E+00  0.11529110701E+02  0.00000000000E+00 0.  1.
</event>
<event>
 7    1  0.1335379E-011  0.5930193E+02  0.7816164E-02  0.1266605E+00
        -11   -1    0    0    0    0  0.00000000000E+00  0.00000000000E+00  0.45593999997E+02  0.45594000000E+02  0.51100000000E-03 0. -1.
         11   -1    0    0    0    0 -0.00000000000E+00 -0.00000000000E+00 -0.45593999997E+02  0.45594000000E+02  0.51100000000E-03 0.  1.
    9900012    2    1    2    0    0  0.28031803090E+02 -0.89644335267E+01 -0.12271032443E+02  0.59301932664E+02  0.49999979276E+02 0.  0.
        -12    1    1    2    0    0 -0.28031803090E+02  0.89644335267E+01  0.12271032443E+02  0.31886067336E+02  0.00000000000E+00 0.  1.
         11    1    3    3    0    0  0.19371282769E+02 -0.43260757479E+01  0.87309839997E+01  0.21683902079E+02  0.51100000000E-03 0. -1.
        -11    1    3    3    0    0  0.48015901204E+01 -0.17304966071E+02 -0.11633173943E+02  0.21397379621E+02  0.51100000000E-03 0.  1.
         12    1    3    3    0    0  0.38589302000E+01  0.12666608292E+02 -0.93688425001E+01  0.16220650965E+02  0.00000000000E+00 0. -1.
</event>
<event>
 7    1  0.1335379E-011  0.5930195E+02  0.7816164E-02  0.1266605E+00
        -11   -1    0    0    0    0  0.00000000000E+00  0.00000000000E+00  0.45593999997E+02  0.45594000000E+02  0.51100000000E-03 0.  1.
         11   -1    0    0    0    0 -0.00000000000E+00 -0.00000000000E+00 -0.45593999997E+02  0.45594000000E+02  0.51100000000E-03 0. -1.
    9900012    2    1    2    0    0 -0.25166104339E+02  0.17148348895E+02 -0.94510175291E+01  0.59301946469E+02  0.50000004452E+02 0.  0.
        -12    1    1    2    0    0  0.25166104339E+02 -0.17148348895E+02  0.94510175291E+01  0.31886053531E+02  0.00000000000E+00 0.  1.
         11    1    3    3    0    0 -0.40517984545E+01 -0.82656701556E+01  0.35398174766E+01  0.98624886244E+01  0.51100000000E-03 0. -1.
        -11    1    3    3    0    0 -0.28482043109E+01 -0.69729549199E+01  0.40338705742E+01  0.85443829609E+01  0.51100000000E-03 0.  1.
         12    1    3    3    0    0 -0.18266101574E+02  0.32386973970E+02 -0.17024705580E+02  0.40895074884E+02  0.00000000000E+00 0. -1.
</event>
<event>
 7    1  0.1335379E-011  0.5930196E+02  0.7816164E-02  0.1266605E+00
        -11   -1    0    0    0    0  0.00000000000E+00  0.00000000000E+00  0.45593999997E+02  0.45594000000E+02  0.51100000000E-03 0.  1.
         11   -1    0    0    0    0 -0.00000000000E+00 -0.00000000000E+00 -0.45593999997E+02  0.45594000000E+02  0.51100000000E-03 0. -1.
    9900012    2    1    2    0    0  0.99898322790E+01  0.23205536975E+02  0.19453165264E+02  0.59301963337E+02  0.50000035216E+02 0.  0.
        -12    1    1    2    0    0 -0.99898322790E+01 -0.23205536975E+02 -0.19453165264E+02  0.31886036663E+02  0.00000000000E+00 0.  1.
         11    1    3    3    0    0 -0.70413323303E+00  0.15257237717E+01 -0.30343773422E+01  0.34685851227E+01  0.51100000000E-03 0. -1.
        -11    1    3    3    0    0  0.21165465116E+01  0.60838733996E+01 -0.13903231602E+02  0.15322961004E+02  0.51100000000E-03 0.  1.
        -12    1    3    3    0    0  0.85774190004E+01  0.15595939803E+02  0.36390774209E+02  0.40510417211E+02  0.00000000000E+00 0.  1.
</event>
<event>
 7    1  0.1335379E-011  0.5930192E+02  0.7816164E-02  0.1266605E+00
        -11   -1    0    0    0    0  0.00000000000E+00  0.00000000000E+00  0.45593999997E+02  0.45594000000E+02  0.51100000000E-03 0.  1.
         11   -1    0    0    0    0 -0.00000000000E+00 -0.00000000000E+00 -0.45593999997E+02  0.45594000000E+02  0.51100000000E-03 0. -1.
    9900012    2    1    2    0    0 -0.10488343926E+02 -0.85468614714E+01 -0.28873312885E+02  0.59301915319E+02  0.49999947642E+02 0.  0.
        -12    1    1    2    0    0  0.10488343926E+02  0.85468614714E+01  0.28873312885E+02  0.31886084681E+02  0.00000000000E+00 0.  1.
         11    1    3    3    0    0 -0.20163840715E+02 -0.17517592608E+02 -0.46969261005E+01  0.27120244066E+02  0.51100000000E-03 0.  1.
        -11    1    3    3    0    0 -0.45723589765E+01  0.81927617340E+00 -0.71896334237E+01  0.85597026284E+01  0.51100000000E-03 0. -1.
         12    1    3    3    0    0  0.14247855765E+02  0.81514549637E+01 -0.16986753361E+02  0.23621968624E+02  0.00000000000E+00 0. -1.
</event>
<event>
 7    1  0.1335379E-011  0.5930198E+02  0.7816164E-02  0.1266605E+00
        -11   -1    0    0    0    0  0.00000000000E+00  0.00000000000E+00  0.45593999997E+02  0.45594000000E+02  0.51100000000E-03 0.  1.
         11   -1    0    0    0    0 -0.00000000000E+00 -0.00000000000E+00 -0.45593999997E+02  0.45594000000E+02  0.51100000000E-03 0. -1.
    9900012    2    1    2    0    0 -0.26390110369E+02  0.15741652283E+02 -0.85135561415E+01  0.59301981433E+02  0.50000068219E+02 0.  0.
        -12    1    1    2    0    0  0.26390110369E+02 -0.15741652283E+02  0.85135561415E+01  0.31886018567E+02  0.00000000000E+00 0.  1.
         11    1    3    3    0    0 -0.18551480390E+02 -0.44795599861E+01  0.46164896223E+01  0.19635067075E+02  0.51100000000E-03 0. -1.
        -11    1    3    3    0    0  0.42435132576E+01 -0.36251945254E+01  0.48962346743E+01  0.74244565028E+01  0.51100000000E-03 0.  1.
         12    1    3    3    0    0 -0.12082143236E+02  0.23846406794E+02 -0.18026280438E+02  0.32242457856E+02  0.00000000000E+00 0. -1.
</event>
<event>
 7    1  0.1335379E-011  0.5930195E+02  0.7816164E-02  0.1266605E+00
        -11   -1    0    0    0    0  0.00000000000E+00  0.00000000000E+00  0.45593999997E+02  0.45594000000E+02  0.51100000000E-03 0. -1.
         11   -1    0    0    0    0 -0.00000000000E+00 -0.00000000000E+00 -0.45593999997E+02  0.45594000000E+02  0.51100000000E-03 0.  1.
    9900012    2    1    2    0    0 -0.16044083878E+02  0.23597229081E+02 -0.14229496971E+02  0.59301946123E+02  0.50000003821E+02 0.  0.
        -12    1    1    2    0    0  0.16044083878E+02 -0.23597229081E+02  0.14229496971E+02  0.31886053877E+02  0.00000000000E+00 0.  1.
         11    1    3    3    0    0 -0.16285673515E+02  0.13890829530E+02  0.43941761560E+01  0.21851478010E+02  0.51100000000E-03 0. -1.
        -11    1    3    3    0    0  0.12810898686E+01  0.20430498812E+02 -0.70813291605E+01  0.21660833223E+02  0.51100000000E-03 0.  1.
         12    1    3    3    0    0 -0.10395002314E+01 -0.10724099261E+02 -0.11542343967E+02  0.15789634890E+02  0.00000000000E+00 0. -1.
</event>
<event>
 7    1  0.1335379E-011  0.5930195E+02  0.7816164E-02  0.1266605E+00
        -11   -1    0    0    0    0  0.00000000000E+00  0.00000000000E+00  0.45593999997E+02  0.45594000000E+02  0.51100000000E-03 0.  1.
         11   -1    0    0    0    0 -0.00000000000E+00 -0.00000000000E+00 -0.45593999997E+02  0.45594000000E+02  0.51100000000E-03 0. -1.
    9900012    2    1    2    0    0 -0.15369516079E+02 -0.27286548597E+02  0.59952052742E+01  0.59301949051E+02  0.50000009161E+02 0.  0.
        -12    1    1    2    0    0  0.15369516079E+02  0.27286548597E+02 -0.59952052742E+01  0.31886050949E+02  0.00000000000E+00 0.  1.
         11    1    3    3    0    0  0.57310387631E+01 -0.13196855033E+00  0.29491765430E+01  0.64466940012E+01  0.51100000000E-03 0. -1.
        -11    1    3    3    0    0  0.96874088563E+01 -0.15895173896E+02  0.68892664437E+01  0.19848537375E+02  0.51100000000E-03 0.  1.
         12    1    3    3    0    0 -0.30787963698E+02 -0.11259406151E+02 -0.38432377126E+01  0.33006717675E+02  0.00000000000E+00 0. -1.
</event>
<event>
 7    1  0.1335379E-011  0.5930195E+02  0.7816164E-02  0.1266605E+00
        -11   -1    0    0    0    0  0.00000000000E+00  0.00000000000E+00  0.45593999997E+02  0.45594000000E+02  0.51100000000E-03 0. -1.
         11   -1    0    0    0    0 -0.00000000000E+00 -0.00000000000E+00 -0.45593999997E+02  0.45594000000E+02  0.51100000000E-03 0.  1.
    9900012    2    1    2    0    0 -0.24756705896E+02 -0.19830696535E+02  0.32510081382E+01  0.59301951863E+02  0.50000014290E+02 0.  0.
        -12    1    1    2    0    0  0.24756705896E+02  0.19830696535E+02 -0.32510081382E+01  0.31886048137E+02  0.00000000000E+00 0.  1.
         11    1    3    3    0    0 -0.93666477080E+01  0.26703564846E+01  0.36326557971E+01  0.10395243212E+02  0.51100000000E-03 0. -1.
        -11    1    3    3    0    0 -0.90523913933E+01 -0.79121412751E+00 -0.18049380989E+02  0.20207720408E+02  0.51100000000E-03 0.  1.
         12    1    3    3    0    0 -0.63376667945E+01 -0.21709838892E+02  0.17667733331E+02  0.28698988243E+02  0.00000000000E+00 0. -1.
</event>
<event>
 7    1  0.1335379E-011  0.5930193E+02  0.7816164E-02  0.1266605E+00
        -11   -1    0    0    0    0  0.00000000000E+00  0.00000000000E+00  0.45593999997E+02  0.45594000000E+02  0.51100000000E-03 0.  1.
         11   -1    0    0    0    0 -0.00000000000E+00 -0.00000000000E+00 -0.45593999997E+02  0.45594000000E+02  0.51100000000E-03 0. -1.
    9900012    2    1    2    0    0 -0.11275441929E+02  0.29197166940E+02  0.60919127242E+01  0.59301928611E+02  0.49999971883E+02 0.  0.
        -12    1    1    2    0    0  0.11275441929E+02 -0.29197166940E+02 -0.60919127242E+01  0.31886071389E+02  0.00000000000E+00 0.  1.
         11    1    3    3    0    0 -0.97213587605E+00  0.17171658172E+02  0.15657895347E+02  0.23258989219E+02  0.51100000000E-03 0. -1.
        -11    1    3    3    0    0 -0.38583161969E+01 -0.18853745977E+01  0.10177170003E+02  0.11046086673E+02  0.51100000000E-03 0.  1.
         12    1    3    3    0    0 -0.64449898559E+01  0.13910883365E+02 -0.19743152626E+02  0.24996852719E+02  0.00000000000E+00 0. -1.
</event>
<event>
 7    1  0.1335379E-011  0.5930221E+02  0.7816164E-02  0.1266604E+00
        -11   -1    0    0    0    0  0.00000000000E+00  0.00000000000E+00  0.45593999997E+02  0.45594000000E+02  0.51100000000E-03 0. -1.
         11   -1    0    0    0    0 -0.00000000000E+00 -0.00000000000E+00 -0.45593999997E+02  0.45594000000E+02  0.51100000000E-03 0.  1.
    9900012    2    1    2    0    0  0.18647261308E+02  0.11070873222E+02  0.23375611349E+02  0.59302207017E+02  0.50000479627E+02 0.  0.
        -12    1    1    2    0    0 -0.18647261308E+02 -0.11070873222E+02 -0.23375611349E+02  0.31885792983E+02  0.00000000000E+00 0.  1.
         11    1    3    3    0    0  0.13728323824E+02 -0.69121887560E+01 -0.35522158521E+01  0.15775407004E+02  0.51100000000E-03 0. -1.
        -11    1    3    3    0    0  0.52750075575E+01  0.18595332829E+02  0.29669201911E+01  0.19555426956E+02  0.51100000000E-03 0.  1.
        -12    1    3    3    0    0 -0.35607007304E+00 -0.61227085130E+00  0.23960907010E+02  0.23971373057E+02  0.00000000000E+00 0.  1.
</event>
<event>
 7    1  0.1335379E-011  0.5930196E+02  0.7816164E-02  0.1266605E+00
        -11   -1    0    0    0    0  0.00000000000E+00  0.00000000000E+00  0.45593999997E+02  0.45594000000E+02  0.51100000000E-03 0.  1.
         11   -1    0    0    0    0 -0.00000000000E+00 -0.00000000000E+00 -0.45593999997E+02  0.45594000000E+02  0.51100000000E-03 0. -1.
    9900012    2    1    2    0    0  0.15033905556E+01 -0.28537647831E+02 -0.14144320372E+02  0.59301963469E+02  0.50000035456E+02 0.  0.
        -12    1    1    2    0    0 -0.15033905556E+01  0.28537647831E+02  0.14144320372E+02  0.31886036531E+02  0.00000000000E+00 0.  1.
         11    1    3    3    0    0 -0.67213725481E+01 -0.20746960369E+02 -0.13377091366E+01  0.21849546436E+02  0.51100000000E-03 0. -1.
        -11    1    3    3    0    0  0.35062982401E+01 -0.11474769040E+02  0.88977148770E+01  0.14937663209E+02  0.51100000000E-03 0.  1.
         12    1    3    3    0    0  0.47184648636E+01  0.36840815777E+01 -0.21704326112E+02  0.22514753823E+02  0.00000000000E+00 0. -1.
</event>
<event>
 7    1  0.1335379E-011  0.5930194E+02  0.7816164E-02  0.1266605E+00
        -11   -1    0    0    0    0  0.00000000000E+00  0.00000000000E+00  0.45593999997E+02  0.45594000000E+02  0.51100000000E-03 0. -1.
         11   -1    0    0    0    0 -0.00000000000E+00 -0.00000000000E+00 -0.45593999997E+02  0.45594000000E+02  0.51100000000E-03 0.  1.
    9900012    2    1    2    0    0 -0.18732854568E+02  0.25783589253E+02 -0.10036913488E+01  0.59301941739E+02  0.49999995827E+02 0.  0.
        -12    1    1    2    0    0  0.18732854568E+02 -0.25783589253E+02  0.10036913488E+01  0.31886058261E+02  0.00000000000E+00 0.  1.
         11    1    3    3    0    0 -0.14749554499E+02  0.22140579846E+02  0.54395817766E+01  0.27154073065E+02  0.51100000000E-03 0. -1.
        -11    1    3    3    0    0 -0.17555213640E+02  0.30956019828E+01 -0.24745276731E+01  0.17996987666E+02  0.51100000000E-03 0.  1.
         12    1    3    3    0    0  0.13571913571E+02  0.54740742475E+00 -0.39687454523E+01  0.14150881009E+02  0.00000000000E+00 0. -1.
</event>
<event>
 7    1  0.1335379E-011  0.5930193E+02  0.7816164E-02  0.1266605E+00
        -11   -1    0    0    0    0  0.00000000000E+00  0.00000000000E+00  0.45593999997E+02  0.45594000000E+02  0.51100000000E-03 0.  1.
         11   -1    0    0    0    0 -0.00000000000E+00 -0.00000000000E+00 -0.45593999997E+02  0.45594000000E+02  0.51100000000E-03 0. -1.
    9900012    2    1    2    0    0  0.92482998730E+01 -0.18405436121E+02 -0.24339888816E+02  0.59301932244E+02  0.49999978510E+02 0.  0.
        -12    1    1    2    0    0 -0.92482998730E+01  0.18405436121E+02  0.24339888816E+02  0.31886067756E+02  0.00000000000E+00 0.  1.
         11    1    3    3    0    0 -0.28215204460E+01  0.12355578216E+02  0.26242948455E+00  0.12676362261E+02  0.51100000000E-03 0. -1.
        -11    1    3    3    0    0 -0.30343429229E+01 -0.59318198928E+01  0.22744818713E+01  0.70403829625E+01  0.51100000000E-03 0.  1.
         12    1    3    3    0    0  0.15104163242E+02 -0.24829194444E+02 -0.26876800172E+02  0.39585187021E+02  0.00000000000E+00 0. -1.
</event>
<event>
 7    1  0.1335379E-011  0.5930188E+02  0.7816164E-02  0.1266605E+00
        -11   -1    0    0    0    0  0.00000000000E+00  0.00000000000E+00  0.45593999997E+02  0.45594000000E+02  0.51100000000E-03 0.  1.
         11   -1    0    0    0    0 -0.00000000000E+00 -0.00000000000E+00 -0.45593999997E+02  0.45594000000E+02  0.51100000000E-03 0. -1.
    9900012    2    1    2    0    0 -0.31084061811E+02  0.58936518112E+01 -0.39711881193E+01  0.59301884441E+02  0.49999891328E+02 0.  0.
        -12    1    1    2    0    0  0.31084061811E+02 -0.58936518112E+01  0.39711881193E+01  0.31886115559E+02  0.00000000000E+00 0.  1.
         11    1    3    3    0    0 -0.56352579739E+01 -0.16259384292E+01 -0.14894035724E+02  0.16007251751E+02  0.51100000000E-03 0. -1.
        -11    1    3    3    0    0 -0.31481168633E+02  0.11846074586E+02  0.54569745367E+01  0.34075974424E+02  0.51100000000E-03 0.  1.
         12    1    3    3    0    0  0.60323647962E+01 -0.43264843455E+01  0.54658730680E+01  0.92186582658E+01  0.00000000000E+00 0. -1.
</event>
<event>
 7    1  0.1335379E-011  0.5930194E+02  0.7816164E-02  0.1266605E+00
        -11   -1    0    0    0    0  0.00000000000E+00  0.00000000000E+00  0.45593999997E+02  0.45594000000E+02  0.51100000000E-03 0. -1.
         11   -1    0    0    0    0 -0.00000000000E+00 -0.00000000000E+00 -0.45593999997E+02  0.45594000000E+02  0.51100000000E-03 0.  1.
    9900012    2    1    2    0    0  0.28468147789E+02  0.12172153420E+02 -0.76239168856E+01  0.59301939314E+02  0.49999991403E+02 0.  0.
        -12    1    1    2    0    0 -0.28468147789E+02 -0.12172153420E+02  0.76239168856E+01  0.31886060686E+02  0.00000000000E+00 0.  1.
         11    1    3    3    0    0  0.10868404662E+02 -0.94615132351E+01 -0.70768100964E+01  0.16053775070E+02  0.51100000000E-03 0. -1.
        -11    1    3    3    0    0  0.11267916609E+02 -0.71328967040E+01 -0.30716627694E+01  0.13685001736E+02  0.51100000000E-03 0.  1.
         12    1    3    3    0    0  0.63318265173E+01  0.28766563359E+02  0.25245559802E+01  0.29563162507E+02  0.00000000000E+00 0. -1.
</event>
<event>
 7    1  0.1335379E-011  0.5930196E+02  0.7816164E-02  0.1266605E+00
        -11   -1    0    0    0    0  0.00000000000E+00  0.00000000000E+00  0.45593999997E+02  0.45594000000E+02  0.51100000000E-03 0.  1.
         11   -1    0    0    0    0 -0.00000000000E+00 -0.00000000000E+00 -0.45593999997E+02  0.45594000000E+02  0.51100000000E-03 0. -1.
    9900012    2    1    2    0    0 -0.76822181902E+01  0.27293652653E+01 -0.30826180712E+02  0.59301963426E+02  0.50000035378E+02 0.  0.
        -12    1    1    2    0    0  0.76822181902E+01 -0.27293652653E+01  0.30826180712E+02  0.31886036574E+02  0.00000000000E+00 0.  1.
         11    1    3    3    0    0 -0.11598153910E+02  0.23449649493E+01 -0.50003086553E+01  0.12845976866E+02  0.51100000000E-03 0. -1.
        -11    1    3    3    0    0 -0.19784852958E+01  0.18367555721E+02 -0.18553224516E+02  0.26182124578E+02  0.51100000000E-03 0.  1.
        -12    1    3    3    0    0  0.58944210154E+01 -0.17983155405E+02 -0.72726475409E+01  0.20273861982E+02  0.00000000000E+00 0.  1.
</event>
<event>
 7    1  0.1335379E-011  0.5930196E+02  0.7816164E-02  0.1266605E+00
        -11   -1    0    0    0    0  0.00000000000E+00  0.00000000000E+00  0.45593999997E+02  0.45594000000E+02  0.51100000000E-03 0.  1.
         11   -1    0    0    0    0 -0.00000000000E+00 -0.00000000000E+00 -0.45593999997E+02  0.45594000000E+02  0.51100000000E-03 0. -1.
    9900012    2    1    2    0    0 -0.10916675140E+02 -0.28983673319E+02 -0.75823576812E+01  0.59301964448E+02  0.50000037242E+02 0.  0.
        -12    1    1    2    0    0  0.10916675140E+02  0.28983673319E+02  0.75823576812E+01  0.31886035552E+02  0.00000000000E+00 0.  1.
         11    1    3    3    0    0 -0.51554787969E+01 -0.45205810539E+01  0.22075858591E+01  0.72033360519E+01  0.51100000000E-03 0. -1.
        -11    1    3    3    0    0 -0.12828641879E+02 -0.34996228382E+02 -0.22475721561E+01  0.37341152022E+02  0.51100000000E-03 0.  1.
        -12    1    3    3    0    0  0.70674455356E+01  0.10533136117E+02 -0.75423713841E+01  0.14757476375E+02  0.00000000000E+00 0.  1.
</event>
<event>
 7    1  0.1335379E-011  0.5930197E+02  0.7816164E-02  0.1266605E+00
        -11   -1    0    0    0    0  0.00000000000E+00  0.00000000000E+00  0.45593999997E+02  0.45594000000E+02  0.51100000000E-03 0. -1.
         11   -1    0    0    0    0 -0.00000000000E+00 -0.00000000000E+00 -0.45593999997E+02  0.45594000000E+02  0.51100000000E-03 0.  1.
    9900012    2    1    2    0    0  0.14349311856E+02 -0.18313552347E+02  0.21804362188E+02  0.59301966055E+02  0.50000040173E+02 0.  0.
        -12    1    1    2    0    0 -0.14349311856E+02  0.18313552347E+02 -0.21804362188E+02  0.31886033945E+02  0.00000000000E+00 0.  1.
         11    1    3    3    0    0  0.44764188401E+00  0.83983089378E+01 -0.77697377244E+01  0.11449925801E+02  0.51100000000E-03 0. -1.
        -11    1    3    3    0    0 -0.58319716984E+01 -0.78731312538E+01  0.44395237458E+01  0.10756740258E+02  0.51100000000E-03 0.  1.
         12    1    3    3    0    0  0.19733641671E+02 -0.18838730031E+02  0.25134576166E+02  0.37095299996E+02  0.00000000000E+00 0. -1.
</event>
<event>
 7    1  0.1335379E-011  0.5930196E+02  0.7816164E-02  0.1266605E+00
        -11   -1    0    0    0    0  0.00000000000E+00  0.00000000000E+00  0.45593999997E+02  0.45594000000E+02  0.51100000000E-03 0.  1.
         11   -1    0    0    0    0 -0.00000000000E+00 -0.00000000000E+00 -0.45593999997E+02  0.45594000000E+02  0.51100000000E-03 0. -1.
    9900012    2    1    2    0    0 -0.19205925179E+00  0.16632457035E+02 -0.27203746533E+02  0.59301963256E+02  0.50000035068E+02 0.  0.
        -12    1    1    2    0    0  0.19205925179E+00 -0.16632457035E+02  0.27203746533E+02  0.31886036744E+02  0.00000000000E+00 0.  1.
         11    1    3    3    0    0 -0.39594772987E+01 -0.60047286479E+01  0.66298671217E+00  0.72231418549E+01  0.51100000000E-03 0. -1.
        -11    1    3    3    0    0 -0.16625479527E+02  0.63100844886E+01 -0.96655021063E+01  0.20239705210E+02  0.51100000000E-03 0.  1.
         12    1    3    3    0    0  0.20392897574E+02  0.16327101194E+02 -0.18201231139E+02  0.31839116191E+02  0.00000000000E+00 0. -1.
</event>
<event>
 7    1  0.1335379E-011  0.5930194E+02  0.7816164E-02  0.1266605E+00
        -11   -1    0    0    0    0  0.00000000000E+00  0.00000000000E+00  0.45593999997E+02  0.45594000000E+02  0.51100000000E-03 0.  1.
         11   -1    0    0    0    0 -0.00000000000E+00 -0.00000000000E+00 -0.45593999997E+02  0.45594000000E+02  0.51100000000E-03 0. -1.
    9900012    2    1    2    0    0  0.22329911530E+01  0.38004000321E+01 -0.31579919407E+02  0.59301943492E+02  0.49999999023E+02 0.  0.
        -12    1    1    2    0    0 -0.22329911530E+01 -0.38004000321E+01  0.31579919407E+02  0.31886056508E+02  0.00000000000E+00 0.  1.
         11    1    3    3    0    0  0.12328237145E+01  0.12058893477E+01 -0.52245308281E+01  0.55017948040E+01  0.51100000000E-03 0. -1.
        -11    1    3    3    0    0  0.13927426698E+02  0.48169028852E+01 -0.35077928553E+02  0.38047823061E+02  0.51100000000E-03 0.  1.
        -12    1    3    3    0    0 -0.12927259260E+02 -0.22223922008E+01  0.87225399745E+01  0.15752325627E+02  0.00000000000E+00 0.  1.
</event>
<event>
 7    1  0.1335379E-011  0.5930193E+02  0.7816164E-02  0.1266605E+00
        -11   -1    0    0    0    0  0.00000000000E+00  0.00000000000E+00  0.45593999997E+02  0.45594000000E+02  0.51100000000E-03 0.  1.
         11   -1    0    0    0    0 -0.00000000000E+00 -0.00000000000E+00 -0.45593999997E+02  0.45594000000E+02  0.51100000000E-03 0. -1.
    9900012    2    1    2    0    0 -0.13814213934E+02  0.20386461506E+02 -0.20255390846E+02  0.59301934428E+02  0.49999982492E+02 0.  0.
        -12    1    1    2    0    0  0.13814213934E+02 -0.20386461506E+02  0.20255390846E+02  0.31886065572E+02  0.00000000000E+00 0.  1.
         11    1    3    3    0    0 -0.76827508751E+01 -0.62811339723E+01 -0.16692045128E+01  0.10062979129E+02  0.51100000000E-03 0. -1.
        -11    1    3    3    0    0 -0.14582598565E+02  0.92035930697E+01  0.56935683222E+01  0.18159708886E+02  0.51100000000E-03 0.  1.
         12    1    3    3    0    0  0.84511355061E+01  0.17464002408E+02 -0.24279754656E+02  0.31079246413E+02  0.00000000000E+00 0. -1.
</event>
<event>
 7    1  0.1335379E-011  0.5930194E+02  0.7816164E-02  0.1266605E+00
        -11   -1    0    0    0    0  0.00000000000E+00  0.00000000000E+00  0.45593999997E+02  0.45594000000E+02  0.51100000000E-03 0. -1.
         11   -1    0    0    0    0 -0.00000000000E+00 -0.00000000000E+00 -0.45593999997E+02  0.45594000000E+02  0.51100000000E-03 0.  1.
    9900012    2    1    2    0    0  0.21231884106E+02 -0.11645457023E+02  0.20743943185E+02  0.59301941121E+02  0.49999994699E+02 0.  0.
        -12    1    1    2    0    0 -0.21231884106E+02  0.11645457023E+02 -0.20743943185E+02  0.31886058879E+02  0.00000000000E+00 0.  1.
         11    1    3    3    0    0  0.84119212094E+01  0.31593656463E+01 -0.79530147182E+01  0.11999685541E+02  0.51100000000E-03 0. -1.
        -11    1    3    3    0    0 -0.88690100217E+01  0.20346447670E+01  0.27055806306E+01  0.94931177652E+01  0.51100000000E-03 0.  1.
         12    1    3    3    0    0  0.21688972918E+02 -0.16839467436E+02  0.25991377272E+02  0.37809137815E+02  0.00000000000E+00 0. -1.
</event>
<event>
 7    1  0.1335379E-011  0.5930194E+02  0.7816164E-02  0.1266605E+00
        -11   -1    0    0    0    0  0.00000000000E+00  0.00000000000E+00  0.45593999997E+02  0.45594000000E+02  0.51100000000E-03 0. -1.
         11   -1    0    0    0    0 -0.00000000000E+00 -0.00000000000E+00 -0.45593999997E+02  0.45594000000E+02  0.51100000000E-03 0.  1.
    9900012    2    1    2    0    0 -0.27530029254E+01  0.80370563560E+00  0.31756821708E+02  0.59301942030E+02  0.49999996357E+02 0.  0.
        -12    1    1    2    0    0  0.27530029254E+01 -0.80370563560E+00 -0.31756821708E+02  0.31886057970E+02  0.00000000000E+00 0.  1.
         11    1    3    3    0    0  0.11970539675E+01  0.53296267864E+01  0.24561269812E+02  0.25161355984E+02  0.51100000000E-03 0. -1.
        -11    1    3    3    0    0 -0.79330258314E+01  0.12698174050E+02 -0.20885262043E+00  0.14973982193E+02  0.51100000000E-03 0.  1.
         12    1    3    3    0    0  0.39829689385E+01 -0.17224095200E+02  0.74044045163E+01  0.19166603853E+02  0.00000000000E+00 0. -1.
</event>
<event>
 7    1  0.1335379E-011  0.5930206E+02  0.7816164E-02  0.1266604E+00
        -11   -1    0    0    0    0  0.00000000000E+00  0.00000000000E+00  0.45593999997E+02  0.45594000000E+02  0.51100000000E-03 0.  1.
         11   -1    0    0    0    0 -0.00000000000E+00 -0.00000000000E+00 -0.45593999997E+02  0.45594000000E+02  0.51100000000E-03 0. -1.
    9900012    2    1    2    0    0 -0.60766845219E+01 -0.21852774246E+02 -0.22410784716E+02  0.59302060957E+02  0.50000213251E+02 0.  0.
        -12    1    1    2    0    0  0.60766845219E+01  0.21852774246E+02  0.22410784716E+02  0.31885939043E+02  0.00000000000E+00 0.  1.
         11    1    3    3    0    0 -0.14585798351E+02 -0.27744328635E+01 -0.22497173170E+02  0.26954884384E+02  0.51100000000E-03 0. -1.
        -11    1    3    3    0    0 -0.54667977560E+01 -0.30801268906E+01 -0.75103135975E+01  0.97866168803E+01  0.51100000000E-03 0.  1.
        -12    1    3    3    0    0  0.13975911586E+02 -0.15998214492E+02  0.75967020516E+01  0.22560559693E+02  0.00000000000E+00 0.  1.
</event>
<event>
 7    1  0.1335379E-011  0.5930193E+02  0.7816164E-02  0.1266605E+00
        -11   -1    0    0    0    0  0.00000000000E+00  0.00000000000E+00  0.45593999997E+02  0.45594000000E+02  0.51100000000E-03 0. -1.
         11   -1    0    0    0    0 -0.00000000000E+00 -0.00000000000E+00 -0.45593999997E+02  0.45594000000E+02  0.51100000000E-03 0.  1.
    9900012    2    1    2    0    0 -0.25302874441E+02 -0.98969434454E+01  0.16689407443E+02  0.59301933053E+02  0.49999979985E+02 0.  0.
        -12    1    1    2    0    0  0.25302874441E+02  0.98969434454E+01 -0.16689407443E+02  0.31886066947E+02  0.00000000000E+00 0.  1.
         11    1    3    3    0    0 -0.26695153947E+02 -0.61874363213E+01  0.72690985423E+01  0.28350580353E+02  0.51100000000E-03 0. -1.
        -11    1    3    3    0    0 -0.29596702859E+01 -0.10825960866E+01  0.19451793202E+02  0.19705428732E+02  0.51100000000E-03 0.  1.
         12    1    3    3    0    0  0.43519497916E+01 -0.26269110376E+01 -0.10031484301E+02  0.11245923967E+02  0.00000000000E+00 0. -1.
</event>
<event>
 7    1  0.1335379E-011  0.5930195E+02  0.7816164E-02  0.1266605E+00
        -11   -1    0    0    0    0  0.00000000000E+00  0.00000000000E+00  0.45593999997E+02  0.45594000000E+02  0.51100000000E-03 0.  1.
         11   -1    0    0    0    0 -0.00000000000E+00 -0.00000000000E+00 -0.45593999997E+02  0.45594000000E+02  0.51100000000E-03 0. -1.
    9900012    2    1    2    0    0  0.31507665256E+02  0.67353730126E+00 -0.48511091160E+01  0.59301954745E+02  0.50000019545E+02 0.  0.
        -12    1    1    2    0    0 -0.31507665256E+02 -0.67353730126E+00  0.48511091160E+01  0.31886045255E+02  0.00000000000E+00 0.  1.
         11    1    3    3    0    0 -0.64847784875E+01 -0.10662857390E+02 -0.11012114297E+01  0.12528429535E+02  0.51100000000E-03 0. -1.
        -11    1    3    3    0    0  0.81223198715E+00  0.85684585615E+01 -0.39968027601E+01  0.94896067087E+01  0.51100000000E-03 0.  1.
         12    1    3    3    0    0  0.37180211756E+02  0.27679361296E+01  0.24690507382E+00  0.37283918501E+02  0.00000000000E+00 0. -1.
</event>
<event>
 7    1  0.1335379E-011  0.5930195E+02  0.7816164E-02  0.1266605E+00
        -11   -1    0    0    0    0  0.00000000000E+00  0.00000000000E+00  0.45593999997E+02  0.45594000000E+02  0.51100000000E-03 0.  1.
         11   -1    0    0    0    0 -0.00000000000E+00 -0.00000000000E+00 -0.45593999997E+02  0.45594000000E+02  0.51100000000E-03 0. -1.
    9900012    2    1    2    0    0 -0.18526639911E+02  0.16351834587E+02 -0.20151957669E+02  0.59301948525E+02  0.50000008202E+02 0.  0.
        -12    1    1    2    0    0  0.18526639911E+02 -0.16351834587E+02  0.20151957669E+02  0.31886051475E+02  0.00000000000E+00 0.  1.
         11    1    3    3    0    0 -0.40224497799E+01 -0.11034484419E+02 -0.11729405455E+02  0.16598762039E+02  0.51100000000E-03 0. -1.
        -11    1    3    3    0    0 -0.11656457869E+02 -0.20476658098E+01  0.40631068354E+00  0.11841918508E+02  0.51100000000E-03 0.  1.
        -12    1    3    3    0    0 -0.28477322628E+01  0.29433984816E+02 -0.88288628974E+01  0.30861267979E+02  0.00000000000E+00 0.  1.
</event>
<event>
 7    1  0.1335379E-011  0.5930194E+02  0.7816164E-02  0.1266605E+00
        -11   -1    0    0    0    0  0.00000000000E+00  0.00000000000E+00  0.45593999997E+02  0.45594000000E+02  0.51100000000E-03 0.  1.
         11   -1    0    0    0    0 -0.00000000000E+00 -0.00000000000E+00 -0.45593999997E+02  0.45594000000E+02  0.51100000000E-03 0. -1.
    9900012    2    1    2    0    0 -0.29301796986E+02 -0.12389567543E+02  0.21503434619E+01  0.59301942428E+02  0.49999997082E+02 0.  0.
        -12    1    1    2    0    0  0.29301796986E+02  0.12389567543E+02 -0.21503434619E+01  0.31886057572E+02  0.00000000000E+00 0.  1.
         11    1    3    3    0    0 -0.20715566277E+02 -0.97478163757E+01 -0.17046196263E+02  0.28543430375E+02  0.51100000000E-03 0. -1.
        -11    1    3    3    0    0 -0.36307888075E+01 -0.72956051831E+01 -0.20899189537E+01  0.84128618108E+01  0.51100000000E-03 0.  1.
        -12    1    3    3    0    0 -0.49554419018E+01  0.46538540158E+01  0.21286458679E+02  0.22345650242E+02  0.00000000000E+00 0.  1.
</event>
<event>
 7    1  0.1335379E-011  0.5930192E+02  0.7816164E-02  0.1266605E+00
        -11   -1    0    0    0    0  0.00000000000E+00  0.00000000000E+00  0.45593999997E+02  0.45594000000E+02  0.51100000000E-03 0.  1.
         11   -1    0    0    0    0 -0.00000000000E+00 -0.00000000000E+00 -0.45593999997E+02  0.45594000000E+02  0.51100000000E-03 0. -1.
    9900012    2    1    2    0    0 -0.23823522227E+02 -0.13306640321E+02 -0.16495302948E+02  0.59301922987E+02  0.49999961627E+02 0.  0.
        -12    1    1    2    0    0  0.23823522227E+02  0.13306640321E+02  0.16495302948E+02  0.31886077013E+02  0.00000000000E+00 0.  1.
         11    1    3    3    0    0 -0.32046393070E+01  0.78625713765E-02  0.61150119509E+01  0.69038501091E+01  0.51100000000E-03 0. -1.
        -11    1    3    3    0    0 -0.94270238284E+01  0.47747542016E+01  0.92805161058E+01  0.14063962294E+02  0.51100000000E-03 0.  1.
         12    1    3    3    0    0 -0.11191859092E+02 -0.18089257094E+02 -0.31890831005E+02  0.38334110584E+02  0.00000000000E+00 0. -1.
</event>
<event>
 7    1  0.1335379E-011  0.5930191E+02  0.7816164E-02  0.1266605E+00
        -11   -1    0    0    0    0  0.00000000000E+00  0.00000000000E+00  0.45593999997E+02  0.45594000000E+02  0.51100000000E-03 0. -1.
         11   -1    0    0    0    0 -0.00000000000E+00 -0.00000000000E+00 -0.45593999997E+02  0.45594000000E+02  0.51100000000E-03 0.  1.
    9900012    2    1    2    0    0 -0.81755161543E+01 -0.28596808237E+02  0.11493733978E+02  0.59301914845E+02  0.49999946778E+02 0.  0.
        -12    1    1    2    0    0  0.81755161543E+01  0.28596808237E+02 -0.11493733978E+02  0.31886085155E+02  0.00000000000E+00 0.  1.
         11    1    3    3    0    0  0.20124765869E+01 -0.30813871999E+02 -0.30371811268E+01  0.31028522991E+02  0.51100000000E-03 0. -1.
        -11    1    3    3    0    0  0.34925777592E+01 -0.68680561927E+01  0.60108546273E+01  0.97723420367E+01  0.51100000000E-03 0.  1.
        -12    1    3    3    0    0 -0.13680570500E+02  0.90851199542E+01  0.85200604774E+01  0.18501049817E+02  0.00000000000E+00 0.  1.
</event>
<event>
 7    1  0.1335379E-011  0.5930195E+02  0.7816164E-02  0.1266605E+00
        -11   -1    0    0    0    0  0.00000000000E+00  0.00000000000E+00  0.45593999997E+02  0.45594000000E+02  0.51100000000E-03 0.  1.
         11   -1    0    0    0    0 -0.00000000000E+00 -0.00000000000E+00 -0.45593999997E+02  0.45594000000E+02  0.51100000000E-03 0. -1.
    9900012    2    1    2    0    0 -0.68001293382E+01 -0.51281338766E+01 -0.30727525097E+02  0.59301947961E+02  0.50000007173E+02 0.  0.
        -12    1    1    2    0    0  0.68001293382E+01  0.51281338766E+01  0.30727525097E+02  0.31886052039E+02  0.00000000000E+00 0.  1.
         11    1    3    3    0    0 -0.82422160164E+01 -0.48103364784E+01 -0.60533195572E+01  0.11301156570E+02  0.51100000000E-03 0. -1.
        -11    1    3    3    0    0 -0.16072039551E+01 -0.82177128126E+01  0.95752470751E+01  0.12720034011E+02  0.51100000000E-03 0.  1.
        -12    1    3    3    0    0  0.30492906334E+01  0.78999154144E+01 -0.34249452615E+02  0.35280757380E+02  0.00000000000E+00 0.  1.
</event>
<event>
 7    1  0.1335379E-011  0.5930196E+02  0.7816164E-02  0.1266605E+00
        -11   -1    0    0    0    0  0.00000000000E+00  0.00000000000E+00  0.45593999997E+02  0.45594000000E+02  0.51100000000E-03 0. -1.
         11   -1    0    0    0    0 -0.00000000000E+00 -0.00000000000E+00 -0.45593999997E+02  0.45594000000E+02  0.51100000000E-03 0.  1.
    9900012    2    1    2    0    0 -0.26198409465E+02 -0.46373513396E+01  0.17574344108E+02  0.59301964549E+02  0.50000037427E+02 0.  0.
        -12    1    1    2    0    0  0.26198409465E+02  0.46373513396E+01 -0.17574344108E+02  0.31886035451E+02  0.00000000000E+00 0.  1.
         11    1    3    3    0    0  0.67042042139E+00 -0.41779348395E+01  0.10113962487E+02  0.10963431968E+02  0.51100000000E-03 0. -1.
        -11    1    3    3    0    0  0.83074800469E+01  0.77992320973E+01  0.38416303832E+01  0.12024989410E+02  0.51100000000E-03 0.  1.
        -12    1    3    3    0    0 -0.35176309933E+02 -0.82586485974E+01  0.36187512371E+01  0.36313543172E+02  0.00000000000E+00 0.  1.
</event>
<event>
 7    1  0.1335379E-011  0.5930168E+02  0.7816164E-02  0.1266606E+00
        -11   -1    0    0    0    0  0.00000000000E+00  0.00000000000E+00  0.45593999997E+02  0.45594000000E+02  0.51100000000E-03 0. -1.
         11   -1    0    0    0    0 -0.00000000000E+00 -0.00000000000E+00 -0.45593999997E+02  0.45594000000E+02  0.51100000000E-03 0.  1.
    9900012    2    1    2    0    0  0.21992193632E+02  0.18461841309E+02  0.13865114508E+02  0.59301677453E+02  0.49999513829E+02 0.  0.
        -12    1    1    2    0    0 -0.21992193632E+02 -0.18461841309E+02 -0.13865114508E+02  0.31886322547E+02  0.00000000000E+00 0.  1.
         11    1    3    3    0    0 -0.13497248773E+02  0.64341403828E+01  0.73825968279E+01  0.16675629616E+02  0.51100000000E-03 0. -1.
        -11    1    3    3    0    0 -0.95328760485E+00  0.35061124670E+00  0.41661431639E+01  0.42881738103E+01  0.51100000000E-03 0.  1.
        -12    1    3    3    0    0  0.36442730010E+02  0.11677089679E+02  0.23163745165E+01  0.38337874026E+02  0.00000000000E+00 0.  1.
</event>
<event>
 7    1  0.1335379E-011  0.5930190E+02  0.7816164E-02  0.1266605E+00
        -11   -1    0    0    0    0  0.00000000000E+00  0.00000000000E+00  0.45593999997E+02  0.45594000000E+02  0.51100000000E-03 0.  1.
         11   -1    0    0    0    0 -0.00000000000E+00 -0.00000000000E+00 -0.45593999997E+02  0.45594000000E+02  0.51100000000E-03 0. -1.
    9900012    2    1    2    0    0  0.16414093891E+02 -0.24232799880E+02 -0.12651960952E+02  0.59301902963E+02  0.49999925108E+02 0.  0.
        -12    1    1    2    0    0 -0.16414093891E+02  0.24232799880E+02  0.12651960952E+02  0.31886097037E+02  0.00000000000E+00 0.  1.
         11    1    3    3    0    0 -0.79833984993E+01  0.35469527923E+01  0.45457639080E+01  0.98478167874E+01  0.51100000000E-03 0. -1.
        -11    1    3    3    0    0  0.24109375051E+00 -0.13330028889E+01 -0.13362382951E+02  0.13430871204E+02  0.51100000000E-03 0.  1.
         12    1    3    3    0    0  0.24156398640E+02 -0.26446749783E+02 -0.38353419085E+01  0.36023214972E+02  0.00000000000E+00 0. -1.
</event>
<event>
 7    1  0.1335379E-011  0.5930194E+02  0.7816164E-02  0.1266605E+00
        -11   -1    0    0    0    0  0.00000000000E+00  0.00000000000E+00  0.45593999997E+02  0.45594000000E+02  0.51100000000E-03 0.  1.
         11   -1    0    0    0    0 -0.00000000000E+00 -0.00000000000E+00 -0.45593999997E+02  0.45594000000E+02  0.51100000000E-03 0. -1.
    9900012    2    1    2    0    0  0.79060377371E+01 -0.15960524711E+02 -0.26447626178E+02  0.59301941727E+02  0.49999995804E+02 0.  0.
        -12    1    1    2    0    0 -0.79060377371E+01  0.15960524711E+02  0.26447626178E+02  0.31886058273E+02  0.00000000000E+00 0.  1.
         11    1    3    3    0    0 -0.14186794372E+01  0.11837259972E+02 -0.21136290441E+01  0.12107881854E+02  0.51100000000E-03 0. -1.
        -11    1    3    3    0    0 -0.58225747144E+01  0.26662607497E+01 -0.34613792288E+01  0.72795926478E+01  0.51100000000E-03 0.  1.
        -12    1    3    3    0    0  0.15147291889E+02 -0.30464045432E+02 -0.20872617905E+02  0.39914467225E+02  0.00000000000E+00 0.  1.
</event>
<event>
 7    1  0.1335379E-011  0.5930193E+02  0.7816164E-02  0.1266605E+00
        -11   -1    0    0    0    0  0.00000000000E+00  0.00000000000E+00  0.45593999997E+02  0.45594000000E+02  0.51100000000E-03 0.  1.
         11   -1    0    0    0    0 -0.00000000000E+00 -0.00000000000E+00 -0.45593999997E+02  0.45594000000E+02  0.51100000000E-03 0. -1.
    9900012    2    1    2    0    0 -0.21653615759E+01 -0.54779725751E+01 -0.31337265630E+02  0.59301934212E+02  0.49999982098E+02 0.  0.
        -12    1    1    2    0    0  0.21653615759E+01  0.54779725751E+01  0.31337265630E+02  0.31886065788E+02  0.00000000000E+00 0.  1.
         11    1    3    3    0    0 -0.23793325242E+01  0.41956956489E+01 -0.13377628205E+01  0.50054664981E+01  0.51100000000E-03 0.  1.
        -11    1    3    3    0    0 -0.12470053394E+02 -0.21514785287E+02 -0.76820348747E+01  0.26026945223E+02  0.51100000000E-03 0. -1.
         12    1    3    3    0    0  0.12684024342E+02  0.11841117063E+02 -0.22317467935E+02  0.28269522490E+02  0.00000000000E+00 0. -1.
</event>
<event>
 7    1  0.1335379E-011  0.5930203E+02  0.7816164E-02  0.1266604E+00
        -11   -1    0    0    0    0  0.00000000000E+00  0.00000000000E+00  0.45593999997E+02  0.45594000000E+02  0.51100000000E-03 0.  1.
         11   -1    0    0    0    0 -0.00000000000E+00 -0.00000000000E+00 -0.45593999997E+02  0.45594000000E+02  0.51100000000E-03 0. -1.
    9900012    2    1    2    0    0  0.31211692269E+02  0.19094526542E+00 -0.65198672951E+01  0.59302033433E+02  0.50000163053E+02 0.  0.
        -12    1    1    2    0    0 -0.31211692269E+02 -0.19094526542E+00  0.65198672951E+01  0.31885966567E+02  0.00000000000E+00 0.  1.
         11    1    3    3    0    0  0.37332704805E+01 -0.74569608292E+01 -0.15041382513E+01  0.84738424241E+01  0.51100000000E-03 0. -1.
        -11    1    3    3    0    0  0.84454351116E+01  0.35827811782E+01  0.18291784741E+02  0.20463408427E+02  0.51100000000E-03 0.  1.
         12    1    3    3    0    0  0.19032986677E+02  0.40651249164E+01 -0.23307513784E+02  0.30364782582E+02  0.00000000000E+00 0. -1.
</event>
<event>
 7    1  0.1335379E-011  0.5930195E+02  0.7816164E-02  0.1266605E+00
        -11   -1    0    0    0    0  0.00000000000E+00  0.00000000000E+00  0.45593999997E+02  0.45594000000E+02  0.51100000000E-03 0. -1.
         11   -1    0    0    0    0 -0.00000000000E+00 -0.00000000000E+00 -0.45593999997E+02  0.45594000000E+02  0.51100000000E-03 0.  1.
    9900012    2    1    2    0    0 -0.78793145774E-01  0.90375374407E+01  0.30578373916E+02  0.59301949089E+02  0.50000009231E+02 0.  0.
        -12    1    1    2    0    0  0.78793145774E-01 -0.90375374407E+01 -0.30578373916E+02  0.31886050911E+02  0.00000000000E+00 0.  1.
         11    1    3    3    0    0 -0.11096440555E+02  0.71406739969E+01  0.82585236629E+01  0.15566741196E+02  0.51100000000E-03 0. -1.
        -11    1    3    3    0    0 -0.83403396100E+01  0.21105125928E+01 -0.52266314672E+01  0.10066439538E+02  0.51100000000E-03 0.  1.
         12    1    3    3    0    0  0.19357987019E+02 -0.21364914905E+00  0.27546481720E+02  0.33668768355E+02  0.00000000000E+00 0. -1.
</event>
<event>
 7    1  0.1335379E-011  0.5930196E+02  0.7816164E-02  0.1266605E+00
        -11   -1    0    0    0    0  0.00000000000E+00  0.00000000000E+00  0.45593999997E+02  0.45594000000E+02  0.51100000000E-03 0.  1.
         11   -1    0    0    0    0 -0.00000000000E+00 -0.00000000000E+00 -0.45593999997E+02  0.45594000000E+02  0.51100000000E-03 0. -1.
    9900012    2    1    2    0    0  0.28214402886E+02 -0.49378671445E+01 -0.14010165342E+02  0.59301956108E+02  0.50000022031E+02 0.  0.
        -12    1    1    2    0    0 -0.28214402886E+02  0.49378671445E+01  0.14010165342E+02  0.31886043892E+02  0.00000000000E+00 0.  1.
         11    1    3    3    0    0  0.16355894817E+02 -0.50986264356E+01  0.27538843496E+01  0.17352093996E+02  0.51100000000E-03 0. -1.
        -11    1    3    3    0    0  0.59894102227E+01 -0.17040870807E+02 -0.13407413669E+01  0.18112479133E+02  0.51100000000E-03 0.  1.
        -12    1    3    3    0    0  0.58690978468E+01  0.17201630098E+02 -0.15423308325E+02  0.23837382978E+02  0.00000000000E+00 0.  1.
</event>
<event>
 7    1  0.1335379E-011  0.5930191E+02  0.7816164E-02  0.1266605E+00
        -11   -1    0    0    0    0  0.00000000000E+00  0.00000000000E+00  0.45593999997E+02  0.45594000000E+02  0.51100000000E-03 0.  1.
         11   -1    0    0    0    0 -0.00000000000E+00 -0.00000000000E+00 -0.45593999997E+02  0.45594000000E+02  0.51100000000E-03 0. -1.
    9900012    2    1    2    0    0  0.26986393874E+02  0.42426145079E+01 -0.16445591025E+02  0.59301910613E+02  0.49999939060E+02 0.  0.
        -12    1    1    2    0    0 -0.26986393874E+02 -0.42426145079E+01  0.16445591025E+02  0.31886089387E+02  0.00000000000E+00 0.  1.
         11    1    3    3    0    0  0.15060140658E+02  0.48042603702E+01 -0.25861733997E+02  0.30310361923E+02  0.51100000000E-03 0. -1.
        -11    1    3    3    0    0 -0.22220467921E+01 -0.25509701901E+01 -0.66685619115E+01  0.74776105198E+01  0.51100000000E-03 0.  1.
        -12    1    3    3    0    0  0.14148300008E+02  0.19893243278E+01  0.16084704883E+02  0.21513938170E+02  0.00000000000E+00 0.  1.
</event>
<event>
 7    1  0.1335379E-011  0.5930194E+02  0.7816164E-02  0.1266605E+00
        -11   -1    0    0    0    0  0.00000000000E+00  0.00000000000E+00  0.45593999997E+02  0.45594000000E+02  0.51100000000E-03 0.  1.
         11   -1    0    0    0    0 -0.00000000000E+00 -0.00000000000E+00 -0.45593999997E+02  0.45594000000E+02  0.51100000000E-03 0. -1.
    9900012    2    1    2    0    0  0.19149265317E+02 -0.15239404772E+02 -0.20439840661E+02  0.59301938684E+02  0.49999990255E+02 0.  0.
        -12    1    1    2    0    0 -0.19149265317E+02  0.15239404772E+02  0.20439840661E+02  0.31886061316E+02  0.00000000000E+00 0.  1.
         11    1    3    3    0    0 -0.82910532536E+01 -0.84272480156E+01 -0.22455151614E+02  0.25377035040E+02  0.51100000000E-03 0. -1.
        -11    1    3    3    0    0  0.19844698486E+02 -0.13051015082E+02 -0.57974741180E+00  0.23758728080E+02  0.51100000000E-03 0.  1.
        -12    1    3    3    0    0  0.75956200851E+01  0.62388583259E+01  0.25950583642E+01  0.10166175564E+02  0.00000000000E+00 0.  1.
</event>
<event>
 7    1  0.1335379E-011  0.5930196E+02  0.7816164E-02  0.1266605E+00
        -11   -1    0    0    0    0  0.00000000000E+00  0.00000000000E+00  0.45593999997E+02  0.45594000000E+02  0.51100000000E-03 0. -1.
         11   -1    0    0    0    0 -0.00000000000E+00 -0.00000000000E+00 -0.45593999997E+02  0.45594000000E+02  0.51100000000E-03 0.  1.
    9900012    2    1    2    0    0  0.22209037613E+02 -0.22788116811E+02  0.20444763648E+01  0.59301960687E+02  0.50000030382E+02 0.  0.
        -12    1    1    2    0    0 -0.22209037613E+02  0.22788116811E+02 -0.20444763648E+01  0.31886039313E+02  0.00000000000E+00 0.  1.
         11    1    3    3    0    0  0.56039151969E+01  0.43420535128E+01 -0.93203990159E+01  0.11710129475E+02  0.51100000000E-03 0. -1.
        -11    1    3    3    0    0 -0.69616996274E+01  0.25649286534E+00  0.90037084971E+01  0.11384103709E+02  0.51100000000E-03 0.  1.
         12    1    3    3    0    0  0.23566822043E+02 -0.27386663189E+02  0.23611668835E+01  0.36207727503E+02  0.00000000000E+00 0. -1.
</event>
<event>
 7    1  0.1335379E-011  0.5930193E+02  0.7816164E-02  0.1266605E+00
        -11   -1    0    0    0    0  0.00000000000E+00  0.00000000000E+00  0.45593999997E+02  0.45594000000E+02  0.51100000000E-03 0.  1.
         11   -1    0    0    0    0 -0.00000000000E+00 -0.00000000000E+00 -0.45593999997E+02  0.45594000000E+02  0.51100000000E-03 0. -1.
    9900012    2    1    2    0    0 -0.98565212415E+01 -0.91204327679E+01 -0.28920379452E+02  0.59301926982E+02  0.49999968913E+02 0.  0.
        -12    1    1    2    0    0  0.98565212415E+01  0.91204327679E+01  0.28920379452E+02  0.31886073018E+02  0.00000000000E+00 0.  1.
         11    1    3    3    0    0 -0.22706633432E+02  0.32187429358E+01 -0.10936300665E+02  0.25407758272E+02  0.51100000000E-03 0. -1.
        -11    1    3    3    0    0  0.65989682143E+01  0.11862971039E+01 -0.17769622718E+02  0.18992450450E+02  0.51100000000E-03 0.  1.
        -12    1    3    3    0    0  0.62511439766E+01 -0.13525472808E+02 -0.21445606897E+00  0.14901718260E+02  0.00000000000E+00 0.  1.
</event>
<event>
 7    1  0.1335379E-011  0.5930194E+02  0.7816164E-02  0.1266605E+00
        -11   -1    0    0    0    0  0.00000000000E+00  0.00000000000E+00  0.45593999997E+02  0.45594000000E+02  0.51100000000E-03 0.  1.
         11   -1    0    0    0    0 -0.00000000000E+00 -0.00000000000E+00 -0.45593999997E+02  0.45594000000E+02  0.51100000000E-03 0. -1.
    9900012    2    1    2    0    0 -0.29755018959E+02 -0.59964983314E+01 -0.97673800040E+01  0.59301939447E+02  0.49999991645E+02 0.  0.
        -12    1    1    2    0    0  0.29755018959E+02  0.59964983314E+01  0.97673800040E+01  0.31886060553E+02  0.00000000000E+00 0.  1.
         11    1    3    3    0    0 -0.15759307669E+02 -0.30914929712E+00 -0.12733256607E+02  0.20262950811E+02  0.51100000000E-03 0. -1.
        -11    1    3    3    0    0 -0.84985796057E+00  0.94511410899E+01 -0.11058098918E+02  0.14571474819E+02  0.51100000000E-03 0.  1.
        -12    1    3    3    0    0 -0.13145853329E+02 -0.15138490124E+02  0.14023975520E+02  0.24467513817E+02  0.00000000000E+00 0.  1.
</event>
<event>
 7    1  0.1335379E-011  0.5930187E+02  0.7816164E-02  0.1266605E+00
        -11   -1    0    0    0    0  0.00000000000E+00  0.00000000000E+00  0.45593999997E+02  0.45594000000E+02  0.51100000000E-03 0.  1.
         11   -1    0    0    0    0 -0.00000000000E+00 -0.00000000000E+00 -0.45593999997E+02  0.45594000000E+02  0.51100000000E-03 0. -1.
    9900012    2    1    2    0    0 -0.89993049065E+01  0.30546555663E+02  0.16265429622E+01  0.59301871453E+02  0.49999867642E+02 0.  0.
        -12    1    1    2    0    0  0.89993049065E+01 -0.30546555663E+02 -0.16265429622E+01  0.31886128547E+02  0.00000000000E+00 0.  1.
         11    1    3    3    0    0 -0.89574904418E+01 -0.53636158115E+01  0.19550876276E+01  0.10622023229E+02  0.51100000000E-03 0. -1.
        -11    1    3    3    0    0 -0.13849429415E+02  0.26114720739E+02  0.67656400234E+01  0.30324234856E+02  0.51100000000E-03 0.  1.
         12    1    3    3    0    0  0.13807614950E+02  0.97954507357E+01 -0.70941846888E+01  0.18355613369E+02  0.00000000000E+00 0. -1.
</event>
<event>
 7    1  0.1335379E-011  0.5930194E+02  0.7816164E-02  0.1266605E+00
        -11   -1    0    0    0    0  0.00000000000E+00  0.00000000000E+00  0.45593999997E+02  0.45594000000E+02  0.51100000000E-03 0. -1.
         11   -1    0    0    0    0 -0.00000000000E+00 -0.00000000000E+00 -0.45593999997E+02  0.45594000000E+02  0.51100000000E-03 0.  1.
    9900012    2    1    2    0    0  0.27964548462E+02  0.11799221220E+02  0.97715680598E+01  0.59301935106E+02  0.49999983728E+02 0.  0.
        -12    1    1    2    0    0 -0.27964548462E+02 -0.11799221220E+02 -0.97715680598E+01  0.31886064894E+02  0.00000000000E+00 0.  1.
         11    1    3    3    0    0  0.34227010540E+01  0.91112467337E+01 -0.68802607193E+01  0.11919215049E+02  0.51100000000E-03 0. -1.
        -11    1    3    3    0    0 -0.52284019160E+01  0.78928717437E+01  0.14193159279E+02  0.17061048665E+02  0.51100000000E-03 0.  1.
         12    1    3    3    0    0  0.29770249324E+02 -0.52048972575E+01  0.24586694999E+01  0.30321671392E+02  0.00000000000E+00 0. -1.
</event>
<event>
 7    1  0.1335379E-011  0.5930194E+02  0.7816164E-02  0.1266605E+00
        -11   -1    0    0    0    0  0.00000000000E+00  0.00000000000E+00  0.45593999997E+02  0.45594000000E+02  0.51100000000E-03 0.  1.
         11   -1    0    0    0    0 -0.00000000000E+00 -0.00000000000E+00 -0.45593999997E+02  0.45594000000E+02  0.51100000000E-03 0. -1.
    9900012    2    1    2    0    0 -0.17406705494E+02 -0.24832482857E+02 -0.98526914987E+01  0.59301935164E+02  0.49999983834E+02 0.  0.
        -12    1    1    2    0    0  0.17406705494E+02  0.24832482857E+02  0.98526914987E+01  0.31886064836E+02  0.00000000000E+00 0.  1.
         11    1    3    3    0    0 -0.20348389745E+02 -0.35845083395E+01 -0.21698240506E+02  0.29961964331E+02  0.51100000000E-03 0. -1.
        -11    1    3    3    0    0  0.70273103766E+00 -0.16985340899E+02  0.49125481128E+00  0.17006968216E+02  0.51100000000E-03 0.  1.
        -12    1    3    3    0    0  0.22389532141E+01 -0.42626336186E+01  0.11354294196E+02  0.12333002617E+02  0.00000000000E+00 0.  1.
</event>
<event>
 7    1  0.1335379E-011  0.5930196E+02  0.7816164E-02  0.1266605E+00
        -11   -1    0    0    0    0  0.00000000000E+00  0.00000000000E+00  0.45593999997E+02  0.45594000000E+02  0.51100000000E-03 0. -1.
         11   -1    0    0    0    0 -0.00000000000E+00 -0.00000000000E+00 -0.45593999997E+02  0.45594000000E+02  0.51100000000E-03 0.  1.
    9900012    2    1    2    0    0  0.19256569853E+02 -0.17367093805E+02  0.18555003590E+02  0.59301959356E+02  0.50000027955E+02 0.  0.
        -12    1    1    2    0    0 -0.19256569853E+02  0.17367093805E+02 -0.18555003590E+02  0.31886040644E+02  0.00000000000E+00 0.  1.
         11    1    3    3    0    0  0.17683441798E+02 -0.29005958288E+02  0.12505635377E+02  0.36200008929E+02  0.51100000000E-03 0. -1.
        -11    1    3    3    0    0 -0.54745421958E+01  0.28875804397E+01 -0.45291356812E+01  0.76695373608E+01  0.51100000000E-03 0.  1.
         12    1    3    3    0    0  0.70476702511E+01  0.87512840438E+01  0.10578503894E+02  0.15432413066E+02  0.00000000000E+00 0. -1.
</event>
<event>
 7    1  0.1335379E-011  0.5930195E+02  0.7816164E-02  0.1266605E+00
        -11   -1    0    0    0    0  0.00000000000E+00  0.00000000000E+00  0.45593999997E+02  0.45594000000E+02  0.51100000000E-03 0. -1.
         11   -1    0    0    0    0 -0.00000000000E+00 -0.00000000000E+00 -0.45593999997E+02  0.45594000000E+02  0.51100000000E-03 0.  1.
    9900012    2    1    2    0    0  0.15526692597E+02 -0.24208519656E+02  0.13769158976E+02  0.59301947472E+02  0.50000006281E+02 0.  0.
        -12    1    1    2    0    0 -0.15526692597E+02  0.24208519656E+02 -0.13769158976E+02  0.31886052528E+02  0.00000000000E+00 0.  1.
         11    1    3    3    0    0 -0.89970531001E+01  0.52061147851E+01 -0.92947525013E+01  0.13944282698E+02  0.51100000000E-03 0.  1.
        -11    1    3    3    0    0  0.90492083963E+01 -0.12468703335E+02  0.13543013057E+02  0.20512677504E+02  0.51100000000E-03 0. -1.
        -12    1    3    3    0    0  0.15474537301E+02 -0.16945931106E+02  0.95208984203E+01  0.24844987270E+02  0.00000000000E+00 0.  1.
</event>
<event>
 7    1  0.1335379E-011  0.5930195E+02  0.7816164E-02  0.1266605E+00
        -11   -1    0    0    0    0  0.00000000000E+00  0.00000000000E+00  0.45593999997E+02  0.45594000000E+02  0.51100000000E-03 0.  1.
         11   -1    0    0    0    0 -0.00000000000E+00 -0.00000000000E+00 -0.45593999997E+02  0.45594000000E+02  0.51100000000E-03 0. -1.
    9900012    2    1    2    0    0  0.27091855667E+02  0.14210896599E+02 -0.89889944691E+01  0.59301949019E+02  0.50000009102E+02 0.  0.
        -12    1    1    2    0    0 -0.27091855667E+02 -0.14210896599E+02  0.89889944691E+01  0.31886050981E+02  0.00000000000E+00 0.  1.
         11    1    3    3    0    0  0.24927540174E+02  0.16522555994E+02  0.35522496688E+01  0.30116367538E+02  0.51100000000E-03 0. -1.
        -11    1    3    3    0    0  0.51889418551E+01  0.88914127344E+01  0.20965857731E+01  0.10506093953E+02  0.51100000000E-03 0.  1.
         12    1    3    3    0    0 -0.30246263629E+01 -0.11203072129E+02 -0.14637829911E+02  0.18679487527E+02  0.00000000000E+00 0. -1.
</event>
<event>
 7    1  0.1335379E-011  0.5930203E+02  0.7816164E-02  0.1266604E+00
        -11   -1    0    0    0    0  0.00000000000E+00  0.00000000000E+00  0.45593999997E+02  0.45594000000E+02  0.51100000000E-03 0.  1.
         11   -1    0    0    0    0 -0.00000000000E+00 -0.00000000000E+00 -0.45593999997E+02  0.45594000000E+02  0.51100000000E-03 0. -1.
    9900012    2    1    2    0    0 -0.24275965866E+02 -0.16036204180E+02 -0.13047332760E+02  0.59302027295E+02  0.50000151859E+02 0.  0.
        -12    1    1    2    0    0  0.24275965866E+02  0.16036204180E+02  0.13047332760E+02  0.31885972705E+02  0.00000000000E+00 0.  1.
         11    1    3    3    0    0 -0.13233573123E+02 -0.53186655025E+01 -0.21817992304E+02  0.26066078508E+02  0.51100000000E-03 0. -1.
        -11    1    3    3    0    0 -0.64827343436E+00 -0.90058855957E+01 -0.88906872654E+01  0.12671643702E+02  0.51100000000E-03 0.  1.
        -12    1    3    3    0    0 -0.10394119308E+02 -0.17116530818E+01  0.17661346810E+02  0.20564305084E+02  0.00000000000E+00 0.  1.
</event>
<event>
 7    1  0.1335379E-011  0.5930198E+02  0.7816164E-02  0.1266605E+00
        -11   -1    0    0    0    0  0.00000000000E+00  0.00000000000E+00  0.45593999997E+02  0.45594000000E+02  0.51100000000E-03 0.  1.
         11   -1    0    0    0    0 -0.00000000000E+00 -0.00000000000E+00 -0.45593999997E+02  0.45594000000E+02  0.51100000000E-03 0. -1.
    9900012    2    1    2    0    0  0.30161048553E+02  0.50701181639E+01 -0.90179386743E+01  0.59301981654E+02  0.50000068621E+02 0.  0.
        -12    1    1    2    0    0 -0.30161048553E+02 -0.50701181639E+01  0.90179386743E+01  0.31886018346E+02  0.00000000000E+00 0.  1.
         11    1    3    3    0    0  0.13462665657E+02  0.12234008160E+02  0.99103334801E+01  0.20715429810E+02  0.51100000000E-03 0.  1.
        -11    1    3    3    0    0  0.13391609631E+02  0.57221445688E+01  0.10316586949E+01  0.14599399539E+02  0.51100000000E-03 0. -1.
         12    1    3    3    0    0  0.33067732652E+01 -0.12886034565E+02 -0.19959930849E+02  0.23987152306E+02  0.00000000000E+00 0. -1.
</event>
<event>
 7    1  0.1335379E-011  0.5930194E+02  0.7816164E-02  0.1266605E+00
        -11   -1    0    0    0    0  0.00000000000E+00  0.00000000000E+00  0.45593999997E+02  0.45594000000E+02  0.51100000000E-03 0.  1.
         11   -1    0    0    0    0 -0.00000000000E+00 -0.00000000000E+00 -0.45593999997E+02  0.45594000000E+02  0.51100000000E-03 0. -1.
    9900012    2    1    2    0    0 -0.22510751847E+02  0.76417633004E+01 -0.21250652380E+02  0.59301941579E+02  0.49999995533E+02 0.  0.
        -12    1    1    2    0    0  0.22510751847E+02 -0.76417633004E+01  0.21250652380E+02  0.31886058421E+02  0.00000000000E+00 0.  1.
         11    1    3    3    0    0 -0.11643724951E+02  0.72581004031E+01 -0.10173709186E+02  0.17081004392E+02  0.51100000000E-03 0. -1.
        -11    1    3    3    0    0 -0.15966166974E+02  0.13029687768E+01 -0.23682785445E+02  0.28591791517E+02  0.51100000000E-03 0.  1.
        -12    1    3    3    0    0  0.50991400772E+01 -0.91930587957E+00  0.12605842251E+02  0.13629145669E+02  0.00000000000E+00 0.  1.
</event>
<event>
 7    1  0.1335379E-011  0.5930217E+02  0.7816164E-02  0.1266604E+00
        -11   -1    0    0    0    0  0.00000000000E+00  0.00000000000E+00  0.45593999997E+02  0.45594000000E+02  0.51100000000E-03 0. -1.
         11   -1    0    0    0    0 -0.00000000000E+00 -0.00000000000E+00 -0.45593999997E+02  0.45594000000E+02  0.51100000000E-03 0.  1.
    9900012    2    1    2    0    0  0.25195728547E+02  0.14873213756E+02 -0.12675520849E+02  0.59302171593E+02  0.50000415022E+02 0.  0.
        -12    1    1    2    0    0 -0.25195728547E+02 -0.14873213756E+02  0.12675520849E+02  0.31885828407E+02  0.00000000000E+00 0.  1.
         11    1    3    3    0    0 -0.76058537978E+01  0.23641543576E+01  0.47553873237E+01  0.92764188499E+01  0.51100000000E-03 0. -1.
        -11    1    3    3    0    0 -0.58018162839E+01  0.17828353334E+01 -0.55779764189E+01  0.82433849363E+01  0.51100000000E-03 0.  1.
        -12    1    3    3    0    0  0.38603398628E+02  0.10726224065E+02 -0.11852931753E+02  0.41782367806E+02  0.00000000000E+00 0.  1.
</event>
<event>
 7    1  0.1335379E-011  0.5930192E+02  0.7816164E-02  0.1266605E+00
        -11   -1    0    0    0    0  0.00000000000E+00  0.00000000000E+00  0.45593999997E+02  0.45594000000E+02  0.51100000000E-03 0.  1.
         11   -1    0    0    0    0 -0.00000000000E+00 -0.00000000000E+00 -0.45593999997E+02  0.45594000000E+02  0.51100000000E-03 0. -1.
    9900012    2    1    2    0    0 -0.67692589931E+01  0.30075907150E+02 -0.81448850875E+01  0.59301918219E+02  0.49999952932E+02 0.  0.
        -12    1    1    2    0    0  0.67692589931E+01 -0.30075907150E+02  0.81448850875E+01  0.31886081781E+02  0.00000000000E+00 0.  1.
         11    1    3    3    0    0 -0.21952294333E+02  0.80571025014E+01  0.12263739727E+01  0.23416321671E+02  0.51100000000E-03 0. -1.
        -11    1    3    3    0    0  0.62068085829E+01 -0.16760819774E+01 -0.83348074249E+01  0.10526287981E+02  0.51100000000E-03 0.  1.
        -12    1    3    3    0    0  0.89762267574E+01  0.23694886626E+02 -0.10364516352E+01  0.25359308568E+02  0.00000000000E+00 0.  1.
</event>
<event>
 7    1  0.1335379E-011  0.5930196E+02  0.7816164E-02  0.1266605E+00
        -11   -1    0    0    0    0  0.00000000000E+00  0.00000000000E+00  0.45593999997E+02  0.45594000000E+02  0.51100000000E-03 0.  1.
         11   -1    0    0    0    0 -0.00000000000E+00 -0.00000000000E+00 -0.45593999997E+02  0.45594000000E+02  0.51100000000E-03 0. -1.
    9900012    2    1    2    0    0 -0.43596129613E+01  0.26420694272E+02 -0.17310701424E+02  0.59301957681E+02  0.50000024900E+02 0.  0.
        -12    1    1    2    0    0  0.43596129613E+01 -0.26420694272E+02  0.17310701424E+02  0.31886042319E+02  0.00000000000E+00 0.  1.
         11    1    3    3    0    0 -0.20416246189E+02  0.26694767210E+02  0.49871989745E+00  0.33610748677E+02  0.51100000000E-03 0.  1.
        -11    1    3    3    0    0  0.20619760133E+01  0.24066810023E+01 -0.73841770157E+01  0.80355416112E+01  0.51100000000E-03 0. -1.
        -12    1    3    3    0    0  0.13994657214E+02 -0.26807539406E+01 -0.10425244306E+02  0.17655667392E+02  0.00000000000E+00 0.  1.
</event>
<event>
 7    1  0.1335379E-011  0.5930190E+02  0.7816164E-02  0.1266605E+00
        -11   -1    0    0    0    0  0.00000000000E+00  0.00000000000E+00  0.45593999997E+02  0.45594000000E+02  0.51100000000E-03 0. -1.
         11   -1    0    0    0    0 -0.00000000000E+00 -0.00000000000E+00 -0.45593999997E+02  0.45594000000E+02  0.51100000000E-03 0.  1.
    9900012    2    1    2    0    0  0.31254521078E+01  0.18417002639E+02  0.25841221636E+02  0.59301903143E+02  0.49999925437E+02 0.  0.
        -12    1    1    2    0    0 -0.31254521078E+01 -0.18417002639E+02 -0.25841221636E+02  0.31886096857E+02  0.00000000000E+00 0.  1.
         11    1    3    3    0    0 -0.18229985104E+01  0.80905763455E+01  0.31854597789E+02  0.32916502696E+02  0.51100000000E-03 0. -1.
        -11    1    3    3    0    0  0.37469682893E+01  0.13352774305E+02  0.51216685185E+01  0.14784040100E+02  0.51100000000E-03 0.  1.
        -12    1    3    3    0    0  0.12014823288E+01 -0.30263480109E+01 -0.11135044672E+02  0.11601360347E+02  0.00000000000E+00 0.  1.
</event>
<event>
 7    1  0.1335379E-011  0.5930197E+02  0.7816164E-02  0.1266605E+00
        -11   -1    0    0    0    0  0.00000000000E+00  0.00000000000E+00  0.45593999997E+02  0.45594000000E+02  0.51100000000E-03 0.  1.
         11   -1    0    0    0    0 -0.00000000000E+00 -0.00000000000E+00 -0.45593999997E+02  0.45594000000E+02  0.51100000000E-03 0. -1.
    9900012    2    1    2    0    0  0.66737442845E+01  0.27265833628E+02 -0.15124631649E+02  0.59301968125E+02  0.50000043948E+02 0.  0.
        -12    1    1    2    0    0 -0.66737442845E+01 -0.27265833628E+02  0.15124631649E+02  0.31886031875E+02  0.00000000000E+00 0.  1.
         11    1    3    3    0    0  0.33186008959E+00  0.68642852732E+01 -0.24448984089E+02  0.25396483352E+02  0.51100000000E-03 0. -1.
        -11    1    3    3    0    0 -0.71615055186E+01  0.92505020311E+01 -0.34868211612E+01  0.12207246667E+02  0.51100000000E-03 0.  1.
        -12    1    3    3    0    0  0.13503389714E+02  0.11151046323E+02  0.12811173601E+02  0.21698238106E+02  0.00000000000E+00 0.  1.
</event>
<event>
 7    1  0.1335379E-011  0.5930193E+02  0.7816164E-02  0.1266605E+00
        -11   -1    0    0    0    0  0.00000000000E+00  0.00000000000E+00  0.45593999997E+02  0.45594000000E+02  0.51100000000E-03 0.  1.
         11   -1    0    0    0    0 -0.00000000000E+00 -0.00000000000E+00 -0.45593999997E+02  0.45594000000E+02  0.51100000000E-03 0. -1.
    9900012    2    1    2    0    0 -0.29317022978E+02  0.38522815816E+01 -0.11932878801E+02  0.59301929277E+02  0.49999973098E+02 0.  0.
        -12    1    1    2    0    0  0.29317022978E+02 -0.38522815816E+01  0.11932878801E+02  0.31886070723E+02  0.00000000000E+00 0.  1.
         11    1    3    3    0    0 -0.57742569974E+01  0.12509342289E+01  0.81692846206E+01  0.10081869459E+02  0.51100000000E-03 0. -1.
        -11    1    3    3    0    0 -0.28197532245E+01 -0.16225400395E+02 -0.40985181557E+01  0.16970930368E+02  0.51100000000E-03 0.  1.
         12    1    3    3    0    0 -0.20723012756E+02  0.18826747748E+02 -0.16003645266E+02  0.32249129450E+02  0.00000000000E+00 0. -1.
</event>
<event>
 7    1  0.1335379E-011  0.5930194E+02  0.7816164E-02  0.1266605E+00
        -11   -1    0    0    0    0  0.00000000000E+00  0.00000000000E+00  0.45593999997E+02  0.45594000000E+02  0.51100000000E-03 0.  1.
         11   -1    0    0    0    0 -0.00000000000E+00 -0.00000000000E+00 -0.45593999997E+02  0.45594000000E+02  0.51100000000E-03 0. -1.
    9900012    2    1    2    0    0 -0.19700958165E+02  0.21767274262E+02  0.12441019420E+02  0.59301938066E+02  0.49999989127E+02 0.  0.
        -12    1    1    2    0    0  0.19700958165E+02 -0.21767274262E+02 -0.12441019420E+02  0.31886061934E+02  0.00000000000E+00 0.  1.
         11    1    3    3    0    0  0.93052159124E+01 -0.75061963370E+01  0.11044780586E+02  0.16276277372E+02  0.51100000000E-03 0. -1.
        -11    1    3    3    0    0 -0.13510801300E+02  0.10069666842E+02 -0.49204829680E+01  0.17554232964E+02  0.51100000000E-03 0.  1.
        -12    1    3    3    0    0 -0.15495372778E+02  0.19203803758E+02  0.63167218026E+01  0.25471427730E+02  0.00000000000E+00 0.  1.
</event>
<event>
 7    1  0.1335379E-011  0.5930193E+02  0.7816164E-02  0.1266605E+00
        -11   -1    0    0    0    0  0.00000000000E+00  0.00000000000E+00  0.45593999997E+02  0.45594000000E+02  0.51100000000E-03 0.  1.
         11   -1    0    0    0    0 -0.00000000000E+00 -0.00000000000E+00 -0.45593999997E+02  0.45594000000E+02  0.51100000000E-03 0. -1.
    9900012    2    1    2    0    0  0.16440160261E+02 -0.14417416375E+02 -0.23207335663E+02  0.59301934189E+02  0.49999982056E+02 0.  0.
        -12    1    1    2    0    0 -0.16440160261E+02  0.14417416375E+02  0.23207335663E+02  0.31886065811E+02  0.00000000000E+00 0.  1.
         11    1    3    3    0    0  0.44706613804E+01 -0.33563719323E+01  0.28877947876E+01  0.62921701123E+01  0.51100000000E-03 0. -1.
        -11    1    3    3    0    0  0.87655032713E+00 -0.86609450367E+01  0.11108704790E+02  0.14113243134E+02  0.51100000000E-03 0.  1.
         12    1    3    3    0    0  0.11092948554E+02 -0.24000994060E+01 -0.37203835240E+02  0.38896520942E+02  0.00000000000E+00 0. -1.
</event>
<event>
 7    1  0.1335379E-011  0.5930195E+02  0.7816164E-02  0.1266605E+00
        -11   -1    0    0    0    0  0.00000000000E+00  0.00000000000E+00  0.45593999997E+02  0.45594000000E+02  0.51100000000E-03 0.  1.
         11   -1    0    0    0    0 -0.00000000000E+00 -0.00000000000E+00 -0.45593999997E+02  0.45594000000E+02  0.51100000000E-03 0. -1.
    9900012    2    1    2    0    0 -0.21180762553E+02  0.49639420916E+01 -0.23312110523E+02  0.59301954142E+02  0.50000018446E+02 0.  0.
        -12    1    1    2    0    0  0.21180762553E+02 -0.49639420916E+01  0.23312110523E+02  0.31886045858E+02  0.00000000000E+00 0.  1.
         11    1    3    3    0    0 -0.36236955538E+01 -0.81420521139E+00 -0.19123898125E+02  0.19481210931E+02  0.51100000000E-03 0. -1.
        -11    1    3    3    0    0 -0.24170962790E+01  0.16489815745E+02  0.70934619581E+01  0.18112801565E+02  0.51100000000E-03 0.  1.
         12    1    3    3    0    0 -0.15139970721E+02 -0.10711668442E+02 -0.11281674356E+02  0.21707941646E+02  0.00000000000E+00 0. -1.
</event>
<event>
 7    1  0.1335379E-011  0.5930190E+02  0.7816164E-02  0.1266605E+00
        -11   -1    0    0    0    0  0.00000000000E+00  0.00000000000E+00  0.45593999997E+02  0.45594000000E+02  0.51100000000E-03 0.  1.
         11   -1    0    0    0    0 -0.00000000000E+00 -0.00000000000E+00 -0.45593999997E+02  0.45594000000E+02  0.51100000000E-03 0. -1.
    9900012    2    1    2    0    0  0.98481132088E+01  0.26342892368E+02 -0.15026302821E+02  0.59301904464E+02  0.49999927845E+02 0.  0.
        -12    1    1    2    0    0 -0.98481132088E+01 -0.26342892368E+02  0.15026302821E+02  0.31886095536E+02  0.00000000000E+00 0.  1.
         11    1    3    3    0    0  0.83838528702E+01  0.80599529818E+01 -0.78226133627E+01  0.14015887810E+02  0.51100000000E-03 0. -1.
        -11    1    3    3    0    0 -0.12314681303E+02 -0.78062066280E+01 -0.59719632317E+01  0.15756033213E+02  0.51100000000E-03 0.  1.
         12    1    3    3    0    0  0.13778941641E+02  0.26089146014E+02 -0.12317262265E+01  0.29529983441E+02  0.00000000000E+00 0. -1.
</event>
<event>
 7    1  0.1335379E-011  0.5930199E+02  0.7816164E-02  0.1266605E+00
        -11   -1    0    0    0    0  0.00000000000E+00  0.00000000000E+00  0.45593999997E+02  0.45594000000E+02  0.51100000000E-03 0.  1.
         11   -1    0    0    0    0 -0.00000000000E+00 -0.00000000000E+00 -0.45593999997E+02  0.45594000000E+02  0.51100000000E-03 0. -1.
    9900012    2    1    2    0    0 -0.23641753390E+01  0.31238649219E+02  0.59392753737E+01  0.59301991752E+02  0.50000087037E+02 0.  0.
        -12    1    1    2    0    0  0.23641753390E+01 -0.31238649219E+02 -0.59392753737E+01  0.31886008248E+02  0.00000000000E+00 0.  1.
         11    1    3    3    0    0  0.19816364162E+02  0.84057125096E+01 -0.69667697332E+01  0.22624768997E+02  0.51100000000E-03 0. -1.
        -11    1    3    3    0    0 -0.10672326889E+02  0.19633071964E+02  0.92538354336E+01  0.24186557144E+02  0.51100000000E-03 0.  1.
        -12    1    3    3    0    0 -0.11508212612E+02  0.31998647449E+01  0.36522096734E+01  0.12490665611E+02  0.00000000000E+00 0.  1.
</event>
<event>
 7    1  0.1335379E-011  0.5930197E+02  0.7816164E-02  0.1266605E+00
        -11   -1    0    0    0    0  0.00000000000E+00  0.00000000000E+00  0.45593999997E+02  0.45594000000E+02  0.51100000000E-03 0. -1.
         11   -1    0    0    0    0 -0.00000000000E+00 -0.00000000000E+00 -0.45593999997E+02  0.45594000000E+02  0.51100000000E-03 0.  1.
    9900012    2    1    2    0    0  0.31797805944E+02  0.21402758243E+01  0.10186611379E+01  0.59301969924E+02  0.50000047229E+02 0.  0.
        -12    1    1    2    0    0 -0.31797805944E+02 -0.21402758243E+01 -0.10186611379E+01  0.31886030076E+02  0.00000000000E+00 0.  1.
         11    1    3    3    0    0  0.61050547401E+01 -0.34603702769E+01 -0.93690433362E+01  0.11705760511E+02  0.51100000000E-03 0. -1.
        -11    1    3    3    0    0  0.33477591589E-01  0.13554838467E+02  0.15133419024E+02  0.20316376110E+02  0.51100000000E-03 0.  1.
         12    1    3    3    0    0  0.25659273612E+02 -0.79541923658E+01 -0.47457145500E+01  0.27279833304E+02  0.00000000000E+00 0. -1.
</event>
<event>
 7    1  0.1335379E-011  0.5930194E+02  0.7816164E-02  0.1266605E+00
        -11   -1    0    0    0    0  0.00000000000E+00  0.00000000000E+00  0.45593999997E+02  0.45594000000E+02  0.51100000000E-03 0. -1.
         11   -1    0    0    0    0 -0.00000000000E+00 -0.00000000000E+00 -0.45593999997E+02  0.45594000000E+02  0.51100000000E-03 0.  1.
    9900012    2    1    2    0    0  0.66020372851E+01 -0.17589353903E+02  0.25763318771E+02  0.59301939392E+02  0.49999991545E+02 0.  0.
        -12    1    1    2    0    0 -0.66020372851E+01  0.17589353903E+02 -0.25763318771E+02  0.31886060608E+02  0.00000000000E+00 0.  1.
         11    1    3    3    0    0 -0.64644998266E+00 -0.70753749801E+01  0.33393619635E+02  0.34141070008E+02  0.51100000000E-03 0. -1.
        -11    1    3    3    0    0  0.83577317005E+01 -0.11398708921E+02  0.29891504844E+01  0.14447050395E+02  0.51100000000E-03 0.  1.
        -12    1    3    3    0    0 -0.11092444328E+01  0.88472999836E+00 -0.10619451349E+02  0.10713818989E+02  0.00000000000E+00 0.  1.
</event>
<event>
 7    1  0.1335379E-011  0.5930196E+02  0.7816164E-02  0.1266605E+00
        -11   -1    0    0    0    0  0.00000000000E+00  0.00000000000E+00  0.45593999997E+02  0.45594000000E+02  0.51100000000E-03 0.  1.
         11   -1    0    0    0    0 -0.00000000000E+00 -0.00000000000E+00 -0.45593999997E+02  0.45594000000E+02  0.51100000000E-03 0. -1.
    9900012    2    1    2    0    0  0.11779166776E+02  0.29589589182E+02 -0.15578051318E+01  0.59301963640E+02  0.50000035768E+02 0.  0.
        -12    1    1    2    0    0 -0.11779166776E+02 -0.29589589182E+02  0.15578051318E+01  0.31886036360E+02  0.00000000000E+00 0.  1.
         11    1    3    3    0    0 -0.34885365647E+01  0.93338401356E+01  0.77268782838E+01  0.12609326204E+02  0.51100000000E-03 0. -1.
        -11    1    3    3    0    0  0.12519674329E+02 -0.79479778880E+01 -0.10752364442E+02  0.18317367146E+02  0.51100000000E-03 0.  1.
         12    1    3    3    0    0  0.27480290121E+01  0.28203726935E+02  0.14676810263E+01  0.28375270290E+02  0.00000000000E+00 0. -1.
</event>
<event>
 7    1  0.1335379E-011  0.5930193E+02  0.7816164E-02  0.1266605E+00
        -11   -1    0    0    0    0  0.00000000000E+00  0.00000000000E+00  0.45593999997E+02  0.45594000000E+02  0.51100000000E-03 0. -1.
         11   -1    0    0    0    0 -0.00000000000E+00 -0.00000000000E+00 -0.45593999997E+02  0.45594000000E+02  0.51100000000E-03 0.  1.
    9900012    2    1    2    0    0 -0.17492103055E+02 -0.32126097665E+01  0.26465580308E+02  0.59301929815E+02  0.49999974080E+02 0.  0.
        -12    1    1    2    0    0  0.17492103055E+02  0.32126097665E+01 -0.26465580308E+02  0.31886070185E+02  0.00000000000E+00 0.  1.
         11    1    3    3    0    0 -0.96475108737E+01  0.27768410383E+01  0.16162423912E+02  0.19026540915E+02  0.51100000000E-03 0. -1.
        -11    1    3    3    0    0  0.14239947584E+02 -0.41509323782E+01  0.10398063526E+02  0.18114250527E+02  0.51100000000E-03 0.  1.
         12    1    3    3    0    0 -0.22084539765E+02 -0.18385184267E+01 -0.94907130180E-01  0.22161138373E+02  0.00000000000E+00 0. -1.
</event>
<event>
 7    1  0.1335379E-011  0.5930199E+02  0.7816164E-02  0.1266605E+00
        -11   -1    0    0    0    0  0.00000000000E+00  0.00000000000E+00  0.45593999997E+02  0.45594000000E+02  0.51100000000E-03 0.  1.
         11   -1    0    0    0    0 -0.00000000000E+00 -0.00000000000E+00 -0.45593999997E+02  0.45594000000E+02  0.51100000000E-03 0. -1.
    9900012    2    1    2    0    0 -0.96349575460E+01  0.58297568922E+01 -0.29831180070E+02  0.59301987758E+02  0.50000079753E+02 0.  0.
        -12    1    1    2    0    0  0.96349575460E+01 -0.58297568922E+01  0.29831180070E+02  0.31886012242E+02  0.00000000000E+00 0.  1.
         11    1    3    3    0    0  0.38973153819E+01  0.11802982028E+02 -0.51069314567E+01  0.13438013287E+02  0.51100000000E-03 0. -1.
        -11    1    3    3    0    0  0.90225005265E+01  0.59627220274E+01 -0.73433255483E+00  0.10839687001E+02  0.51100000000E-03 0.  1.
         12    1    3    3    0    0 -0.22554773454E+02 -0.11935947163E+02 -0.23989916059E+02  0.35024287470E+02  0.00000000000E+00 0. -1.
</event>
<event>
 7    1  0.1335379E-011  0.5930195E+02  0.7816164E-02  0.1266605E+00
        -11   -1    0    0    0    0  0.00000000000E+00  0.00000000000E+00  0.45593999997E+02  0.45594000000E+02  0.51100000000E-03 0.  1.
         11   -1    0    0    0    0 -0.00000000000E+00 -0.00000000000E+00 -0.45593999997E+02  0.45594000000E+02  0.51100000000E-03 0. -1.
    9900012    2    1    2    0    0  0.20505157658E+02 -0.57749357656E+01 -0.23725700617E+02  0.59301949077E+02  0.50000009209E+02 0.  0.
        -12    1    1    2    0    0 -0.20505157658E+02  0.57749357656E+01  0.23725700617E+02  0.31886050923E+02  0.00000000000E+00 0.  1.
         11    1    3    3    0    0  0.14114712625E+02 -0.66472921900E+01 -0.18855205813E+02  0.24473054417E+02  0.51100000000E-03 0. -1.
        -11    1    3    3    0    0  0.18428956307E+02  0.25010806941E+01  0.49074255374E+01  0.19234465443E+02  0.51100000000E-03 0.  1.
         12    1    3    3    0    0 -0.12038511274E+02 -0.16287242697E+01 -0.97779203410E+01  0.15594429218E+02  0.00000000000E+00 0. -1.
</event>
<event>
 7    1  0.1335379E-011  0.5930194E+02  0.7816164E-02  0.1266605E+00
        -11   -1    0    0    0    0  0.00000000000E+00  0.00000000000E+00  0.45593999997E+02  0.45594000000E+02  0.51100000000E-03 0.  1.
         11   -1    0    0    0    0 -0.00000000000E+00 -0.00000000000E+00 -0.45593999997E+02  0.45594000000E+02  0.51100000000E-03 0. -1.
    9900012    2    1    2    0    0  0.34322784554E+01 -0.31680803826E+02  0.11255863645E+01  0.59301940176E+02  0.49999992975E+02 0.  0.
        -12    1    1    2    0    0 -0.34322784554E+01  0.31680803826E+02 -0.11255863645E+01  0.31886059824E+02  0.00000000000E+00 0.  1.
         11    1    3    3    0    0 -0.10446021339E+02 -0.51043935725E+01  0.73716971914E+01  0.13766485220E+02  0.51100000000E-03 0. -1.
        -11    1    3    3    0    0 -0.12706536990E+01 -0.44806615958E+01  0.12166836804E+02  0.13027770616E+02  0.51100000000E-03 0.  1.
         12    1    3    3    0    0  0.15148953494E+02 -0.22095748658E+02 -0.18412947631E+02  0.32507684340E+02  0.00000000000E+00 0. -1.
</event>
<event>
 7    1  0.1335379E-011  0.5930194E+02  0.7816164E-02  0.1266605E+00
        -11   -1    0    0    0    0  0.00000000000E+00  0.00000000000E+00  0.45593999997E+02  0.45594000000E+02  0.51100000000E-03 0. -1.
         11   -1    0    0    0    0 -0.00000000000E+00 -0.00000000000E+00 -0.45593999997E+02  0.45594000000E+02  0.51100000000E-03 0.  1.
    9900012    2    1    2    0    0  0.20563153956E+02 -0.22277232616E+02  0.98794057433E+01  0.59301936406E+02  0.49999986100E+02 0.  0.
        -12    1    1    2    0    0 -0.20563153956E+02  0.22277232616E+02 -0.98794057433E+01  0.31886063594E+02  0.00000000000E+00 0.  1.
         11    1    3    3    0    0  0.91883701453E+01  0.57385493124E+01 -0.23554237229E+00  0.10835708311E+02  0.51100000000E-03 0. -1.
        -11    1    3    3    0    0  0.16413361804E+02  0.12228893356E+01 -0.16665757203E+01  0.16543016017E+02  0.51100000000E-03 0.  1.
         12    1    3    3    0    0 -0.50385779931E+01 -0.29238671264E+02  0.11781523836E+02  0.31923212078E+02  0.00000000000E+00 0. -1.
</event>
<event>
 7    1  0.1335379E-011  0.5930195E+02  0.7816164E-02  0.1266605E+00
        -11   -1    0    0    0    0  0.00000000000E+00  0.00000000000E+00  0.45593999997E+02  0.45594000000E+02  0.51100000000E-03 0.  1.
         11   -1    0    0    0    0 -0.00000000000E+00 -0.00000000000E+00 -0.45593999997E+02  0.45594000000E+02  0.51100000000E-03 0. -1.
    9900012    2    1    2    0    0 -0.57331447472E+01 -0.98860847573E+01 -0.29767715080E+02  0.59301945343E+02  0.50000002398E+02 0.  0.
        -12    1    1    2    0    0  0.57331447472E+01  0.98860847573E+01  0.29767715080E+02  0.31886054657E+02  0.00000000000E+00 0.  1.
         11    1    3    3    0    0 -0.12785338597E+02 -0.15723814628E+02 -0.23706567895E+02  0.31188212375E+02  0.51100000000E-03 0. -1.
        -11    1    3    3    0    0 -0.58958442417E+01  0.35744817257E+01 -0.11882515046E+02  0.13737978854E+02  0.51100000000E-03 0.  1.
        -12    1    3    3    0    0  0.12948038091E+02  0.22632481450E+01  0.58213678608E+01  0.14375754114E+02  0.00000000000E+00 0.  1.
</event>
<event>
 7    1  0.1335379E-011  0.5930195E+02  0.7816164E-02  0.1266605E+00
        -11   -1    0    0    0    0  0.00000000000E+00  0.00000000000E+00  0.45593999997E+02  0.45594000000E+02  0.51100000000E-03 0. -1.
         11   -1    0    0    0    0 -0.00000000000E+00 -0.00000000000E+00 -0.45593999997E+02  0.45594000000E+02  0.51100000000E-03 0.  1.
    9900012    2    1    2    0    0 -0.13681832563E+02 -0.10689763789E+02  0.26744284883E+02  0.59301947155E+02  0.50000005703E+02 0.  0.
        -12    1    1    2    0    0  0.13681832563E+02  0.10689763789E+02 -0.26744284883E+02  0.31886052845E+02  0.00000000000E+00 0.  1.
         11    1    3    3    0    0 -0.16430584350E+02 -0.30945987712E+01 -0.34180509223E+01  0.17065278082E+02  0.51100000000E-03 0. -1.
        -11    1    3    3    0    0  0.43465214412E+01 -0.73595949532E+00 -0.48319162265E+01  0.65407415251E+01  0.51100000000E-03 0.  1.
         12    1    3    3    0    0 -0.15977696544E+01 -0.68592055227E+01  0.34994252031E+02  0.35695927548E+02  0.00000000000E+00 0. -1.
</event>
<event>
 7    1  0.1335379E-011  0.5930194E+02  0.7816164E-02  0.1266605E+00
        -11   -1    0    0    0    0  0.00000000000E+00  0.00000000000E+00  0.45593999997E+02  0.45594000000E+02  0.51100000000E-03 0. -1.
         11   -1    0    0    0    0 -0.00000000000E+00 -0.00000000000E+00 -0.45593999997E+02  0.45594000000E+02  0.51100000000E-03 0.  1.
    9900012    2    1    2    0    0  0.36937227912E+01  0.34194177630E+01  0.31486263946E+02  0.59301939986E+02  0.49999992630E+02 0.  0.
        -12    1    1    2    0    0 -0.36937227912E+01 -0.34194177630E+01 -0.31486263946E+02  0.31886060014E+02  0.00000000000E+00 0.  1.
         11    1    3    3    0    0  0.89169346931E+01 -0.13995903389E+01 -0.10790905536E+02  0.14068198889E+02  0.51100000000E-03 0.  1.
        -11    1    3    3    0    0 -0.80090071745E+01 -0.19011786176E+01  0.16348553981E+02  0.18303931097E+02  0.51100000000E-03 0. -1.
        -12    1    3    3    0    0  0.27857952726E+01  0.67201867195E+01  0.25928615501E+02  0.26929810000E+02  0.00000000000E+00 0.  1.
</event>
<event>
 7    1  0.1335379E-011  0.5930193E+02  0.7816164E-02  0.1266605E+00
        -11   -1    0    0    0    0  0.00000000000E+00  0.00000000000E+00  0.45593999997E+02  0.45594000000E+02  0.51100000000E-03 0.  1.
         11   -1    0    0    0    0 -0.00000000000E+00 -0.00000000000E+00 -0.45593999997E+02  0.45594000000E+02  0.51100000000E-03 0. -1.
    9900012    2    1    2    0    0 -0.24278350160E+02  0.15569232822E+02 -0.13597148087E+02  0.59301925716E+02  0.49999966603E+02 0.  0.
        -12    1    1    2    0    0  0.24278350160E+02 -0.15569232822E+02  0.13597148087E+02  0.31886074284E+02  0.00000000000E+00 0.  1.
         11    1    3    3    0    0 -0.97485684609E+00 -0.44580110824E+01  0.23043359244E+01  0.51121593281E+01  0.51100000000E-03 0. -1.
        -11    1    3    3    0    0 -0.44292086723E+01  0.88055308198E+01 -0.27601687569E+02  0.29308845412E+02  0.51100000000E-03 0.  1.
         12    1    3    3    0    0 -0.18874284642E+02  0.11221713085E+02  0.11700203558E+02  0.24880920975E+02  0.00000000000E+00 0. -1.
</event>
<event>
 7    1  0.1335379E-011  0.5930190E+02  0.7816164E-02  0.1266605E+00
        -11   -1    0    0    0    0  0.00000000000E+00  0.00000000000E+00  0.45593999997E+02  0.45594000000E+02  0.51100000000E-03 0.  1.
         11   -1    0    0    0    0 -0.00000000000E+00 -0.00000000000E+00 -0.45593999997E+02  0.45594000000E+02  0.51100000000E-03 0. -1.
    9900012    2    1    2    0    0 -0.86410383951E+01  0.10495565630E+02 -0.28842659290E+02  0.59301898994E+02  0.49999917869E+02 0.  0.
        -12    1    1    2    0    0  0.86410383951E+01 -0.10495565630E+02  0.28842659290E+02  0.31886101006E+02  0.00000000000E+00 0.  1.
         11    1    3    3    0    0 -0.12136240090E+02  0.12364901005E+02 -0.11163497068E+02  0.20610743981E+02  0.51100000000E-03 0. -1.
        -11    1    3    3    0    0 -0.46049591623E+01  0.82134362799E+01 -0.22887145735E+02  0.24748487319E+02  0.51100000000E-03 0.  1.
        -12    1    3    3    0    0  0.81001608576E+01 -0.10082771655E+02  0.52079835123E+01  0.13942667694E+02  0.00000000000E+00 0.  1.
</event>
<event>
 7    1  0.1335379E-011  0.5930195E+02  0.7816164E-02  0.1266605E+00
        -11   -1    0    0    0    0  0.00000000000E+00  0.00000000000E+00  0.45593999997E+02  0.45594000000E+02  0.51100000000E-03 0.  1.
         11   -1    0    0    0    0 -0.00000000000E+00 -0.00000000000E+00 -0.45593999997E+02  0.45594000000E+02  0.51100000000E-03 0. -1.
    9900012    2    1    2    0    0  0.13408461762E+02 -0.21902680187E+02  0.18899891024E+02  0.59301950905E+02  0.50000012542E+02 0.  0.
        -12    1    1    2    0    0 -0.13408461762E+02  0.21902680187E+02 -0.18899891024E+02  0.31886049095E+02  0.00000000000E+00 0.  1.
         11    1    3    3    0    0  0.48807527725E+01  0.69844137846E+01  0.26907712020E+01  0.89355488619E+01  0.51100000000E-03 0. -1.
        -11    1    3    3    0    0 -0.14101968397E+02 -0.55186181454E+01  0.57135126149E+01  0.16185329331E+02  0.51100000000E-03 0.  1.
        -12    1    3    3    0    0  0.22629677387E+02 -0.23368475826E+02  0.10495607207E+02  0.34181072711E+02  0.00000000000E+00 0.  1.
</event>
<event>
 7    1  0.1335379E-011  0.5930192E+02  0.7816164E-02  0.1266605E+00
        -11   -1    0    0    0    0  0.00000000000E+00  0.00000000000E+00  0.45593999997E+02  0.45594000000E+02  0.51100000000E-03 0. -1.
         11   -1    0    0    0    0 -0.00000000000E+00 -0.00000000000E+00 -0.45593999997E+02  0.45594000000E+02  0.51100000000E-03 0.  1.
    9900012    2    1    2    0    0 -0.16791153641E+01 -0.21365432533E+02  0.23609760758E+02  0.59301922493E+02  0.49999960726E+02 0.  0.
        -12    1    1    2    0    0  0.16791153641E+01  0.21365432533E+02 -0.23609760758E+02  0.31886077507E+02  0.00000000000E+00 0.  1.
         11    1    3    3    0    0  0.10109616562E+02 -0.28225349343E+01  0.10085982593E+02  0.14556719947E+02  0.51100000000E-03 0. -1.
        -11    1    3    3    0    0  0.43493604513E+01 -0.18802398049E+02  0.19593117069E+02  0.27501588053E+02  0.51100000000E-03 0.  1.
        -12    1    3    3    0    0 -0.16138092377E+02  0.25950045071E+00 -0.60693389040E+01  0.17243614493E+02  0.00000000000E+00 0.  1.
</event>
<event>
 7    1  0.1335379E-011  0.5930196E+02  0.7816164E-02  0.1266605E+00
        -11   -1    0    0    0    0  0.00000000000E+00  0.00000000000E+00  0.45593999997E+02  0.45594000000E+02  0.51100000000E-03 0. -1.
         11   -1    0    0    0    0 -0.00000000000E+00 -0.00000000000E+00 -0.45593999997E+02  0.45594000000E+02  0.51100000000E-03 0.  1.
    9900012    2    1    2    0    0 -0.16779488912E+02  0.22474535547E+02  0.15167854951E+02  0.59301955717E+02  0.50000021319E+02 0.  0.
        -12    1    1    2    0    0  0.16779488912E+02 -0.22474535547E+02 -0.15167854951E+02  0.31886044283E+02  0.00000000000E+00 0.  1.
         11    1    3    3    0    0 -0.66847263142E+01  0.64034742110E+01  0.26620004218E+00  0.92607186865E+01  0.51100000000E-03 0. -1.
        -11    1    3    3    0    0  0.19204252867E+01  0.16966240917E+02  0.27651970715E+02  0.32498813038E+02  0.51100000000E-03 0.  1.
         12    1    3    3    0    0 -0.12015187885E+02 -0.89517958197E+00 -0.12750315806E+02  0.17542423993E+02  0.00000000000E+00 0. -1.
</event>
<event>
 7    1  0.1335379E-011  0.5930194E+02  0.7816164E-02  0.1266605E+00
        -11   -1    0    0    0    0  0.00000000000E+00  0.00000000000E+00  0.45593999997E+02  0.45594000000E+02  0.51100000000E-03 0.  1.
         11   -1    0    0    0    0 -0.00000000000E+00 -0.00000000000E+00 -0.45593999997E+02  0.45594000000E+02  0.51100000000E-03 0. -1.
    9900012    2    1    2    0    0 -0.54743955218E+01  0.19112777556E+02 -0.24928973321E+02  0.59301937479E+02  0.49999988057E+02 0.  0.
        -12    1    1    2    0    0  0.54743955218E+01 -0.19112777556E+02  0.24928973321E+02  0.31886062521E+02  0.00000000000E+00 0.  1.
         11    1    3    3    0    0  0.51671330062E+01  0.16428346563E+02 -0.96822794730E+01  0.19756932210E+02  0.51100000000E-03 0. -1.
        -11    1    3    3    0    0  0.41063154671E+01  0.14673334258E+02 -0.93187984261E-01  0.15237363591E+02  0.51100000000E-03 0.  1.
        -12    1    3    3    0    0 -0.14747843995E+02 -0.11988903265E+02 -0.15153505864E+02  0.24307641678E+02  0.00000000000E+00 0.  1.
</event>
<event>
 7    1  0.1335379E-011  0.5930194E+02  0.7816164E-02  0.1266605E+00
        -11   -1    0    0    0    0  0.00000000000E+00  0.00000000000E+00  0.45593999997E+02  0.45594000000E+02  0.51100000000E-03 0.  1.
         11   -1    0    0    0    0 -0.00000000000E+00 -0.00000000000E+00 -0.45593999997E+02  0.45594000000E+02  0.51100000000E-03 0. -1.
    9900012    2    1    2    0    0 -0.15141151909E+02 -0.52761812749E+01 -0.27561358906E+02  0.59301936042E+02  0.49999985436E+02 0.  0.
        -12    1    1    2    0    0  0.15141151909E+02  0.52761812749E+01  0.27561358906E+02  0.31886063958E+02  0.00000000000E+00 0.  1.
         11    1    3    3    0    0  0.28823623556E+01  0.53299396932E+01 -0.26006308211E+02  0.26702890048E+02  0.51100000000E-03 0. -1.
        -11    1    3    3    0    0  0.31967926695E+01 -0.30652887165E+01 -0.80264900637E+01  0.91673344704E+01  0.51100000000E-03 0.  1.
        -12    1    3    3    0    0 -0.21220306935E+02 -0.75408322516E+01  0.64714393682E+01  0.23431711524E+02  0.00000000000E+00 0.  1.
</event>
<event>
 7    1  0.1335379E-011  0.5930194E+02  0.7816164E-02  0.1266605E+00
        -11   -1    0    0    0    0  0.00000000000E+00  0.00000000000E+00  0.45593999997E+02  0.45594000000E+02  0.51100000000E-03 0.  1.
         11   -1    0    0    0    0 -0.00000000000E+00 -0.00000000000E+00 -0.45593999997E+02  0.45594000000E+02  0.51100000000E-03 0. -1.
    9900012    2    1    2    0    0  0.89695120079E+00  0.11290685676E+02 -0.29806651840E+02  0.59301943511E+02  0.49999999058E+02 0.  0.
        -12    1    1    2    0    0 -0.89695120079E+00 -0.11290685676E+02  0.29806651840E+02  0.31886056489E+02  0.00000000000E+00 0.  1.
         11    1    3    3    0    0  0.17955183844E+02  0.17018008540E+02 -0.31939184217E+02  0.40399414974E+02  0.51100000000E-03 0. -1.
        -11    1    3    3    0    0 -0.22748611769E+01 -0.17466202847E+01  0.21635242974E+01  0.35925636305E+01  0.51100000000E-03 0.  1.
        -12    1    3    3    0    0 -0.14783371466E+02 -0.39807025799E+01 -0.30991920467E-01  0.15309964907E+02  0.00000000000E+00 0.  1.
</event>
<event>
 7    1  0.1335379E-011  0.5930194E+02  0.7816164E-02  0.1266605E+00
        -11   -1    0    0    0    0  0.00000000000E+00  0.00000000000E+00  0.45593999997E+02  0.45594000000E+02  0.51100000000E-03 0. -1.
         11   -1    0    0    0    0 -0.00000000000E+00 -0.00000000000E+00 -0.45593999997E+02  0.45594000000E+02  0.51100000000E-03 0.  1.
    9900012    2    1    2    0    0 -0.20744236200E+02 -0.22729169520E+02  0.83536014706E+01  0.59301935017E+02  0.49999983567E+02 0.  0.
        -12    1    1    2    0    0  0.20744236200E+02  0.22729169520E+02 -0.83536014706E+01  0.31886064983E+02  0.00000000000E+00 0.  1.
         11    1    3    3    0    0  0.57849701896E+01 -0.12342707919E+02  0.17963590606E+02  0.22549920323E+02  0.51100000000E-03 0. -1.
        -11    1    3    3    0    0 -0.90973074776E+01 -0.14849617705E+02 -0.58337173530E+01  0.18365848953E+02  0.51100000000E-03 0.  1.
        -12    1    3    3    0    0 -0.17431898912E+02  0.44631561053E+01 -0.37762717822E+01  0.18386165741E+02  0.00000000000E+00 0.  1.
</event>
<event>
 7    1  0.1335379E-011  0.5930195E+02  0.7816164E-02  0.1266605E+00
        -11   -1    0    0    0    0  0.00000000000E+00  0.00000000000E+00  0.45593999997E+02  0.45594000000E+02  0.51100000000E-03 0. -1.
         11   -1    0    0    0    0 -0.00000000000E+00 -0.00000000000E+00 -0.45593999997E+02  0.45594000000E+02  0.51100000000E-03 0.  1.
    9900012    2    1    2    0    0  0.19356506979E+02  0.22959684114E+02  0.10719093831E+02  0.59301946158E+02  0.50000003885E+02 0.  0.
        -12    1    1    2    0    0 -0.19356506979E+02 -0.22959684114E+02 -0.10719093831E+02  0.31886053842E+02  0.00000000000E+00 0.  1.
         11    1    3    3    0    0  0.99078969137E+00 -0.12318159453E+02  0.12341945035E+02  0.17465460888E+02  0.51100000000E-03 0.  1.
        -11    1    3    3    0    0  0.10329451828E+02  0.12830634305E+02 -0.61230659133E+01  0.17573124030E+02  0.51100000000E-03 0. -1.
        -12    1    3    3    0    0  0.80362654594E+01  0.22447209263E+02  0.45002147099E+01  0.24263361240E+02  0.00000000000E+00 0.  1.
</event>
<event>
 7    1  0.1335379E-011  0.5930193E+02  0.7816164E-02  0.1266605E+00
        -11   -1    0    0    0    0  0.00000000000E+00  0.00000000000E+00  0.45593999997E+02  0.45594000000E+02  0.51100000000E-03 0.  1.
         11   -1    0    0    0    0 -0.00000000000E+00 -0.00000000000E+00 -0.45593999997E+02  0.45594000000E+02  0.51100000000E-03 0. -1.
    9900012    2    1    2    0    0 -0.45117181336E+01 -0.30612190033E+02 -0.76980254251E+01  0.59301931340E+02  0.49999976861E+02 0.  0.
        -12    1    1    2    0    0  0.45117181336E+01  0.30612190033E+02  0.76980254251E+01  0.31886068660E+02  0.00000000000E+00 0.  1.
         11    1    3    3    0    0 -0.97055610265E+01 -0.23107183202E+02  0.13769278226E+01  0.25100513160E+02  0.51100000000E-03 0. -1.
        -11    1    3    3    0    0  0.13015848898E+01 -0.17071375716E+02  0.39579675102E+01  0.17572464230E+02  0.51100000000E-03 0.  1.
         12    1    3    3    0    0  0.38922580031E+01  0.95663688847E+01 -0.13032920758E+02  0.16628953950E+02  0.00000000000E+00 0. -1.
</event>
<event>
 7    1  0.1335379E-011  0.5930194E+02  0.7816164E-02  0.1266605E+00
        -11   -1    0    0    0    0  0.00000000000E+00  0.00000000000E+00  0.45593999997E+02  0.45594000000E+02  0.51100000000E-03 0.  1.
         11   -1    0    0    0    0 -0.00000000000E+00 -0.00000000000E+00 -0.45593999997E+02  0.45594000000E+02  0.51100000000E-03 0. -1.
    9900012    2    1    2    0    0 -0.17624864468E+02  0.14298659861E+02 -0.22397173940E+02  0.59301938440E+02  0.49999989809E+02 0.  0.
        -12    1    1    2    0    0  0.17624864468E+02 -0.14298659861E+02  0.22397173940E+02  0.31886061560E+02  0.00000000000E+00 0.  1.
         11    1    3    3    0    0  0.26967883615E+00  0.18673228665E+02 -0.28866516127E+02  0.34380778773E+02  0.51100000000E-03 0. -1.
        -11    1    3    3    0    0 -0.24375445446E+01  0.25309014710E+00  0.83266045042E+01  0.86797477418E+01  0.51100000000E-03 0.  1.
        -12    1    3    3    0    0 -0.15456998759E+02 -0.46276589519E+01 -0.18572623177E+01  0.16241411925E+02  0.00000000000E+00 0.  1.
</event>
<event>
 7    1  0.1335379E-011  0.5930195E+02  0.7816164E-02  0.1266605E+00
        -11   -1    0    0    0    0  0.00000000000E+00  0.00000000000E+00  0.45593999997E+02  0.45594000000E+02  0.51100000000E-03 0. -1.
         11   -1    0    0    0    0 -0.00000000000E+00 -0.00000000000E+00 -0.45593999997E+02  0.45594000000E+02  0.51100000000E-03 0.  1.
    9900012    2    1    2    0    0 -0.74425576143E+01  0.13287523748E+02  0.28013755558E+02  0.59301945812E+02  0.50000003254E+02 0.  0.
        -12    1    1    2    0    0  0.74425576143E+01 -0.13287523748E+02 -0.28013755558E+02  0.31886054188E+02  0.00000000000E+00 0.  1.
         11    1    3    3    0    0 -0.74891709859E+01  0.50113665165E+01  0.22441010695E+02  0.24182647450E+02  0.51100000000E-03 0. -1.
        -11    1    3    3    0    0 -0.10853122440E+01 -0.41187999484E+00  0.19027753784E+02  0.19063130964E+02  0.51100000000E-03 0.  1.
        -12    1    3    3    0    0  0.11319256156E+01  0.86880372267E+01 -0.13455008921E+02  0.16056167398E+02  0.00000000000E+00 0.  1.
</event>
<event>
 7    1  0.1335379E-011  0.5930193E+02  0.7816164E-02  0.1266605E+00
        -11   -1    0    0    0    0  0.00000000000E+00  0.00000000000E+00  0.45593999997E+02  0.45594000000E+02  0.51100000000E-03 0.  1.
         11   -1    0    0    0    0 -0.00000000000E+00 -0.00000000000E+00 -0.45593999997E+02  0.45594000000E+02  0.51100000000E-03 0. -1.
    9900012    2    1    2    0    0 -0.17867229105E+02  0.11708088295E+02  0.23672860028E+02  0.59301929227E+02  0.49999973007E+02 0.  0.
        -12    1    1    2    0    0  0.17867229105E+02 -0.11708088295E+02 -0.23672860028E+02  0.31886070773E+02  0.00000000000E+00 0.  1.
         11    1    3    3    0    0 -0.16219299312E+02  0.35426466926E+01  0.91383842715E+01  0.18950622236E+02  0.51100000000E-03 0. -1.
        -11    1    3    3    0    0 -0.40758243050E+01 -0.10781648115E+01  0.25476601992E+02  0.25823091071E+02  0.51100000000E-03 0.  1.
         12    1    3    3    0    0  0.24278945122E+01  0.92436064137E+01 -0.10942126235E+02  0.14528215921E+02  0.00000000000E+00 0. -1.
</event>
<event>
 7    1  0.1335379E-011  0.5930214E+02  0.7816164E-02  0.1266604E+00
        -11   -1    0    0    0    0  0.00000000000E+00  0.00000000000E+00  0.45593999997E+02  0.45594000000E+02  0.51100000000E-03 0. -1.
         11   -1    0    0    0    0 -0.00000000000E+00 -0.00000000000E+00 -0.45593999997E+02  0.45594000000E+02  0.51100000000E-03 0.  1.
    9900012    2    1    2    0    0 -0.25646305588E+02 -0.14803439181E+02 -0.11825118183E+02  0.59302137585E+02  0.50000353001E+02 0.  0.
        -12    1    1    2    0    0  0.25646305588E+02  0.14803439181E+02  0.11825118183E+02  0.31885862415E+02  0.00000000000E+00 0.  1.
         11    1    3    3    0    0 -0.57012038688E+00 -0.95794330521E+01  0.62443048126E+01  0.11449101175E+02  0.51100000000E-03 0. -1.
        -11    1    3    3    0    0  0.47664225369E+01 -0.12518807279E+02 -0.75739323101E+01  0.15388429757E+02  0.51100000000E-03 0.  1.
        -12    1    3    3    0    0 -0.29842607738E+02  0.72948011497E+01 -0.10495490685E+02  0.32464606653E+02  0.00000000000E+00 0.  1.
</event>
<event>
 7    1  0.1335379E-011  0.5930214E+02  0.7816164E-02  0.1266604E+00
        -11   -1    0    0    0    0  0.00000000000E+00  0.00000000000E+00  0.45593999997E+02  0.45594000000E+02  0.51100000000E-03 0. -1.
         11   -1    0    0    0    0 -0.00000000000E+00 -0.00000000000E+00 -0.45593999997E+02  0.45594000000E+02  0.51100000000E-03 0.  1.
    9900012    2    1    2    0    0  0.12554589924E+02 -0.19271397041E+02  0.22084012319E+02  0.59302139934E+02  0.50000357284E+02 0.  0.
        -12    1    1    2    0    0 -0.12554589924E+02  0.19271397041E+02 -0.22084012319E+02  0.31885860066E+02  0.00000000000E+00 0.  1.
         11    1    3    3    0    0  0.57264390887E+01  0.10441062950E+02 -0.33777846263E+01  0.12378098780E+02  0.51100000000E-03 0. -1.
        -11    1    3    3    0    0 -0.94357656139E+01 -0.96978936527E+01  0.10327841870E+02  0.17021960286E+02  0.51100000000E-03 0.  1.
         12    1    3    3    0    0  0.16263916449E+02 -0.20014566339E+02  0.15133955076E+02  0.29902080868E+02  0.00000000000E+00 0. -1.
</event>
<event>
 7    1  0.1335379E-011  0.5930200E+02  0.7816164E-02  0.1266605E+00
        -11   -1    0    0    0    0  0.00000000000E+00  0.00000000000E+00  0.45593999997E+02  0.45594000000E+02  0.51100000000E-03 0. -1.
         11   -1    0    0    0    0 -0.00000000000E+00 -0.00000000000E+00 -0.45593999997E+02  0.45594000000E+02  0.51100000000E-03 0.  1.
    9900012    2    1    2    0    0  0.25299343396E+02 -0.11952023359E+02  0.15290830914E+02  0.59301997606E+02  0.50000097714E+02 0.  0.
        -12    1    1    2    0    0 -0.25299343396E+02  0.11952023359E+02 -0.15290830914E+02  0.31886002394E+02  0.00000000000E+00 0.  1.
         11    1    3    3    0    0  0.14014140973E+02 -0.17152514300E+02  0.44128687701E+01  0.22584913218E+02  0.51100000000E-03 0. -1.
        -11    1    3    3    0    0  0.20345803703E+02 -0.40834183434E+01  0.16896363446E+01  0.20820204248E+02  0.51100000000E-03 0.  1.
         12    1    3    3    0    0 -0.90606012808E+01  0.92839092850E+01  0.91883257993E+01  0.15896880140E+02  0.00000000000E+00 0. -1.
</event>
<event>
 7    1  0.1335379E-011  0.5930194E+02  0.7816164E-02  0.1266605E+00
        -11   -1    0    0    0    0  0.00000000000E+00  0.00000000000E+00  0.45593999997E+02  0.45594000000E+02  0.51100000000E-03 0.  1.
         11   -1    0    0    0    0 -0.00000000000E+00 -0.00000000000E+00 -0.45593999997E+02  0.45594000000E+02  0.51100000000E-03 0. -1.
    9900012    2    1    2    0    0 -0.22810953207E+02  0.18143564637E+02  0.12930279766E+02  0.59301942565E+02  0.49999997332E+02 0.  0.
        -12    1    1    2    0    0  0.22810953207E+02 -0.18143564637E+02 -0.12930279766E+02  0.31886057435E+02  0.00000000000E+00 0.  1.
         11    1    3    3    0    0 -0.13131760589E+02  0.16856774646E+02  0.37311951617E+01  0.21691376288E+02  0.51100000000E-03 0. -1.
        -11    1    3    3    0    0 -0.11986042872E+02  0.16880613891E+02  0.53941595112E+01  0.21394328832E+02  0.51100000000E-03 0.  1.
         12    1    3    3    0    0  0.23068502542E+01 -0.15593823900E+02  0.38049250929E+01  0.16216237446E+02  0.00000000000E+00 0. -1.
</event>
<event>
 7    1  0.1335379E-011  0.5930194E+02  0.7816164E-02  0.1266605E+00
        -11   -1    0    0    0    0  0.00000000000E+00  0.00000000000E+00  0.45593999997E+02  0.45594000000E+02  0.51100000000E-03 0.  1.
         11   -1    0    0    0    0 -0.00000000000E+00 -0.00000000000E+00 -0.45593999997E+02  0.45594000000E+02  0.51100000000E-03 0. -1.
    9900012    2    1    2    0    0 -0.21615355137E+02  0.16569746338E+01 -0.23382728539E+02  0.59301935073E+02  0.49999983668E+02 0.  0.
        -12    1    1    2    0    0  0.21615355137E+02 -0.16569746338E+01  0.23382728539E+02  0.31886064927E+02  0.00000000000E+00 0.  1.
         11    1    3    3    0    0 -0.11261234925E+02 -0.18450058869E+02 -0.17650515213E+01  0.21687219541E+02  0.51100000000E-03 0. -1.
        -11    1    3    3    0    0 -0.73848497151E+01 -0.38202876802E+00  0.38301804633E+00  0.74046373564E+01  0.51100000000E-03 0.  1.
        -12    1    3    3    0    0 -0.29692704969E+01  0.20489062271E+02 -0.22000695064E+02  0.30210078175E+02  0.00000000000E+00 0.  1.
</event>
<event>
 7    1  0.1335379E-011  0.5930188E+02  0.7816164E-02  0.1266605E+00
        -11   -1    0    0    0    0  0.00000000000E+00  0.00000000000E+00  0.45593999997E+02  0.45594000000E+02  0.51100000000E-03 0.  1.
         11   -1    0    0    0    0 -0.00000000000E+00 -0.00000000000E+00 -0.45593999997E+02  0.45594000000E+02  0.51100000000E-03 0. -1.
    9900012    2    1    2    0    0 -0.60184632125E+01  0.18779274720E+02 -0.25056765819E+02  0.59301881206E+02  0.49999885427E+02 0.  0.
        -12    1    1    2    0    0  0.60184632125E+01 -0.18779274720E+02  0.25056765819E+02  0.31886118794E+02  0.00000000000E+00 0.  1.
         11    1    3    3    0    0 -0.84925169601E+01  0.71515499330E+01 -0.25671352959E+02  0.27969373854E+02  0.51100000000E-03 0.  1.
        -11    1    3    3    0    0 -0.62878021393E+01  0.14868517517E+02 -0.85311550888E+01  0.18258967011E+02  0.51100000000E-03 0. -1.
        -12    1    3    3    0    0  0.87618558868E+01 -0.32407927300E+01  0.91457422292E+01  0.13073540340E+02  0.00000000000E+00 0.  1.
</event>
<event>
 7    1  0.1335379E-011  0.5930199E+02  0.7816164E-02  0.1266605E+00
        -11   -1    0    0    0    0  0.00000000000E+00  0.00000000000E+00  0.45593999997E+02  0.45594000000E+02  0.51100000000E-03 0.  1.
         11   -1    0    0    0    0 -0.00000000000E+00 -0.00000000000E+00 -0.45593999997E+02  0.45594000000E+02  0.51100000000E-03 0. -1.
    9900012    2    1    2    0    0  0.23183236998E+02 -0.11368606123E+02 -0.18708545500E+02  0.59301994330E+02  0.50000091739E+02 0.  0.
        -12    1    1    2    0    0 -0.23183236998E+02  0.11368606123E+02  0.18708545500E+02  0.31886005670E+02  0.00000000000E+00 0.  1.
         11    1    3    3    0    0 -0.39775587558E+01  0.34659285173E+01 -0.56258252769E+01  0.77125575817E+01  0.51100000000E-03 0. -1.
        -11    1    3    3    0    0 -0.73227849706E+01 -0.13501016622E+02 -0.49199355171E+01  0.16127814337E+02  0.51100000000E-03 0.  1.
        -12    1    3    3    0    0  0.34483580724E+02 -0.13335180187E+01 -0.81627847056E+01  0.35461622411E+02  0.00000000000E+00 0.  1.
</event>
<event>
 7    1  0.2106258E-011  0.5930194E+02  0.7816164E-02  0.1266605E+00
        -11   -1    0    0    0    0  0.00000000000E+00  0.00000000000E+00  0.45593999997E+02  0.45594000000E+02  0.51100000000E-03 0. -1.
         11   -1    0    0    0    0 -0.00000000000E+00 -0.00000000000E+00 -0.45593999997E+02  0.45594000000E+02  0.51100000000E-03 0.  1.
    9900012    2    1    2    0    0  0.13540212276E+02  0.19591601602E+00  0.28867718261E+02  0.59301938952E+02  0.49999990743E+02 0.  0.
        -12    1    1    2    0    0 -0.13540212276E+02 -0.19591601602E+00 -0.28867718261E+02  0.31886061048E+02  0.00000000000E+00 0.  1.
         11    1    3    3    0    0  0.25611997427E+02  0.10511536065E+02  0.13695818595E+02  0.30887574361E+02  0.51100000000E-03 0. -1.
        -11    1    3    3    0    0 -0.61404724064E+01 -0.28666343922E+01  0.17367298600E+02  0.18642587134E+02  0.51100000000E-03 0.  1.
        -12    1    3    3    0    0 -0.59313127443E+01 -0.74489856566E+01 -0.21953989346E+01  0.97717774568E+01  0.00000000000E+00 0.  1.
</event>
<event>
 7    1  0.1335379E-011  0.5930193E+02  0.7816164E-02  0.1266605E+00
        -11   -1    0    0    0    0  0.00000000000E+00  0.00000000000E+00  0.45593999997E+02  0.45594000000E+02  0.51100000000E-03 0.  1.
         11   -1    0    0    0    0 -0.00000000000E+00 -0.00000000000E+00 -0.45593999997E+02  0.45594000000E+02  0.51100000000E-03 0. -1.
    9900012    2    1    2    0    0 -0.14128129910E+02  0.21697976187E+02 -0.18609551047E+02  0.59301927561E+02  0.49999969969E+02 0.  0.
        -12    1    1    2    0    0  0.14128129910E+02 -0.21697976187E+02  0.18609551047E+02  0.31886072439E+02  0.00000000000E+00 0.  1.
         11    1    3    3    0    0  0.23478976838E+01  0.12726061476E+02 -0.17882116416E+01  0.13063803633E+02  0.51100000000E-03 0. -1.
        -11    1    3    3    0    0  0.69151866936E+00  0.21465965571E+02 -0.11440971307E+02  0.24334372823E+02  0.51100000000E-03 0.  1.
         12    1    3    3    0    0 -0.17167546264E+02 -0.12494050860E+02 -0.53803680981E+01  0.21903751105E+02  0.00000000000E+00 0. -1.
</event>
<event>
 7    1  0.1335379E-011  0.5930196E+02  0.7816164E-02  0.1266605E+00
        -11   -1    0    0    0    0  0.00000000000E+00  0.00000000000E+00  0.45593999997E+02  0.45594000000E+02  0.51100000000E-03 0.  1.
         11   -1    0    0    0    0 -0.00000000000E+00 -0.00000000000E+00 -0.45593999997E+02  0.45594000000E+02  0.51100000000E-03 0. -1.
    9900012    2    1    2    0    0 -0.76935107194E+01  0.85386258986E+01 -0.29742588047E+02  0.59301956295E+02  0.50000022372E+02 0.  0.
        -12    1    1    2    0    0  0.76935107194E+01 -0.85386258986E+01  0.29742588047E+02  0.31886043705E+02  0.00000000000E+00 0.  1.
         11    1    3    3    0    0 -0.62703787163E+00 -0.36340238087E+01 -0.75517345526E+01  0.84040466770E+01  0.51100000000E-03 0. -1.
        -11    1    3    3    0    0  0.70315988036E+01  0.15863550311E+02  0.66512026058E+01  0.18583167291E+02  0.51100000000E-03 0.  1.
         12    1    3    3    0    0 -0.14098071651E+02 -0.36909006036E+01 -0.28842056100E+02  0.32314742327E+02  0.00000000000E+00 0. -1.
</event>
<event>
 7    1  0.1335379E-011  0.5930194E+02  0.7816164E-02  0.1266605E+00
        -11   -1    0    0    0    0  0.00000000000E+00  0.00000000000E+00  0.45593999997E+02  0.45594000000E+02  0.51100000000E-03 0.  1.
         11   -1    0    0    0    0 -0.00000000000E+00 -0.00000000000E+00 -0.45593999997E+02  0.45594000000E+02  0.51100000000E-03 0. -1.
    9900012    2    1    2    0    0  0.23530557460E+02 -0.81992262433E+01 -0.19894883443E+02  0.59301939840E+02  0.49999992362E+02 0.  0.
        -12    1    1    2    0    0 -0.23530557460E+02  0.81992262433E+01  0.19894883443E+02  0.31886060160E+02  0.00000000000E+00 0.  1.
         11    1    3    3    0    0 -0.84779244990E+01 -0.11835548117E+02 -0.11727307182E+02  0.18694521578E+02  0.51100000000E-03 0. -1.
        -11    1    3    3    0    0  0.25420017749E+01  0.69236612249E+01 -0.81043424120E+01  0.10958066617E+02  0.51100000000E-03 0.  1.
         12    1    3    3    0    0  0.29466480184E+02 -0.32873393510E+01 -0.63233849041E-01  0.29649351645E+02  0.00000000000E+00 0. -1.
</event>
<event>
 7    1  0.1335379E-011  0.5930195E+02  0.7816164E-02  0.1266605E+00
        -11   -1    0    0    0    0  0.00000000000E+00  0.00000000000E+00  0.45593999997E+02  0.45594000000E+02  0.51100000000E-03 0.  1.
         11   -1    0    0    0    0 -0.00000000000E+00 -0.00000000000E+00 -0.45593999997E+02  0.45594000000E+02  0.51100000000E-03 0. -1.
    9900012    2    1    2    0    0 -0.30176394634E+02  0.34083799447E+01 -0.97205103999E+01  0.59301950238E+02  0.50000011327E+02 0.  0.
        -12    1    1    2    0    0  0.30176394634E+02 -0.34083799447E+01  0.97205103999E+01  0.31886049762E+02  0.00000000000E+00 0.  1.
         11    1    3    3    0    0 -0.20505084023E+02  0.22593276505E+01  0.18507166897E+01  0.20712029952E+02  0.51100000000E-03 0. -1.
        -11    1    3    3    0    0 -0.21143669013E+02 -0.26013546250E+01  0.78414595379E+00  0.21317520268E+02  0.51100000000E-03 0.  1.
        -12    1    3    3    0    0  0.11472358402E+02  0.37504069192E+01 -0.12355373043E+02  0.17272400019E+02  0.00000000000E+00 0.  1.
</event>
<event>
 7    1  0.1335379E-011  0.5930194E+02  0.7816164E-02  0.1266605E+00
        -11   -1    0    0    0    0  0.00000000000E+00  0.00000000000E+00  0.45593999997E+02  0.45594000000E+02  0.51100000000E-03 0.  1.
         11   -1    0    0    0    0 -0.00000000000E+00 -0.00000000000E+00 -0.45593999997E+02  0.45594000000E+02  0.51100000000E-03 0. -1.
    9900012    2    1    2    0    0 -0.29562472938E+02  0.95771195271E+01  0.71456113082E+01  0.59301940575E+02  0.49999993704E+02 0.  0.
        -12    1    1    2    0    0  0.29562472938E+02 -0.95771195271E+01 -0.71456113082E+01  0.31886059425E+02  0.00000000000E+00 0.  1.
         11    1    3    3    0    0  0.41432823627E+01 -0.11759828316E+02  0.10945075901E+02  0.16590811840E+02  0.51100000000E-03 0.  1.
        -11    1    3    3    0    0 -0.13451169607E+02  0.11540027124E+02 -0.86089811752E+01  0.19703318171E+02  0.51100000000E-03 0. -1.
        -12    1    3    3    0    0 -0.20254585694E+02  0.97969207186E+01  0.48095165821E+01  0.23007810564E+02  0.00000000000E+00 0.  1.
</event>
<event>
 7    1  0.1335379E-011  0.5930197E+02  0.7816164E-02  0.1266605E+00
        -11   -1    0    0    0    0  0.00000000000E+00  0.00000000000E+00  0.45593999997E+02  0.45594000000E+02  0.51100000000E-03 0. -1.
         11   -1    0    0    0    0 -0.00000000000E+00 -0.00000000000E+00 -0.45593999997E+02  0.45594000000E+02  0.51100000000E-03 0.  1.
    9900012    2    1    2    0    0  0.13537272859E+01  0.57255487802E+01  0.31338548526E+02  0.59301966849E+02  0.50000041621E+02 0.  0.
        -12    1    1    2    0    0 -0.13537272859E+01 -0.57255487802E+01 -0.31338548526E+02  0.31886033151E+02  0.00000000000E+00 0.  1.
         11    1    3    3    0    0 -0.89167400662E+01  0.83936904979E+01  0.27554446883E+02  0.30153106588E+02  0.51100000000E-03 0. -1.
        -11    1    3    3    0    0 -0.45050155846E+00 -0.10943966773E+01  0.14122656992E+02  0.14172159204E+02  0.51100000000E-03 0.  1.
        -12    1    3    3    0    0  0.10720968911E+02 -0.15737450404E+01 -0.10338555350E+02  0.14976701057E+02  0.00000000000E+00 0.  1.
</event>
<event>
 7    1  0.1335379E-011  0.5930195E+02  0.7816164E-02  0.1266605E+00
        -11   -1    0    0    0    0  0.00000000000E+00  0.00000000000E+00  0.45593999997E+02  0.45594000000E+02  0.51100000000E-03 0.  1.
         11   -1    0    0    0    0 -0.00000000000E+00 -0.00000000000E+00 -0.45593999997E+02  0.45594000000E+02  0.51100000000E-03 0. -1.
    9900012    2    1    2    0    0 -0.31207545692E+02 -0.39507806035E+01  0.52154433786E+01  0.59301946229E+02  0.50000004014E+02 0.  0.
        -12    1    1    2    0    0  0.31207545692E+02  0.39507806035E+01 -0.52154433786E+01  0.31886053771E+02  0.00000000000E+00 0.  1.
         11    1    3    3    0    0 -0.12852369611E+02 -0.14387304376E+02  0.10158450715E+02  0.21803028528E+02  0.51100000000E-03 0. -1.
        -11    1    3    3    0    0 -0.14817569384E+01  0.30773072140E+01  0.12002204259E+02  0.12478715104E+02  0.51100000000E-03 0.  1.
         12    1    3    3    0    0 -0.16873419142E+02  0.73592165588E+01 -0.16945211595E+02  0.25020202596E+02  0.00000000000E+00 0. -1.
</event>
<event>
 7    1  0.1335379E-011  0.5930192E+02  0.7816164E-02  0.1266605E+00
        -11   -1    0    0    0    0  0.00000000000E+00  0.00000000000E+00  0.45593999997E+02  0.45594000000E+02  0.51100000000E-03 0.  1.
         11   -1    0    0    0    0 -0.00000000000E+00 -0.00000000000E+00 -0.45593999997E+02  0.45594000000E+02  0.51100000000E-03 0. -1.
    9900012    2    1    2    0    0  0.17226536836E+02  0.11261798269E+02 -0.24354480412E+02  0.59301915453E+02  0.49999947886E+02 0.  0.
        -12    1    1    2    0    0 -0.17226536836E+02 -0.11261798269E+02  0.24354480412E+02  0.31886084547E+02  0.00000000000E+00 0.  1.
         11    1    3    3    0    0 -0.52565326186E+01  0.87933479087E+01 -0.28186002919E+02  0.29990079417E+02  0.51100000000E-03 0. -1.
        -11    1    3    3    0    0  0.25596801216E+01  0.24951618467E+01 -0.60847639536E+01  0.70570636669E+01  0.51100000000E-03 0.  1.
        -12    1    3    3    0    0  0.19923389333E+02 -0.26711486884E-01  0.99162864606E+01  0.22254772369E+02  0.00000000000E+00 0.  1.
</event>
<event>
 7    1  0.1335379E-011  0.5930194E+02  0.7816164E-02  0.1266605E+00
        -11   -1    0    0    0    0  0.00000000000E+00  0.00000000000E+00  0.45593999997E+02  0.45594000000E+02  0.51100000000E-03 0. -1.
         11   -1    0    0    0    0 -0.00000000000E+00 -0.00000000000E+00 -0.45593999997E+02  0.45594000000E+02  0.51100000000E-03 0.  1.
    9900012    2    1    2    0    0  0.26323792694E+02  0.16554111571E+02 -0.70526619862E+01  0.59301941717E+02  0.49999995786E+02 0.  0.
        -12    1    1    2    0    0 -0.26323792694E+02 -0.16554111571E+02  0.70526619862E+01  0.31886058283E+02  0.00000000000E+00 0.  1.
         11    1    3    3    0    0  0.10394208018E+02  0.15982554424E+02 -0.15299606223E+02  0.24445031337E+02  0.51100000000E-03 0. -1.
        -11    1    3    3    0    0  0.20551744931E+02  0.57307746688E+00 -0.47167557991E+01  0.21093847990E+02  0.51100000000E-03 0.  1.
         12    1    3    3    0    0 -0.46221602549E+01 -0.15203205260E-02  0.12963700036E+02  0.13763062390E+02  0.00000000000E+00 0. -1.
</event>
<event>
 7    1  0.1335379E-011  0.5930193E+02  0.7816164E-02  0.1266605E+00
        -11   -1    0    0    0    0  0.00000000000E+00  0.00000000000E+00  0.45593999997E+02  0.45594000000E+02  0.51100000000E-03 0.  1.
         11   -1    0    0    0    0 -0.00000000000E+00 -0.00000000000E+00 -0.45593999997E+02  0.45594000000E+02  0.51100000000E-03 0. -1.
    9900012    2    1    2    0    0 -0.18178949439E+01  0.28893561912E+02 -0.13363330532E+02  0.59301933060E+02  0.49999979998E+02 0.  0.
        -12    1    1    2    0    0  0.18178949439E+01 -0.28893561912E+02  0.13363330532E+02  0.31886066940E+02  0.00000000000E+00 0.  1.
         11    1    3    3    0    0 -0.21682567942E+02  0.10490798381E+02 -0.19375876646E+00  0.24087925314E+02  0.51100000000E-03 0. -1.
        -11    1    3    3    0    0  0.15164949398E+01  0.24237081599E+01  0.43686882090E+01  0.52210683845E+01  0.51100000000E-03 0.  1.
        -12    1    3    3    0    0  0.18348178058E+02  0.15979055371E+02 -0.17538259974E+02  0.29992939361E+02  0.00000000000E+00 0.  1.
</event>
<event>
 7    1  0.1335379E-011  0.5930195E+02  0.7816164E-02  0.1266605E+00
        -11   -1    0    0    0    0  0.00000000000E+00  0.00000000000E+00  0.45593999997E+02  0.45594000000E+02  0.51100000000E-03 0.  1.
         11   -1    0    0    0    0 -0.00000000000E+00 -0.00000000000E+00 -0.45593999997E+02  0.45594000000E+02  0.51100000000E-03 0. -1.
    9900012    2    1    2    0    0 -0.24184656967E+02 -0.17753765610E+02 -0.10799375074E+02  0.59301947753E+02  0.50000006793E+02 0.  0.
        -12    1    1    2    0    0  0.24184656967E+02  0.17753765610E+02  0.10799375074E+02  0.31886052247E+02  0.00000000000E+00 0.  1.
         11    1    3    3    0    0 -0.11163968173E+02 -0.13679513732E+02 -0.16638758408E+02  0.24261318244E+02  0.51100000000E-03 0. -1.
        -11    1    3    3    0    0  0.35179982616E+01  0.70247961154E+01 -0.76652116341E+01  0.10976317319E+02  0.51100000000E-03 0.  1.
         12    1    3    3    0    0 -0.16538687056E+02 -0.11099047993E+02  0.13504594969E+02  0.24064312189E+02  0.00000000000E+00 0. -1.
</event>
<event>
 7    1  0.1335379E-011  0.5930194E+02  0.7816164E-02  0.1266605E+00
        -11   -1    0    0    0    0  0.00000000000E+00  0.00000000000E+00  0.45593999997E+02  0.45594000000E+02  0.51100000000E-03 0. -1.
         11   -1    0    0    0    0 -0.00000000000E+00 -0.00000000000E+00 -0.45593999997E+02  0.45594000000E+02  0.51100000000E-03 0.  1.
    9900012    2    1    2    0    0 -0.20728376455E+01 -0.21532196017E+02  0.23426234993E+02  0.59301943374E+02  0.49999998808E+02 0.  0.
        -12    1    1    2    0    0  0.20728376455E+01  0.21532196017E+02 -0.23426234993E+02  0.31886056626E+02  0.00000000000E+00 0.  1.
         11    1    3    3    0    0  0.37178383660E+01 -0.23525759279E+02 -0.80117395587E+01  0.25129099522E+02  0.51100000000E-03 0.  1.
        -11    1    3    3    0    0  0.31877640307E+01 -0.14309993395E+01  0.11855276187E+02  0.12359497254E+02  0.51100000000E-03 0. -1.
        -12    1    3    3    0    0 -0.89784400421E+01  0.34245626017E+01  0.19582698364E+02  0.21813346599E+02  0.00000000000E+00 0.  1.
</event>
<event>
 7    1  0.1335379E-011  0.5930194E+02  0.7816164E-02  0.1266605E+00
        -11   -1    0    0    0    0  0.00000000000E+00  0.00000000000E+00  0.45593999997E+02  0.45594000000E+02  0.51100000000E-03 0. -1.
         11   -1    0    0    0    0 -0.00000000000E+00 -0.00000000000E+00 -0.45593999997E+02  0.45594000000E+02  0.51100000000E-03 0.  1.
    9900012    2    1    2    0    0 -0.24411772931E+02  0.49679707392E+01  0.19902395317E+02  0.59301941444E+02  0.49999995288E+02 0.  0.
        -12    1    1    2    0    0  0.24411772931E+02 -0.49679707392E+01 -0.19902395317E+02  0.31886058556E+02  0.00000000000E+00 0.  1.
         11    1    3    3    0    0  0.28125361280E+01 -0.49463299325E+01  0.16629491564E+02  0.17576021427E+02  0.51100000000E-03 0. -1.
        -11    1    3    3    0    0 -0.19490570142E+02  0.84783391307E+01  0.16110287350E+02  0.26670319039E+02  0.51100000000E-03 0.  1.
         12    1    3    3    0    0 -0.77337389173E+01  0.14359615410E+01 -0.12837383597E+02  0.15055600978E+02  0.00000000000E+00 0. -1.
</event>
<event>
 7    1  0.1335379E-011  0.5930196E+02  0.7816164E-02  0.1266605E+00
        -11   -1    0    0    0    0  0.00000000000E+00  0.00000000000E+00  0.45593999997E+02  0.45594000000E+02  0.51100000000E-03 0.  1.
         11   -1    0    0    0    0 -0.00000000000E+00 -0.00000000000E+00 -0.45593999997E+02  0.45594000000E+02  0.51100000000E-03 0. -1.
    9900012    2    1    2    0    0 -0.28496652973E+02 -0.24959354208E+01 -0.14086539233E+02  0.59301960549E+02  0.50000030131E+02 0.  0.
        -12    1    1    2    0    0  0.28496652973E+02  0.24959354208E+01  0.14086539233E+02  0.31886039451E+02  0.00000000000E+00 0.  1.
         11    1    3    3    0    0 -0.15585222929E+01 -0.10733123663E+02 -0.18926653973E+02  0.21813921385E+02  0.51100000000E-03 0. -1.
        -11    1    3    3    0    0 -0.16411353044E+01 -0.70382421231E+01  0.31639597883E+01  0.78892850800E+01  0.51100000000E-03 0.  1.
        -12    1    3    3    0    0 -0.25296995376E+02  0.15275430366E+02  0.16761549518E+01  0.29598754084E+02  0.00000000000E+00 0.  1.
</event>
<event>
 7    1  0.1335379E-011  0.5930193E+02  0.7816164E-02  0.1266605E+00
        -11   -1    0    0    0    0  0.00000000000E+00  0.00000000000E+00  0.45593999997E+02  0.45594000000E+02  0.51100000000E-03 0.  1.
         11   -1    0    0    0    0 -0.00000000000E+00 -0.00000000000E+00 -0.45593999997E+02  0.45594000000E+02  0.51100000000E-03 0. -1.
    9900012    2    1    2    0    0 -0.22908356797E+02 -0.17434760570E+02  0.13709763724E+02  0.59301932375E+02  0.49999978748E+02 0.  0.
        -12    1    1    2    0    0  0.22908356797E+02  0.17434760570E+02 -0.13709763724E+02  0.31886067625E+02  0.00000000000E+00 0.  1.
         11    1    3    3    0    0 -0.14331257859E+02  0.88943299017E+01  0.30258395133E+01  0.17136211987E+02  0.51100000000E-03 0. -1.
        -11    1    3    3    0    0  0.93424594939E+01 -0.93181808401E+00  0.29713298538E+00  0.93935149230E+01  0.51100000000E-03 0.  1.
         12    1    3    3    0    0 -0.17919558431E+02 -0.25397272387E+02  0.10386791225E+02  0.32772205465E+02  0.00000000000E+00 0. -1.
</event>
<event>
 7    1  0.1335379E-011  0.5930194E+02  0.7816164E-02  0.1266605E+00
        -11   -1    0    0    0    0  0.00000000000E+00  0.00000000000E+00  0.45593999997E+02  0.45594000000E+02  0.51100000000E-03 0. -1.
         11   -1    0    0    0    0 -0.00000000000E+00 -0.00000000000E+00 -0.45593999997E+02  0.45594000000E+02  0.51100000000E-03 0.  1.
    9900012    2    1    2    0    0 -0.67591153543E+01 -0.18836921234E+02  0.24823487102E+02  0.59301941074E+02  0.49999994613E+02 0.  0.
        -12    1    1    2    0    0  0.67591153543E+01  0.18836921234E+02 -0.24823487102E+02  0.31886058926E+02  0.00000000000E+00 0.  1.
         11    1    3    3    0    0  0.49804970820E+01  0.24118396680E+00  0.94920004418E+01  0.10722014435E+02  0.51100000000E-03 0. -1.
        -11    1    3    3    0    0  0.88384960667E+01 -0.21569738554E+02  0.90969634896E+00  0.23328098545E+02  0.51100000000E-03 0.  1.
        -12    1    3    3    0    0 -0.20578108503E+02  0.24916333540E+01  0.14421790311E+02  0.25251828094E+02  0.00000000000E+00 0.  1.
</event>
<event>
 7    1  0.1335379E-011  0.5930199E+02  0.7816164E-02  0.1266605E+00
        -11   -1    0    0    0    0  0.00000000000E+00  0.00000000000E+00  0.45593999997E+02  0.45594000000E+02  0.51100000000E-03 0.  1.
         11   -1    0    0    0    0 -0.00000000000E+00 -0.00000000000E+00 -0.45593999997E+02  0.45594000000E+02  0.51100000000E-03 0. -1.
    9900012    2    1    2    0    0  0.28325728794E+02 -0.12212466540E+02 -0.80762916627E+01  0.59301988369E+02  0.50000080869E+02 0.  0.
        -12    1    1    2    0    0 -0.28325728794E+02  0.12212466540E+02  0.80762916627E+01  0.31886011631E+02  0.00000000000E+00 0.  1.
         11    1    3    3    0    0  0.47862864858E+01 -0.12496505088E+02 -0.99946474466E+01  0.16702220080E+02  0.51100000000E-03 0. -1.
        -11    1    3    3    0    0  0.21792124932E+02  0.15622382999E+02 -0.12418014002E+01  0.26842086927E+02  0.51100000000E-03 0.  1.
         12    1    3    3    0    0  0.17473173764E+01 -0.15338344451E+02  0.31601571842E+01  0.15757681363E+02  0.00000000000E+00 0. -1.
</event>
<event>
 7    1  0.1335379E-011  0.5930193E+02  0.7816164E-02  0.1266605E+00
        -11   -1    0    0    0    0  0.00000000000E+00  0.00000000000E+00  0.45593999997E+02  0.45594000000E+02  0.51100000000E-03 0. -1.
         11   -1    0    0    0    0 -0.00000000000E+00 -0.00000000000E+00 -0.45593999997E+02  0.45594000000E+02  0.51100000000E-03 0.  1.
    9900012    2    1    2    0    0 -0.36856350462E+00 -0.17207484211E+02  0.26841908012E+02  0.59301931292E+02  0.49999976773E+02 0.  0.
        -12    1    1    2    0    0  0.36856350462E+00  0.17207484211E+02 -0.26841908012E+02  0.31886068708E+02  0.00000000000E+00 0.  1.
         11    1    3    3    0    0  0.28977713318E+01  0.37076764662E+01 -0.24217412215E+01  0.52923316482E+01  0.51100000000E-03 0. -1.
        -11    1    3    3    0    0  0.15330186712E+02 -0.18844848801E+01  0.14426934291E+01  0.15512809948E+02  0.51100000000E-03 0.  1.
         12    1    3    3    0    0 -0.18596521549E+02 -0.19030675797E+02  0.27820955804E+02  0.38496789696E+02  0.00000000000E+00 0. -1.
</event>
<event>
 7    1  0.1335379E-011  0.5930195E+02  0.7816164E-02  0.1266605E+00
        -11   -1    0    0    0    0  0.00000000000E+00  0.00000000000E+00  0.45593999997E+02  0.45594000000E+02  0.51100000000E-03 0. -1.
         11   -1    0    0    0    0 -0.00000000000E+00 -0.00000000000E+00 -0.45593999997E+02  0.45594000000E+02  0.51100000000E-03 0.  1.
    9900012    2    1    2    0    0  0.28196451472E+02  0.59019162813E+01  0.13669224399E+02  0.59301949961E+02  0.50000010820E+02 0.  0.
        -12    1    1    2    0    0 -0.28196451472E+02 -0.59019162813E+01 -0.13669224399E+02  0.31886050039E+02  0.00000000000E+00 0.  1.
         11    1    3    3    0    0  0.28920317174E+02  0.15468963893E+02  0.32626186633E+00  0.32799085908E+02  0.51100000000E-03 0. -1.
        -11    1    3    3    0    0  0.56065224069E+01 -0.89150051693E+01 -0.12280479442E+01  0.10602759673E+02  0.51100000000E-03 0.  1.
         12    1    3    3    0    0 -0.63303881082E+01 -0.65204244252E+00  0.14571010477E+02  0.15900104379E+02  0.00000000000E+00 0. -1.
</event>
<event>
 7    1  0.1335379E-011  0.5930192E+02  0.7816164E-02  0.1266605E+00
        -11   -1    0    0    0    0  0.00000000000E+00  0.00000000000E+00  0.45593999997E+02  0.45594000000E+02  0.51100000000E-03 0.  1.
         11   -1    0    0    0    0 -0.00000000000E+00 -0.00000000000E+00 -0.45593999997E+02  0.45594000000E+02  0.51100000000E-03 0. -1.
    9900012    2    1    2    0    0  0.14381894406E+02  0.28456701178E+02  0.31563687606E+00  0.59301915962E+02  0.49999948815E+02 0.  0.
        -12    1    1    2    0    0 -0.14381894406E+02 -0.28456701178E+02 -0.31563687606E+00  0.31886084038E+02  0.00000000000E+00 0.  1.
         11    1    3    3    0    0 -0.61443999130E+01 -0.54562023667E+01  0.83719334213E+01  0.11730859475E+02  0.51100000000E-03 0. -1.
        -11    1    3    3    0    0  0.75916525925E+00  0.24371898965E+01  0.70139634821E+01  0.74640411622E+01  0.51100000000E-03 0.  1.
         12    1    3    3    0    0  0.19767129060E+02  0.31475713648E+02 -0.15070260027E+02  0.40107015324E+02  0.00000000000E+00 0. -1.
</event>
<event>
 7    1  0.1335379E-011  0.5930193E+02  0.7816164E-02  0.1266605E+00
        -11   -1    0    0    0    0  0.00000000000E+00  0.00000000000E+00  0.45593999997E+02  0.45594000000E+02  0.51100000000E-03 0.  1.
         11   -1    0    0    0    0 -0.00000000000E+00 -0.00000000000E+00 -0.45593999997E+02  0.45594000000E+02  0.51100000000E-03 0. -1.
    9900012    2    1    2    0    0 -0.58099053146E+01 -0.24588879694E+02 -0.19451312638E+02  0.59301928312E+02  0.49999971338E+02 0.  0.
        -12    1    1    2    0    0  0.58099053146E+01  0.24588879694E+02  0.19451312638E+02  0.31886071688E+02  0.00000000000E+00 0.  1.
         11    1    3    3    0    0  0.19910486195E+01 -0.14280863199E+02 -0.28099974689E+02  0.31583475206E+02  0.51100000000E-03 0. -1.
        -11    1    3    3    0    0  0.32289501558E+01  0.51220352901E+01 -0.14564348694E+01  0.62275651271E+01  0.51100000000E-03 0.  1.
         12    1    3    3    0    0 -0.11029904090E+02 -0.15430051785E+02  0.10105096921E+02  0.21490887979E+02  0.00000000000E+00 0. -1.
</event>
<event>
 7    1  0.1335379E-011  0.5930194E+02  0.7816164E-02  0.1266605E+00
        -11   -1    0    0    0    0  0.00000000000E+00  0.00000000000E+00  0.45593999997E+02  0.45594000000E+02  0.51100000000E-03 0.  1.
         11   -1    0    0    0    0 -0.00000000000E+00 -0.00000000000E+00 -0.45593999997E+02  0.45594000000E+02  0.51100000000E-03 0. -1.
    9900012    2    1    2    0    0 -0.10263889522E+02  0.26115351555E+02 -0.15144701043E+02  0.59301937455E+02  0.49999988013E+02 0.  0.
        -12    1    1    2    0    0  0.10263889522E+02 -0.26115351555E+02  0.15144701043E+02  0.31886062545E+02  0.00000000000E+00 0.  1.
         11    1    3    3    0    0 -0.59833501335E+01 -0.14171248407E+00  0.17219559006E+01  0.62278161207E+01  0.51100000000E-03 0. -1.
        -11    1    3    3    0    0 -0.23325448203E+02  0.14773083171E+02 -0.57150059807E+01  0.28195421860E+02  0.51100000000E-03 0.  1.
         12    1    3    3    0    0  0.19044908815E+02  0.11483980868E+02 -0.11151650963E+02  0.24878699474E+02  0.00000000000E+00 0. -1.
</event>
<event>
 7    1  0.1335379E-011  0.5930187E+02  0.7816164E-02  0.1266605E+00
        -11   -1    0    0    0    0  0.00000000000E+00  0.00000000000E+00  0.45593999997E+02  0.45594000000E+02  0.51100000000E-03 0. -1.
         11   -1    0    0    0    0 -0.00000000000E+00 -0.00000000000E+00 -0.45593999997E+02  0.45594000000E+02  0.51100000000E-03 0.  1.
    9900012    2    1    2    0    0 -0.18561626685E+02 -0.27372814234E+01  0.25781747364E+02  0.59301871481E+02  0.49999867691E+02 0.  0.
        -12    1    1    2    0    0  0.18561626685E+02  0.27372814234E+01 -0.25781747364E+02  0.31886128519E+02  0.00000000000E+00 0.  1.
         11    1    3    3    0    0 -0.14287138007E+02 -0.17176837944E+01  0.34560394077E+02  0.37436527471E+02  0.51100000000E-03 0. -1.
        -11    1    3    3    0    0 -0.71168050819E+01 -0.90465301835E+01 -0.50288438752E+01  0.12560967077E+02  0.51100000000E-03 0.  1.
        -12    1    3    3    0    0  0.28423164039E+01  0.80269325545E+01 -0.37498028377E+01  0.93043769322E+01  0.00000000000E+00 0.  1.
</event>
<event>
 7    1  0.1335379E-011  0.5930193E+02  0.7816164E-02  0.1266605E+00
        -11   -1    0    0    0    0  0.00000000000E+00  0.00000000000E+00  0.45593999997E+02  0.45594000000E+02  0.51100000000E-03 0.  1.
         11   -1    0    0    0    0 -0.00000000000E+00 -0.00000000000E+00 -0.45593999997E+02  0.45594000000E+02  0.51100000000E-03 0. -1.
    9900012    2    1    2    0    0 -0.10319879690E+02 -0.25571452954E+02 -0.16010067373E+02  0.59301931250E+02  0.49999976697E+02 0.  0.
        -12    1    1    2    0    0  0.10319879690E+02  0.25571452954E+02  0.16010067373E+02  0.31886068750E+02  0.00000000000E+00 0.  1.
         11    1    3    3    0    0 -0.46565459947E+01 -0.51112042827E+01 -0.11286070582E+02  0.13235679781E+02  0.51100000000E-03 0. -1.
        -11    1    3    3    0    0 -0.16218748293E+02 -0.20573213831E+02 -0.15938621986E+02  0.30665038637E+02  0.51100000000E-03 0.  1.
        -12    1    3    3    0    0  0.10555414598E+02  0.11296515987E+00  0.11214625194E+02  0.15401212832E+02  0.00000000000E+00 0.  1.
</event>
<event>
 7    1  0.1335379E-011  0.5930194E+02  0.7816164E-02  0.1266605E+00
        -11   -1    0    0    0    0  0.00000000000E+00  0.00000000000E+00  0.45593999997E+02  0.45594000000E+02  0.51100000000E-03 0.  1.
         11   -1    0    0    0    0 -0.00000000000E+00 -0.00000000000E+00 -0.45593999997E+02  0.45594000000E+02  0.51100000000E-03 0. -1.
    9900012    2    1    2    0    0 -0.19789351814E+01  0.26078583135E+02 -0.18240392757E+02  0.59301943318E+02  0.49999998706E+02 0.  0.
        -12    1    1    2    0    0  0.19789351814E+01 -0.26078583135E+02  0.18240392757E+02  0.31886056682E+02  0.00000000000E+00 0.  1.
         11    1    3    3    0    0  0.67373355954E+01  0.26494923682E+02 -0.14145921709E+02  0.30781159385E+02  0.51100000000E-03 0. -1.
        -11    1    3    3    0    0 -0.13187526668E+01  0.48339345569E+01 -0.14130546431E+02  0.14992610666E+02  0.51100000000E-03 0.  1.
        -12    1    3    3    0    0 -0.73975181100E+01 -0.52502751032E+01  0.10036075383E+02  0.13528173267E+02  0.00000000000E+00 0.  1.
</event>
<event>
 7    1  0.1335379E-011  0.5930196E+02  0.7816164E-02  0.1266605E+00
        -11   -1    0    0    0    0  0.00000000000E+00  0.00000000000E+00  0.45593999997E+02  0.45594000000E+02  0.51100000000E-03 0.  1.
         11   -1    0    0    0    0 -0.00000000000E+00 -0.00000000000E+00 -0.45593999997E+02  0.45594000000E+02  0.51100000000E-03 0. -1.
    9900012    2    1    2    0    0  0.16708672278E+02  0.76300986262E+01 -0.26063799013E+02  0.59301956763E+02  0.50000023226E+02 0.  0.
        -12    1    1    2    0    0 -0.16708672278E+02 -0.76300986262E+01  0.26063799013E+02  0.31886043237E+02  0.00000000000E+00 0.  1.
         11    1    3    3    0    0  0.15548497260E+02 -0.10268302274E+02 -0.18000207483E+01  0.18719879102E+02  0.51100000000E-03 0. -1.
        -11    1    3    3    0    0  0.10033417582E+02  0.28925583235E-01 -0.16215546739E+02  0.19068672250E+02  0.51100000000E-03 0.  1.
        -12    1    3    3    0    0 -0.88732425642E+01  0.17869475317E+02 -0.80482315256E+01  0.21513405411E+02  0.00000000000E+00 0.  1.
</event>
<event>
 7    1  0.1335379E-011  0.5930196E+02  0.7816164E-02  0.1266605E+00
        -11   -1    0    0    0    0  0.00000000000E+00  0.00000000000E+00  0.45593999997E+02  0.45594000000E+02  0.51100000000E-03 0. -1.
         11   -1    0    0    0    0 -0.00000000000E+00 -0.00000000000E+00 -0.45593999997E+02  0.45594000000E+02  0.51100000000E-03 0.  1.
    9900012    2    1    2    0    0 -0.25869090107E+02 -0.17566835014E+02 -0.62382759162E+01  0.59301959139E+02  0.50000027559E+02 0.  0.
        -12    1    1    2    0    0  0.25869090107E+02  0.17566835014E+02  0.62382759162E+01  0.31886040861E+02  0.00000000000E+00 0.  1.
         11    1    3    3    0    0 -0.91670824635E+01 -0.44173376609E+01  0.11328315108E+02  0.15227573554E+02  0.51100000000E-03 0. -1.
        -11    1    3    3    0    0 -0.22474433071E+02 -0.19906395189E+02 -0.18294827058E+02  0.35157721892E+02  0.51100000000E-03 0.  1.
         12    1    3    3    0    0  0.57724254275E+01  0.67568978356E+01  0.72823603402E+00  0.89166636921E+01  0.00000000000E+00 0. -1.
</event>
<event>
 7    1  0.1335379E-011  0.5930197E+02  0.7816164E-02  0.1266605E+00
        -11   -1    0    0    0    0  0.00000000000E+00  0.00000000000E+00  0.45593999997E+02  0.45594000000E+02  0.51100000000E-03 0. -1.
         11   -1    0    0    0    0 -0.00000000000E+00 -0.00000000000E+00 -0.45593999997E+02  0.45594000000E+02  0.51100000000E-03 0.  1.
    9900012    2    1    2    0    0 -0.28530728133E+02  0.93703782298E+01  0.10719733022E+02  0.59301966819E+02  0.50000041565E+02 0.  0.
        -12    1    1    2    0    0  0.28530728133E+02 -0.93703782298E+01 -0.10719733022E+02  0.31886033181E+02  0.00000000000E+00 0.  1.
         11    1    3    3    0    0  0.33520371912E+01 -0.73851600978E+01  0.89076516261E+01  0.12046700824E+02  0.51100000000E-03 0. -1.
        -11    1    3    3    0    0  0.31450992375E+01  0.26012655453E+01 -0.73260498461E+01  0.83862529332E+01  0.51100000000E-03 0.  1.
         12    1    3    3    0    0 -0.35027864562E+02  0.14154272782E+02  0.91381312419E+01  0.38869013061E+02  0.00000000000E+00 0. -1.
</event>
<event>
 7    1  0.1335379E-011  0.5930195E+02  0.7816164E-02  0.1266605E+00
        -11   -1    0    0    0    0  0.00000000000E+00  0.00000000000E+00  0.45593999997E+02  0.45594000000E+02  0.51100000000E-03 0. -1.
         11   -1    0    0    0    0 -0.00000000000E+00 -0.00000000000E+00 -0.45593999997E+02  0.45594000000E+02  0.51100000000E-03 0.  1.
    9900012    2    1    2    0    0  0.25717753342E+02  0.14144227462E+02  0.12460275522E+02  0.59301945469E+02  0.50000002629E+02 0.  0.
        -12    1    1    2    0    0 -0.25717753342E+02 -0.14144227462E+02 -0.12460275522E+02  0.31886054531E+02  0.00000000000E+00 0.  1.
         11    1    3    3    0    0  0.13872013366E+02  0.10085200752E+02 -0.15862051941E+01  0.17223822927E+02  0.51100000000E-03 0. -1.
        -11    1    3    3    0    0  0.11899612094E+02  0.13127394767E+02  0.23200738021E+02  0.29192524837E+02  0.51100000000E-03 0.  1.
        -12    1    3    3    0    0 -0.53872118417E-01 -0.90683680569E+01 -0.91542573053E+01  0.12885597706E+02  0.00000000000E+00 0.  1.
</event>
<event>
 7    1  0.1335379E-011  0.5930195E+02  0.7816164E-02  0.1266605E+00
        -11   -1    0    0    0    0  0.00000000000E+00  0.00000000000E+00  0.45593999997E+02  0.45594000000E+02  0.51100000000E-03 0.  1.
         11   -1    0    0    0    0 -0.00000000000E+00 -0.00000000000E+00 -0.45593999997E+02  0.45594000000E+02  0.51100000000E-03 0. -1.
    9900012    2    1    2    0    0 -0.24560776573E+02 -0.37152533804E+01 -0.19992133533E+02  0.59301948869E+02  0.50000008829E+02 0.  0.
        -12    1    1    2    0    0  0.24560776573E+02  0.37152533804E+01  0.19992133533E+02  0.31886051131E+02  0.00000000000E+00 0.  1.
         11    1    3    3    0    0 -0.28320718861E+02  0.11873084300E+02 -0.56954380039E+01  0.31232535311E+02  0.51100000000E-03 0.  1.
        -11    1    3    3    0    0  0.83084476106E+01 -0.50025880207E+00 -0.39145271937E+01  0.91980478352E+01  0.51100000000E-03 0. -1.
        -12    1    3    3    0    0 -0.45485053219E+01 -0.15088078878E+02 -0.10382168336E+02  0.18871365723E+02  0.00000000000E+00 0.  1.
</event>
<event>
 7    1  0.1335379E-011  0.5930193E+02  0.7816164E-02  0.1266605E+00
        -11   -1    0    0    0    0  0.00000000000E+00  0.00000000000E+00  0.45593999997E+02  0.45594000000E+02  0.51100000000E-03 0. -1.
         11   -1    0    0    0    0 -0.00000000000E+00 -0.00000000000E+00 -0.45593999997E+02  0.45594000000E+02  0.51100000000E-03 0.  1.
    9900012    2    1    2    0    0 -0.29884522422E+02 -0.94164086162E+01  0.59133644207E+01  0.59301932347E+02  0.49999978697E+02 0.  0.
        -12    1    1    2    0    0  0.29884522422E+02  0.94164086162E+01 -0.59133644207E+01  0.31886067653E+02  0.00000000000E+00 0.  1.
         11    1    3    3    0    0  0.67486488886E+01 -0.10769744291E+02 -0.10370820905E+02  0.16403828225E+02  0.51100000000E-03 0. -1.
        -11    1    3    3    0    0 -0.14157069657E+01  0.72008036522E+00 -0.25131897204E+01  0.29730228349E+01  0.51100000000E-03 0.  1.
         12    1    3    3    0    0 -0.35217464345E+02  0.63325530973E+00  0.18797375047E+02  0.39925081287E+02  0.00000000000E+00 0. -1.
</event>
<event>
 7    1  0.1335379E-011  0.5930194E+02  0.7816164E-02  0.1266605E+00
        -11   -1    0    0    0    0  0.00000000000E+00  0.00000000000E+00  0.45593999997E+02  0.45594000000E+02  0.51100000000E-03 0.  1.
         11   -1    0    0    0    0 -0.00000000000E+00 -0.00000000000E+00 -0.45593999997E+02  0.45594000000E+02  0.51100000000E-03 0. -1.
    9900012    2    1    2    0    0 -0.28737979388E+02 -0.66555867732E+01 -0.12105884967E+02  0.59301941206E+02  0.49999994853E+02 0.  0.
        -12    1    1    2    0    0  0.28737979388E+02  0.66555867732E+01  0.12105884967E+02  0.31886058794E+02  0.00000000000E+00 0.  1.
         11    1    3    3    0    0 -0.25785575788E+02  0.80576134399E+00 -0.20637138555E+02  0.33036898433E+02  0.51100000000E-03 0. -1.
        -11    1    3    3    0    0  0.44999622383E+01  0.32234299578E+01 -0.50164686757E+01  0.74702823959E+01  0.51100000000E-03 0.  1.
        -12    1    3    3    0    0 -0.74523658384E+01 -0.10684778075E+02  0.13547722264E+02  0.18794760377E+02  0.00000000000E+00 0.  1.
</event>
<event>
 7    1  0.1335379E-011  0.5930195E+02  0.7816164E-02  0.1266605E+00
        -11   -1    0    0    0    0  0.00000000000E+00  0.00000000000E+00  0.45593999997E+02  0.45594000000E+02  0.51100000000E-03 0.  1.
         11   -1    0    0    0    0 -0.00000000000E+00 -0.00000000000E+00 -0.45593999997E+02  0.45594000000E+02  0.51100000000E-03 0. -1.
    9900012    2    1    2    0    0  0.33184887362E+01 -0.12191031208E+02 -0.29276044839E+02  0.59301946453E+02  0.50000004422E+02 0.  0.
        -12    1    1    2    0    0 -0.33184887362E+01  0.12191031208E+02  0.29276044839E+02  0.31886053547E+02  0.00000000000E+00 0.  1.
         11    1    3    3    0    0 -0.21241620365E+01 -0.84185747645E+01 -0.21095385389E+02  0.22812271925E+02  0.51100000000E-03 0. -1.
        -11    1    3    3    0    0 -0.11699948353E+02 -0.90198450845E+01  0.33836831722E+01  0.15155715387E+02  0.51100000000E-03 0.  1.
         12    1    3    3    0    0  0.17142599126E+02  0.52473886414E+01 -0.11564342623E+02  0.21333959141E+02  0.00000000000E+00 0. -1.
</event>
<event>
 7    1  0.1335379E-011  0.5930191E+02  0.7816164E-02  0.1266605E+00
        -11   -1    0    0    0    0  0.00000000000E+00  0.00000000000E+00  0.45593999997E+02  0.45594000000E+02  0.51100000000E-03 0.  1.
         11   -1    0    0    0    0 -0.00000000000E+00 -0.00000000000E+00 -0.45593999997E+02  0.45594000000E+02  0.51100000000E-03 0. -1.
    9900012    2    1    2    0    0  0.18992310193E+02 -0.17434708456E+02 -0.18762886641E+02  0.59301908667E+02  0.49999935510E+02 0.  0.
        -12    1    1    2    0    0 -0.18992310193E+02  0.17434708456E+02  0.18762886641E+02  0.31886091333E+02  0.00000000000E+00 0.  1.
         11    1    3    3    0    0  0.22377885825E+02 -0.70998078487E+00 -0.23315456002E+02  0.32324670695E+02  0.51100000000E-03 0. -1.
        -11    1    3    3    0    0 -0.52022167320E+01  0.35003595706E+01  0.14417207411E+01  0.64338273995E+01  0.51100000000E-03 0.  1.
        -12    1    3    3    0    0  0.18166411003E+01 -0.20225087241E+02  0.31108486197E+01  0.20543410572E+02  0.00000000000E+00 0.  1.
</event>
<event>
 7    1  0.1335379E-011  0.5930194E+02  0.7816164E-02  0.1266605E+00
        -11   -1    0    0    0    0  0.00000000000E+00  0.00000000000E+00  0.45593999997E+02  0.45594000000E+02  0.51100000000E-03 0.  1.
         11   -1    0    0    0    0 -0.00000000000E+00 -0.00000000000E+00 -0.45593999997E+02  0.45594000000E+02  0.51100000000E-03 0. -1.
    9900012    2    1    2    0    0  0.27351047411E+01 -0.27641562892E+02 -0.15658348450E+02  0.59301942338E+02  0.49999996918E+02 0.  0.
        -12    1    1    2    0    0 -0.27351047411E+01  0.27641562892E+02  0.15658348450E+02  0.31886057662E+02  0.00000000000E+00 0.  1.
         11    1    3    3    0    0 -0.40628769646E+01 -0.30227940161E+01  0.46058909886E+01  0.68453257740E+01  0.51100000000E-03 0.  1.
        -11    1    3    3    0    0 -0.75980319999E+01 -0.16895437142E+02 -0.28631176410E+02  0.34101761676E+02  0.51100000000E-03 0. -1.
         12    1    3    3    0    0  0.14396013706E+02 -0.77233317338E+01  0.83669369718E+01  0.18354854888E+02  0.00000000000E+00 0. -1.
</event>
<event>
 7    1  0.1335379E-011  0.5930192E+02  0.7816164E-02  0.1266605E+00
        -11   -1    0    0    0    0  0.00000000000E+00  0.00000000000E+00  0.45593999997E+02  0.45594000000E+02  0.51100000000E-03 0.  1.
         11   -1    0    0    0    0 -0.00000000000E+00 -0.00000000000E+00 -0.45593999997E+02  0.45594000000E+02  0.51100000000E-03 0. -1.
    9900012    2    1    2    0    0  0.27201837365E+02  0.12445131800E+02 -0.11040872214E+02  0.59301919638E+02  0.49999955520E+02 0.  0.
        -12    1    1    2    0    0 -0.27201837365E+02 -0.12445131800E+02  0.11040872214E+02  0.31886080362E+02  0.00000000000E+00 0.  1.
         11    1    3    3    0    0  0.60804956205E+01 -0.32561069627E+01  0.12932920002E+02  0.14657253480E+02  0.51100000000E-03 0.  1.
        -11    1    3    3    0    0  0.25767858964E+02  0.77929815820E+01 -0.23023888916E+02  0.35423333815E+02  0.51100000000E-03 0. -1.
         12    1    3    3    0    0 -0.46465172188E+01  0.79082571807E+01 -0.94990330009E+00  0.92213323430E+01  0.00000000000E+00 0. -1.
</event>
<event>
 7    1  0.1335379E-011  0.5930193E+02  0.7816164E-02  0.1266605E+00
        -11   -1    0    0    0    0  0.00000000000E+00  0.00000000000E+00  0.45593999997E+02  0.45594000000E+02  0.51100000000E-03 0. -1.
         11   -1    0    0    0    0 -0.00000000000E+00 -0.00000000000E+00 -0.45593999997E+02  0.45594000000E+02  0.51100000000E-03 0.  1.
    9900012    2    1    2    0    0 -0.29162740983E+02  0.11194915214E+02 -0.63976346185E+01  0.59301932243E+02  0.49999978508E+02 0.  0.
        -12    1    1    2    0    0  0.29162740983E+02 -0.11194915214E+02  0.63976346185E+01  0.31886067757E+02  0.00000000000E+00 0.  1.
         11    1    3    3    0    0 -0.22629227737E+02  0.14159086479E+02  0.10992165087E+02  0.28868484052E+02  0.51100000000E-03 0. -1.
        -11    1    3    3    0    0  0.27844803259E+01 -0.97615343230E+00  0.51652453937E+01  0.59486104635E+01  0.51100000000E-03 0.  1.
         12    1    3    3    0    0 -0.93179935712E+01 -0.19880178325E+01 -0.22555045100E+02  0.24484837727E+02  0.00000000000E+00 0. -1.
</event>
<event>
 7    1  0.1335379E-011  0.5930196E+02  0.7816164E-02  0.1266605E+00
        -11   -1    0    0    0    0  0.00000000000E+00  0.00000000000E+00  0.45593999997E+02  0.45594000000E+02  0.51100000000E-03 0. -1.
         11   -1    0    0    0    0 -0.00000000000E+00 -0.00000000000E+00 -0.45593999997E+02  0.45594000000E+02  0.51100000000E-03 0.  1.
    9900012    2    1    2    0    0  0.24563341903E+02  0.67895833501E+01  0.19164117599E+02  0.59301958997E+02  0.50000027300E+02 0.  0.
        -12    1    1    2    0    0 -0.24563341903E+02 -0.67895833501E+01 -0.19164117599E+02  0.31886041003E+02  0.00000000000E+00 0.  1.
         11    1    3    3    0    0  0.36124602399E+02  0.12658969860E+02  0.14349076321E+02  0.40879486395E+02  0.51100000000E-03 0. -1.
        -11    1    3    3    0    0 -0.24075737054E+01  0.26724141143E+01  0.46788152210E+01  0.59016540460E+01  0.51100000000E-03 0.  1.
        -12    1    3    3    0    0 -0.91536867909E+01 -0.85418006237E+01  0.13622605768E+00  0.12520818556E+02  0.00000000000E+00 0.  1.
</event>
<event>
 7    1  0.1335379E-011  0.5930194E+02  0.7816164E-02  0.1266605E+00
        -11   -1    0    0    0    0  0.00000000000E+00  0.00000000000E+00  0.45593999997E+02  0.45594000000E+02  0.51100000000E-03 0. -1.
         11   -1    0    0    0    0 -0.00000000000E+00 -0.00000000000E+00 -0.45593999997E+02  0.45594000000E+02  0.51100000000E-03 0.  1.
    9900012    2    1    2    0    0  0.27956492983E+02  0.13674403671E+02 -0.69401878773E+01  0.59301936846E+02  0.49999986903E+02 0.  0.
        -12    1    1    2    0    0 -0.27956492983E+02 -0.13674403671E+02  0.69401878773E+01  0.31886063154E+02  0.00000000000E+00 0.  1.
         11    1    3    3    0    0  0.14289192378E+02  0.27076200621E+02  0.82123325899E+01  0.31697698114E+02  0.51100000000E-03 0. -1.
        -11    1    3    3    0    0  0.11840348534E+02 -0.26688952660E+01 -0.70882590432E+01  0.14055613536E+02  0.51100000000E-03 0.  1.
        -12    1    3    3    0    0  0.18269520705E+01 -0.10732901683E+02 -0.80642614240E+01  0.13548625197E+02  0.00000000000E+00 0.  1.
</event>
<event>
 7    1  0.1335379E-011  0.5930193E+02  0.7816164E-02  0.1266605E+00
        -11   -1    0    0    0    0  0.00000000000E+00  0.00000000000E+00  0.45593999997E+02  0.45594000000E+02  0.51100000000E-03 0.  1.
         11   -1    0    0    0    0 -0.00000000000E+00 -0.00000000000E+00 -0.45593999997E+02  0.45594000000E+02  0.51100000000E-03 0. -1.
    9900012    2    1    2    0    0 -0.18856704024E+02  0.25247574130E+02 -0.48688926100E+01  0.59301930920E+02  0.49999976094E+02 0.  0.
        -12    1    1    2    0    0  0.18856704024E+02 -0.25247574130E+02  0.48688926100E+01  0.31886069080E+02  0.00000000000E+00 0.  1.
         11    1    3    3    0    0 -0.11065189400E+02  0.93569004810E+01 -0.15825138045E+02  0.21457516107E+02  0.51100000000E-03 0. -1.
        -11    1    3    3    0    0  0.85820461475E+01  0.17047221979E+02  0.21204804232E+01  0.19203013585E+02  0.51100000000E-03 0.  1.
        -12    1    3    3    0    0 -0.16373560772E+02 -0.11565483291E+01  0.88357650121E+01  0.18641401228E+02  0.00000000000E+00 0.  1.
</event>
<event>
 7    1  0.1335379E-011  0.5930201E+02  0.7816164E-02  0.1266605E+00
        -11   -1    0    0    0    0  0.00000000000E+00  0.00000000000E+00  0.45593999997E+02  0.45594000000E+02  0.51100000000E-03 0.  1.
         11   -1    0    0    0    0 -0.00000000000E+00 -0.00000000000E+00 -0.45593999997E+02  0.45594000000E+02  0.51100000000E-03 0. -1.
    9900012    2    1    2    0    0  0.22794265226E+01 -0.27951866192E+02 -0.15172802357E+02  0.59302007147E+02  0.50000115114E+02 0.  0.
        -12    1    1    2    0    0 -0.22794265226E+01  0.27951866192E+02  0.15172802357E+02  0.31885992853E+02  0.00000000000E+00 0.  1.
         11    1    3    3    0    0  0.91116391113E+01 -0.11831028884E+01  0.61219291686E+00  0.92085004300E+01  0.51100000000E-03 0. -1.
        -11    1    3    3    0    0 -0.14048210557E+02 -0.12206119649E+02  0.88286396657E+01  0.20598214859E+02  0.51100000000E-03 0.  1.
         12    1    3    3    0    0  0.72159979685E+01 -0.14562643654E+02 -0.24613634939E+02  0.29495291858E+02  0.00000000000E+00 0. -1.
</event>
<event>
 7    1  0.1335379E-011  0.5930196E+02  0.7816164E-02  0.1266605E+00
        -11   -1    0    0    0    0  0.00000000000E+00  0.00000000000E+00  0.45593999997E+02  0.45594000000E+02  0.51100000000E-03 0. -1.
         11   -1    0    0    0    0 -0.00000000000E+00 -0.00000000000E+00 -0.45593999997E+02  0.45594000000E+02  0.51100000000E-03 0.  1.
    9900012    2    1    2    0    0  0.30356809569E+02 -0.57984321825E+01  0.78461315699E+01  0.59301960993E+02  0.50000030940E+02 0.  0.
        -12    1    1    2    0    0 -0.30356809569E+02  0.57984321825E+01 -0.78461315699E+01  0.31886039007E+02  0.00000000000E+00 0.  1.
         11    1    3    3    0    0 -0.11459040147E+02  0.28935028515E+01 -0.12571624206E+01  0.11885386719E+02  0.51100000000E-03 0.  1.
        -11    1    3    3    0    0  0.18979269061E+02  0.30069406539E+01 -0.22710156031E+01  0.19349725019E+02  0.51100000000E-03 0. -1.
        -12    1    3    3    0    0  0.22836580655E+02 -0.11698875688E+02  0.11374309594E+02  0.28066849255E+02  0.00000000000E+00 0.  1.
</event>
<event>
 7    1  0.1335379E-011  0.5930194E+02  0.7816164E-02  0.1266605E+00
        -11   -1    0    0    0    0  0.00000000000E+00  0.00000000000E+00  0.45593999997E+02  0.45594000000E+02  0.51100000000E-03 0.  1.
         11   -1    0    0    0    0 -0.00000000000E+00 -0.00000000000E+00 -0.45593999997E+02  0.45594000000E+02  0.51100000000E-03 0. -1.
    9900012    2    1    2    0    0  0.19597846410E+02 -0.17954289368E+02 -0.17615016739E+02  0.59301938698E+02  0.49999990280E+02 0.  0.
        -12    1    1    2    0    0 -0.19597846410E+02  0.17954289368E+02  0.17615016739E+02  0.31886061302E+02  0.00000000000E+00 0.  1.
         11    1    3    3    0    0 -0.74200277319E+01 -0.16626614479E+02 -0.12872429492E+02  0.22297994571E+02  0.51100000000E-03 0. -1.
        -11    1    3    3    0    0  0.13615475713E+02  0.83078469872E+00 -0.14786280149E+02  0.20117292636E+02  0.51100000000E-03 0.  1.
        -12    1    3    3    0    0  0.13402398430E+02 -0.21584595880E+01  0.10043692903E+02  0.16886651491E+02  0.00000000000E+00 0.  1.
</event>
<event>
 7    1  0.1335379E-011  0.5930197E+02  0.7816164E-02  0.1266605E+00
        -11   -1    0    0    0    0  0.00000000000E+00  0.00000000000E+00  0.45593999997E+02  0.45594000000E+02  0.51100000000E-03 0.  1.
         11   -1    0    0    0    0 -0.00000000000E+00 -0.00000000000E+00 -0.45593999997E+02  0.45594000000E+02  0.51100000000E-03 0. -1.
    9900012    2    1    2    0    0 -0.23343094115E+02  0.10816390659E+02 -0.18836779040E+02  0.59301974937E+02  0.50000056370E+02 0.  0.
        -12    1    1    2    0    0  0.23343094115E+02 -0.10816390659E+02  0.18836779040E+02  0.31886025063E+02  0.00000000000E+00 0.  1.
         11    1    3    3    0    0 -0.21253698162E+01  0.37076547931E+01 -0.52284684218E+01  0.67528351986E+01  0.51100000000E-03 0. -1.
        -11    1    3    3    0    0 -0.16001494771E+01  0.54134648546E+01  0.16013778825E+02  0.16979611085E+02  0.51100000000E-03 0.  1.
         12    1    3    3    0    0 -0.19617574821E+02  0.16952710116E+01 -0.29622089443E+02  0.35569528654E+02  0.00000000000E+00 0. -1.
</event>
<event>
 7    1  0.1335379E-011  0.5930192E+02  0.7816164E-02  0.1266605E+00
        -11   -1    0    0    0    0  0.00000000000E+00  0.00000000000E+00  0.45593999997E+02  0.45594000000E+02  0.51100000000E-03 0.  1.
         11   -1    0    0    0    0 -0.00000000000E+00 -0.00000000000E+00 -0.45593999997E+02  0.45594000000E+02  0.51100000000E-03 0. -1.
    9900012    2    1    2    0    0 -0.41439527215E+01 -0.32962635234E+01 -0.31443351947E+02  0.59301920294E+02  0.49999956715E+02 0.  0.
        -12    1    1    2    0    0  0.41439527215E+01  0.32962635234E+01  0.31443351947E+02  0.31886079706E+02  0.00000000000E+00 0.  1.
         11    1    3    3    0    0  0.13765282955E+02  0.31950194253E+01 -0.24306947073E+02  0.28116166884E+02  0.51100000000E-03 0. -1.
        -11    1    3    3    0    0 -0.16448977242E+01 -0.10346879507E+02  0.38740677223E+01  0.11170138989E+02  0.51100000000E-03 0.  1.
        -12    1    3    3    0    0 -0.16264337952E+02  0.38555965588E+01 -0.11010472596E+02  0.20015614421E+02  0.00000000000E+00 0.  1.
</event>
<event>
 7    1  0.1335379E-011  0.5930195E+02  0.7816164E-02  0.1266605E+00
        -11   -1    0    0    0    0  0.00000000000E+00  0.00000000000E+00  0.45593999997E+02  0.45594000000E+02  0.51100000000E-03 0.  1.
         11   -1    0    0    0    0 -0.00000000000E+00 -0.00000000000E+00 -0.45593999997E+02  0.45594000000E+02  0.51100000000E-03 0. -1.
    9900012    2    1    2    0    0  0.83455446225E+01  0.27837699640E+02 -0.13120010198E+02  0.59301948129E+02  0.50000007480E+02 0.  0.
        -12    1    1    2    0    0 -0.83455446225E+01 -0.27837699640E+02  0.13120010198E+02  0.31886051871E+02  0.00000000000E+00 0.  1.
         11    1    3    3    0    0 -0.11033263720E+00  0.12043461730E+02 -0.12677256584E+02  0.17486279721E+02  0.51100000000E-03 0. -1.
        -11    1    3    3    0    0 -0.18288946047E+01  0.24378447245E+02  0.83014517512E+01  0.25817971396E+02  0.51100000000E-03 0.  1.
         12    1    3    3    0    0  0.10284771864E+02 -0.85842093355E+01 -0.87442053651E+01  0.15997697012E+02  0.00000000000E+00 0. -1.
</event>
<event>
 7    1  0.1335379E-011  0.5930195E+02  0.7816164E-02  0.1266605E+00
        -11   -1    0    0    0    0  0.00000000000E+00  0.00000000000E+00  0.45593999997E+02  0.45594000000E+02  0.51100000000E-03 0.  1.
         11   -1    0    0    0    0 -0.00000000000E+00 -0.00000000000E+00 -0.45593999997E+02  0.45594000000E+02  0.51100000000E-03 0. -1.
    9900012    2    1    2    0    0  0.74599794281E+01  0.22098212551E+02 -0.21742537377E+02  0.59301949404E+02  0.50000009806E+02 0.  0.
        -12    1    1    2    0    0 -0.74599794281E+01 -0.22098212551E+02  0.21742537377E+02  0.31886050596E+02  0.00000000000E+00 0.  1.
         11    1    3    3    0    0  0.11480219185E+01  0.17396517345E+02 -0.44957748429E+01  0.18004687217E+02  0.51100000000E-03 0. -1.
        -11    1    3    3    0    0 -0.42858687464E+01 -0.13289865293E+02 -0.14677753339E+02  0.20258964282E+02  0.51100000000E-03 0.  1.
         12    1    3    3    0    0  0.10597826256E+02  0.17991560499E+02 -0.25690091945E+01  0.21038297906E+02  0.00000000000E+00 0. -1.
</event>
<event>
 7    1  0.1335379E-011  0.5930194E+02  0.7816164E-02  0.1266605E+00
        -11   -1    0    0    0    0  0.00000000000E+00  0.00000000000E+00  0.45593999997E+02  0.45594000000E+02  0.51100000000E-03 0.  1.
         11   -1    0    0    0    0 -0.00000000000E+00 -0.00000000000E+00 -0.45593999997E+02  0.45594000000E+02  0.51100000000E-03 0. -1.
    9900012    2    1    2    0    0 -0.21224001437E+02 -0.19282038158E+02 -0.13945101021E+02  0.59301936038E+02  0.49999985428E+02 0.  0.
        -12    1    1    2    0    0  0.21224001437E+02  0.19282038158E+02  0.13945101021E+02  0.31886063962E+02  0.00000000000E+00 0.  1.
         11    1    3    3    0    0 -0.60634678790E+01  0.29058833221E+01 -0.21698906908E+02  0.22716785905E+02  0.51100000000E-03 0. -1.
        -11    1    3    3    0    0  0.20419788406E+01 -0.17197121118E+02  0.69280740152E+00  0.17331781059E+02  0.51100000000E-03 0.  1.
        -12    1    3    3    0    0 -0.17202512398E+02 -0.49908003624E+01  0.70609984855E+01  0.19253369074E+02  0.00000000000E+00 0.  1.
</event>
<event>
 7    1  0.1335379E-011  0.5930189E+02  0.7816164E-02  0.1266605E+00
        -11   -1    0    0    0    0  0.00000000000E+00  0.00000000000E+00  0.45593999997E+02  0.45594000000E+02  0.51100000000E-03 0. -1.
         11   -1    0    0    0    0 -0.00000000000E+00 -0.00000000000E+00 -0.45593999997E+02  0.45594000000E+02  0.51100000000E-03 0.  1.
    9900012    2    1    2    0    0  0.21285690265E+01  0.16991510471E+02  0.26897619703E+02  0.59301887351E+02  0.49999896634E+02 0.  0.
        -12    1    1    2    0    0 -0.21285690265E+01 -0.16991510471E+02 -0.26897619703E+02  0.31886112649E+02  0.00000000000E+00 0.  1.
         11    1    3    3    0    0 -0.11019455879E+02  0.12044042763E+02  0.22117269913E+02  0.27489288871E+02  0.51100000000E-03 0. -1.
        -11    1    3    3    0    0 -0.57026972912E+01 -0.70014457542E+01  0.21982461146E+00  0.90326807851E+01  0.51100000000E-03 0.  1.
         12    1    3    3    0    0  0.18850722197E+02  0.11948913463E+02  0.45605251784E+01  0.22779917695E+02  0.00000000000E+00 0. -1.
</event>
<event>
 7    1  0.1335379E-011  0.5930192E+02  0.7816164E-02  0.1266605E+00
        -11   -1    0    0    0    0  0.00000000000E+00  0.00000000000E+00  0.45593999997E+02  0.45594000000E+02  0.51100000000E-03 0. -1.
         11   -1    0    0    0    0 -0.00000000000E+00 -0.00000000000E+00 -0.45593999997E+02  0.45594000000E+02  0.51100000000E-03 0.  1.
    9900012    2    1    2    0    0 -0.23305893846E+02 -0.51897459566E+01  0.21133471782E+02  0.59301924973E+02  0.49999965249E+02 0.  0.
        -12    1    1    2    0    0  0.23305893846E+02  0.51897459566E+01 -0.21133471782E+02  0.31886075027E+02  0.00000000000E+00 0.  1.
         11    1    3    3    0    0 -0.10493308819E+02  0.15014538584E+02  0.13364798408E+02  0.22675178844E+02  0.51100000000E-03 0. -1.
        -11    1    3    3    0    0  0.26214171211E+01  0.14415298328E+00 -0.67544078685E+01  0.72466981254E+01  0.51100000000E-03 0.  1.
        -12    1    3    3    0    0 -0.15434002148E+02 -0.20348437523E+02  0.14523081243E+02  0.29380048004E+02  0.00000000000E+00 0.  1.
</event>
<event>
 7    1  0.1335379E-011  0.5930179E+02  0.7816164E-02  0.1266605E+00
        -11   -1    0    0    0    0  0.00000000000E+00  0.00000000000E+00  0.45593999997E+02  0.45594000000E+02  0.51100000000E-03 0.  1.
         11   -1    0    0    0    0 -0.00000000000E+00 -0.00000000000E+00 -0.45593999997E+02  0.45594000000E+02  0.51100000000E-03 0. -1.
    9900012    2    1    2    0    0 -0.28831910475E+02 -0.10110957615E+02 -0.91224879632E+01  0.59301791191E+02  0.49999721262E+02 0.  0.
        -12    1    1    2    0    0  0.28831910475E+02  0.10110957615E+02  0.91224879632E+01  0.31886208809E+02  0.00000000000E+00 0.  1.
         11    1    3    3    0    0 -0.12220391227E+02 -0.17695988775E+02  0.13251820634E+01  0.21546277828E+02  0.51100000000E-03 0. -1.
        -11    1    3    3    0    0 -0.20898043889E+02 -0.12842248773E+01 -0.16087706924E+02  0.26404389527E+02  0.51100000000E-03 0.  1.
        -12    1    3    3    0    0  0.42865246406E+01  0.88692560373E+01  0.56400368979E+01  0.11351123837E+02  0.00000000000E+00 0.  1.
</event>
<event>
 7    1  0.1335379E-011  0.5930195E+02  0.7816164E-02  0.1266605E+00
        -11   -1    0    0    0    0  0.00000000000E+00  0.00000000000E+00  0.45593999997E+02  0.45594000000E+02  0.51100000000E-03 0.  1.
         11   -1    0    0    0    0 -0.00000000000E+00 -0.00000000000E+00 -0.45593999997E+02  0.45594000000E+02  0.51100000000E-03 0. -1.
    9900012    2    1    2    0    0 -0.31567391870E+02  0.27714385516E+01 -0.35410149336E+01  0.59301954653E+02  0.50000019377E+02 0.  0.
        -12    1    1    2    0    0  0.31567391870E+02 -0.27714385516E+01  0.35410149336E+01  0.31886045347E+02  0.00000000000E+00 0.  1.
         11    1    3    3    0    0 -0.21390479370E+02  0.86150220849E+01 -0.59728491791E+01  0.23821128033E+02  0.51100000000E-03 0. -1.
        -11    1    3    3    0    0 -0.79090328877E+01 -0.18698669566E+02  0.72620190832E+01  0.21562234722E+02  0.51100000000E-03 0.  1.
         12    1    3    3    0    0 -0.22678796126E+01  0.12855086033E+02 -0.48301848377E+01  0.13918591898E+02  0.00000000000E+00 0. -1.
</event>
<event>
 7    1  0.1335379E-011  0.5930192E+02  0.7816164E-02  0.1266605E+00
        -11   -1    0    0    0    0  0.00000000000E+00  0.00000000000E+00  0.45593999997E+02  0.45594000000E+02  0.51100000000E-03 0.  1.
         11   -1    0    0    0    0 -0.00000000000E+00 -0.00000000000E+00 -0.45593999997E+02  0.45594000000E+02  0.51100000000E-03 0. -1.
    9900012    2    1    2    0    0  0.26507593113E+02  0.16653255445E+02 -0.60612458009E+01  0.59301919805E+02  0.49999955824E+02 0.  0.
        -12    1    1    2    0    0 -0.26507593113E+02 -0.16653255445E+02  0.60612458009E+01  0.31886080195E+02  0.00000000000E+00 0.  1.
         11    1    3    3    0    0 -0.48970194890E+01  0.45993578088E+01 -0.97427707663E+01  0.11834545813E+02  0.51100000000E-03 0. -1.
        -11    1    3    3    0    0 -0.60218270728E+01 -0.31192692679E+01  0.19001108416E+01  0.70429158402E+01  0.51100000000E-03 0.  1.
        -12    1    3    3    0    0  0.37426439674E+02  0.15173166904E+02  0.17814141238E+01  0.40424458152E+02  0.00000000000E+00 0.  1.
</event>
<event>
 7    1  0.1335379E-011  0.5930197E+02  0.7816164E-02  0.1266605E+00
        -11   -1    0    0    0    0  0.00000000000E+00  0.00000000000E+00  0.45593999997E+02  0.45594000000E+02  0.51100000000E-03 0.  1.
         11   -1    0    0    0    0 -0.00000000000E+00 -0.00000000000E+00 -0.45593999997E+02  0.45594000000E+02  0.51100000000E-03 0. -1.
    9900012    2    1    2    0    0 -0.24524230941E+02  0.10548081078E+02 -0.17436144813E+02  0.59301967578E+02  0.50000042949E+02 0.  0.
        -12    1    1    2    0    0  0.24524230941E+02 -0.10548081078E+02  0.17436144813E+02  0.31886032422E+02  0.00000000000E+00 0.  1.
         11    1    3    3    0    0  0.81102859856E+01  0.91480956579E+01  0.18310855870E+00  0.12226934282E+02  0.51100000000E-03 0. -1.
        -11    1    3    3    0    0 -0.14642236178E+01 -0.23688368188E+01  0.67683981118E+01  0.73189174020E+01  0.51100000000E-03 0.  1.
        -12    1    3    3    0    0 -0.31170293309E+02  0.37688222389E+01 -0.24387651484E+02  0.39756115893E+02  0.00000000000E+00 0.  1.
</event>
<event>
 7    1  0.1335379E-011  0.5930194E+02  0.7816164E-02  0.1266605E+00
        -11   -1    0    0    0    0  0.00000000000E+00  0.00000000000E+00  0.45593999997E+02  0.45594000000E+02  0.51100000000E-03 0.  1.
         11   -1    0    0    0    0 -0.00000000000E+00 -0.00000000000E+00 -0.45593999997E+02  0.45594000000E+02  0.51100000000E-03 0. -1.
    9900012    2    1    2    0    0 -0.23847148479E+02  0.10243973421E+01 -0.21142018650E+02  0.59301939831E+02  0.49999992346E+02 0.  0.
        -12    1    1    2    0    0  0.23847148479E+02 -0.10243973421E+01  0.21142018650E+02  0.31886060169E+02  0.00000000000E+00 0.  1.
         11    1    3    3    0    0 -0.20128466466E+02  0.49048734324E+01  0.15649356617E+01  0.20776476351E+02  0.51100000000E-03 0. -1.
        -11    1    3    3    0    0  0.13444820056E+02 -0.13853126958E+01 -0.74911920163E+01  0.15453162644E+02  0.51100000000E-03 0.  1.
         12    1    3    3    0    0 -0.17163502069E+02 -0.24951633944E+01 -0.15215762296E+02  0.23072300836E+02  0.00000000000E+00 0. -1.
</event>
<event>
 7    1  0.1335379E-011  0.5930193E+02  0.7816164E-02  0.1266605E+00
        -11   -1    0    0    0    0  0.00000000000E+00  0.00000000000E+00  0.45593999997E+02  0.45594000000E+02  0.51100000000E-03 0. -1.
         11   -1    0    0    0    0 -0.00000000000E+00 -0.00000000000E+00 -0.45593999997E+02  0.45594000000E+02  0.51100000000E-03 0.  1.
    9900012    2    1    2    0    0  0.10278178128E+02  0.22272848575E+02 -0.20371562161E+02  0.59301932915E+02  0.49999979733E+02 0.  0.
        -12    1    1    2    0    0 -0.10278178128E+02 -0.22272848575E+02  0.20371562161E+02  0.31886067085E+02  0.00000000000E+00 0.  1.
         11    1    3    3    0    0 -0.42734609764E+01 -0.15708561726E+01  0.44060344112E+01  0.63358659491E+01  0.51100000000E-03 0. -1.
        -11    1    3    3    0    0  0.81218123304E+01  0.31731389533E+02 -0.86178248413E+01  0.33869039291E+02  0.51100000000E-03 0.  1.
        -12    1    3    3    0    0  0.64298267741E+01 -0.78876847857E+01 -0.16159771731E+02  0.19097027675E+02  0.00000000000E+00 0.  1.
</event>
<event>
 7    1  0.1335379E-011  0.5930197E+02  0.7816164E-02  0.1266605E+00
        -11   -1    0    0    0    0  0.00000000000E+00  0.00000000000E+00  0.45593999997E+02  0.45594000000E+02  0.51100000000E-03 0.  1.
         11   -1    0    0    0    0 -0.00000000000E+00 -0.00000000000E+00 -0.45593999997E+02  0.45594000000E+02  0.51100000000E-03 0. -1.
    9900012    2    1    2    0    0  0.25377619857E+02 -0.13978415196E+02  0.13315380038E+02  0.59301968159E+02  0.50000044010E+02 0.  0.
        -12    1    1    2    0    0 -0.25377619857E+02  0.13978415196E+02 -0.13315380038E+02  0.31886031841E+02  0.00000000000E+00 0.  1.
         11    1    3    3    0    0  0.21873074364E+02 -0.25759202104E+02 -0.12006414304E+01  0.33814337422E+02  0.51100000000E-03 0. -1.
        -11    1    3    3    0    0 -0.45887813752E+01 -0.14704985143E+01  0.10437634292E+01  0.49303876873E+01  0.51100000000E-03 0.  1.
        -12    1    3    3    0    0  0.80933268684E+01  0.13251285422E+02  0.13472258039E+02  0.20557243050E+02  0.00000000000E+00 0.  1.
</event>
<event>
 7    1  0.1335379E-011  0.5930198E+02  0.7816164E-02  0.1266605E+00
        -11   -1    0    0    0    0  0.00000000000E+00  0.00000000000E+00  0.45593999997E+02  0.45594000000E+02  0.51100000000E-03 0.  1.
         11   -1    0    0    0    0 -0.00000000000E+00 -0.00000000000E+00 -0.45593999997E+02  0.45594000000E+02  0.51100000000E-03 0. -1.
    9900012    2    1    2    0    0 -0.12600525925E+02 -0.28689575239E+02  0.59036414964E+01  0.59301984823E+02  0.50000074401E+02 0.  0.
        -12    1    1    2    0    0  0.12600525925E+02  0.28689575239E+02 -0.59036414964E+01  0.31886015177E+02  0.00000000000E+00 0.  1.
         11    1    3    3    0    0  0.40654272349E+01 -0.10075056012E+02 -0.14883578087E+02  0.18427027682E+02  0.51100000000E-03 0. -1.
        -11    1    3    3    0    0  0.12549719149E+01 -0.15468782927E+02  0.37893960660E+01  0.15975535125E+02  0.51100000000E-03 0.  1.
        -12    1    3    3    0    0 -0.17920925075E+02 -0.31457363003E+01  0.16997823517E+02  0.24899422016E+02  0.00000000000E+00 0.  1.
</event>
<event>
 7    1  0.1335379E-011  0.5930201E+02  0.7816164E-02  0.1266605E+00
        -11   -1    0    0    0    0  0.00000000000E+00  0.00000000000E+00  0.45593999997E+02  0.45594000000E+02  0.51100000000E-03 0.  1.
         11   -1    0    0    0    0 -0.00000000000E+00 -0.00000000000E+00 -0.45593999997E+02  0.45594000000E+02  0.51100000000E-03 0. -1.
    9900012    2    1    2    0    0  0.98589271270E+01  0.50425832434E+01 -0.29901342072E+02  0.59302010168E+02  0.50000120624E+02 0.  0.
        -12    1    1    2    0    0 -0.98589271270E+01 -0.50425832434E+01  0.29901342072E+02  0.31885989832E+02  0.00000000000E+00 0.  1.
         11    1    3    3    0    0  0.17001529393E+02 -0.37301318285E+01  0.29468322027E+00  0.17408409566E+02  0.51100000000E-03 0. -1.
        -11    1    3    3    0    0  0.40663507205E+01 -0.54743397677E+01 -0.17218410479E+00  0.68215285458E+01  0.51100000000E-03 0.  1.
         12    1    3    3    0    0 -0.11208952987E+02  0.14247054840E+02 -0.30023841187E+02  0.35072072056E+02  0.00000000000E+00 0. -1.
</event>
<event>
 7    1  0.1335379E-011  0.5930194E+02  0.7816164E-02  0.1266605E+00
        -11   -1    0    0    0    0  0.00000000000E+00  0.00000000000E+00  0.45593999997E+02  0.45594000000E+02  0.51100000000E-03 0.  1.
         11   -1    0    0    0    0 -0.00000000000E+00 -0.00000000000E+00 -0.45593999997E+02  0.45594000000E+02  0.51100000000E-03 0. -1.
    9900012    2    1    2    0    0  0.21753565321E+02  0.90974545139E+01 -0.21464841719E+02  0.59301941717E+02  0.49999995786E+02 0.  0.
        -12    1    1    2    0    0 -0.21753565321E+02 -0.90974545139E+01  0.21464841719E+02  0.31886058283E+02  0.00000000000E+00 0.  1.
         11    1    3    3    0    0  0.32641895476E+01  0.37242734582E+01 -0.15931021232E+01  0.52022226817E+01  0.51100000000E-03 0. -1.
        -11    1    3    3    0    0  0.13218860351E+02  0.25265600813E+02 -0.17321518819E+02  0.33363511025E+02  0.51100000000E-03 0.  1.
         12    1    3    3    0    0  0.52705154226E+01 -0.19892419758E+02 -0.25502207769E+01  0.20736208010E+02  0.00000000000E+00 0. -1.
</event>
<event>
 7    1  0.1335379E-011  0.5930187E+02  0.7816164E-02  0.1266605E+00
        -11   -1    0    0    0    0  0.00000000000E+00  0.00000000000E+00  0.45593999997E+02  0.45594000000E+02  0.51100000000E-03 0. -1.
         11   -1    0    0    0    0 -0.00000000000E+00 -0.00000000000E+00 -0.45593999997E+02  0.45594000000E+02  0.51100000000E-03 0.  1.
    9900012    2    1    2    0    0 -0.88024938450E+00 -0.30160377177E+02  0.10310280149E+02  0.59301873437E+02  0.49999871260E+02 0.  0.
        -12    1    1    2    0    0  0.88024938450E+00  0.30160377177E+02 -0.10310280149E+02  0.31886126563E+02  0.00000000000E+00 0.  1.
         11    1    3    3    0    0 -0.18638919595E+02 -0.28147749496E+01 -0.10264661025E+01  0.18878186211E+02  0.51100000000E-03 0. -1.
        -11    1    3    3    0    0  0.10806034167E+02 -0.20444829104E+02  0.17367308333E+02  0.28920318299E+02  0.51100000000E-03 0.  1.
        -12    1    3    3    0    0  0.69526360432E+01 -0.69007731237E+01 -0.60305620821E+01  0.11503368927E+02  0.00000000000E+00 0.  1.
</event>
<event>
 7    1  0.1335379E-011  0.5930187E+02  0.7816164E-02  0.1266605E+00
        -11   -1    0    0    0    0  0.00000000000E+00  0.00000000000E+00  0.45593999997E+02  0.45594000000E+02  0.51100000000E-03 0.  1.
         11   -1    0    0    0    0 -0.00000000000E+00 -0.00000000000E+00 -0.45593999997E+02  0.45594000000E+02  0.51100000000E-03 0. -1.
    9900012    2    1    2    0    0 -0.19649234144E+02  0.16554514621E+02 -0.18883359033E+02  0.59301865001E+02  0.49999855874E+02 0.  0.
        -12    1    1    2    0    0  0.19649234144E+02 -0.16554514621E+02  0.18883359033E+02  0.31886134999E+02  0.00000000000E+00 0.  1.
         11    1    3    3    0    0 -0.24263778590E+02  0.71940035761E+01 -0.62558700481E+01  0.26069532969E+02  0.51100000000E-03 0. -1.
        -11    1    3    3    0    0 -0.10875502967E+02  0.10232236047E+02 -0.39074882585E+01  0.15435144446E+02  0.51100000000E-03 0.  1.
        -12    1    3    3    0    0  0.15490047412E+02 -0.87172500209E+00 -0.87200007263E+01  0.17797187586E+02  0.00000000000E+00 0.  1.
</event>
<event>
 7    1  0.1335379E-011  0.5930203E+02  0.7816164E-02  0.1266604E+00
        -11   -1    0    0    0    0  0.00000000000E+00  0.00000000000E+00  0.45593999997E+02  0.45594000000E+02  0.51100000000E-03 0.  1.
         11   -1    0    0    0    0 -0.00000000000E+00 -0.00000000000E+00 -0.45593999997E+02  0.45594000000E+02  0.51100000000E-03 0. -1.
    9900012    2    1    2    0    0 -0.29442846938E+02 -0.11862346074E+02  0.30196886807E+01  0.59302031144E+02  0.50000158879E+02 0.  0.
        -12    1    1    2    0    0  0.29442846938E+02  0.11862346074E+02 -0.30196886807E+01  0.31885968856E+02  0.00000000000E+00 0.  1.
         11    1    3    3    0    0  0.51339502373E+00 -0.33282357693E+01 -0.43230969199E+01  0.54799539256E+01  0.51100000000E-03 0. -1.
        -11    1    3    3    0    0 -0.30523323843E+01  0.82251265033E+00  0.21696393471E+02  0.21925481749E+02  0.51100000000E-03 0.  1.
         12    1    3    3    0    0 -0.26903909577E+02 -0.93566229545E+01 -0.14353607870E+02  0.31896595469E+02  0.00000000000E+00 0. -1.
</event>
<event>
 7    1  0.1335379E-011  0.5930195E+02  0.7816164E-02  0.1266605E+00
        -11   -1    0    0    0    0  0.00000000000E+00  0.00000000000E+00  0.45593999997E+02  0.45594000000E+02  0.51100000000E-03 0. -1.
         11   -1    0    0    0    0 -0.00000000000E+00 -0.00000000000E+00 -0.45593999997E+02  0.45594000000E+02  0.51100000000E-03 0.  1.
    9900012    2    1    2    0    0  0.10729178904E+02  0.11422994225E+02  0.27769053237E+02  0.59301946705E+02  0.50000004884E+02 0.  0.
        -12    1    1    2    0    0 -0.10729178904E+02 -0.11422994225E+02 -0.27769053237E+02  0.31886053295E+02  0.00000000000E+00 0.  1.
         11    1    3    3    0    0  0.10753695233E+01  0.48579702982E+00  0.27070452783E+02  0.27096158999E+02  0.51100000000E-03 0. -1.
        -11    1    3    3    0    0 -0.16724742641E+01  0.17397111743E+02  0.54822778188E+01  0.18316987676E+02  0.51100000000E-03 0.  1.
         12    1    3    3    0    0  0.11326283645E+02 -0.64599145478E+01 -0.47836773646E+01  0.13888800031E+02  0.00000000000E+00 0. -1.
</event>
<event>
 7    1  0.1335379E-011  0.5930195E+02  0.7816164E-02  0.1266605E+00
        -11   -1    0    0    0    0  0.00000000000E+00  0.00000000000E+00  0.45593999997E+02  0.45594000000E+02  0.51100000000E-03 0.  1.
         11   -1    0    0    0    0 -0.00000000000E+00 -0.00000000000E+00 -0.45593999997E+02  0.45594000000E+02  0.51100000000E-03 0. -1.
    9900012    2    1    2    0    0  0.16917198574E+02 -0.27015069576E+02 -0.84548085017E+00  0.59301946157E+02  0.50000003883E+02 0.  0.
        -12    1    1    2    0    0 -0.16917198574E+02  0.27015069576E+02  0.84548085017E+00  0.31886053843E+02  0.00000000000E+00 0.  1.
         11    1    3    3    0    0  0.16728184168E+01 -0.90781638460E+01  0.67065411312E+01  0.11410042703E+02  0.51100000000E-03 0. -1.
        -11    1    3    3    0    0  0.23457633165E+02 -0.22415609159E+01  0.74123716072E+01  0.24702801504E+02  0.51100000000E-03 0.  1.
         12    1    3    3    0    0 -0.82132530075E+01 -0.15695344814E+02 -0.14964393589E+02  0.23189101951E+02  0.00000000000E+00 0. -1.
</event>
<event>
 7    1  0.1335379E-011  0.5930198E+02  0.7816164E-02  0.1266605E+00
        -11   -1    0    0    0    0  0.00000000000E+00  0.00000000000E+00  0.45593999997E+02  0.45594000000E+02  0.51100000000E-03 0. -1.
         11   -1    0    0    0    0 -0.00000000000E+00 -0.00000000000E+00 -0.45593999997E+02  0.45594000000E+02  0.51100000000E-03 0.  1.
    9900012    2    1    2    0    0  0.24951766949E+02 -0.15244361252E+02  0.12717593675E+02  0.59301977784E+02  0.50000061564E+02 0.  0.
        -12    1    1    2    0    0 -0.24951766949E+02  0.15244361252E+02 -0.12717593675E+02  0.31886022216E+02  0.00000000000E+00 0.  1.
         11    1    3    3    0    0 -0.51604957261E+01 -0.16360570259E+01  0.18072082928E+01  0.57073111712E+01  0.51100000000E-03 0. -1.
        -11    1    3    3    0    0 -0.97934567705E+01  0.11913898179E+01  0.11906774973E+01  0.99372490347E+01  0.51100000000E-03 0.  1.
         12    1    3    3    0    0  0.39905719445E+02 -0.14799694044E+02  0.97197078852E+01  0.43657417578E+02  0.00000000000E+00 0. -1.
</event>
<event>
 7    1  0.1335379E-011  0.5930188E+02  0.7816164E-02  0.1266605E+00
        -11   -1    0    0    0    0  0.00000000000E+00  0.00000000000E+00  0.45593999997E+02  0.45594000000E+02  0.51100000000E-03 0. -1.
         11   -1    0    0    0    0 -0.00000000000E+00 -0.00000000000E+00 -0.45593999997E+02  0.45594000000E+02  0.51100000000E-03 0.  1.
    9900012    2    1    2    0    0  0.13542197439E+02 -0.26279861754E+02 -0.11945816124E+02  0.59301878126E+02  0.49999879811E+02 0.  0.
        -12    1    1    2    0    0 -0.13542197439E+02  0.26279861754E+02  0.11945816124E+02  0.31886121874E+02  0.00000000000E+00 0.  1.
         11    1    3    3    0    0  0.17431832198E+02 -0.75451491668E+01  0.10617834441E+02  0.21760892863E+02  0.51100000000E-03 0. -1.
        -11    1    3    3    0    0 -0.38527265298E+01  0.49047594065E+01 -0.33607455285E+01  0.70848272610E+01  0.51100000000E-03 0.  1.
         12    1    3    3    0    0 -0.36908229150E-01 -0.23639471994E+02 -0.19202905036E+02  0.30456158002E+02  0.00000000000E+00 0. -1.
</event>
<event>
 7    1  0.1335379E-011  0.5930195E+02  0.7816164E-02  0.1266605E+00
        -11   -1    0    0    0    0  0.00000000000E+00  0.00000000000E+00  0.45593999997E+02  0.45594000000E+02  0.51100000000E-03 0. -1.
         11   -1    0    0    0    0 -0.00000000000E+00 -0.00000000000E+00 -0.45593999997E+02  0.45594000000E+02  0.51100000000E-03 0.  1.
    9900012    2    1    2    0    0 -0.13117548772E+02  0.14165590966E+02  0.25376876188E+02  0.59301954490E+02  0.50000019082E+02 0.  0.
        -12    1    1    2    0    0  0.13117548772E+02 -0.14165590966E+02 -0.25376876188E+02  0.31886045510E+02  0.00000000000E+00 0.  1.
         11    1    3    3    0    0 -0.32770608464E+01  0.17018970316E+02  0.33786984349E+02  0.37972948135E+02  0.51100000000E-03 0. -1.
        -11    1    3    3    0    0  0.40608658495E-01  0.61243774776E+01 -0.37866232243E+01  0.72005669399E+01  0.51100000000E-03 0.  1.
        -12    1    3    3    0    0 -0.98810965837E+01 -0.89777568278E+01 -0.46234849370E+01  0.14128439416E+02  0.00000000000E+00 0.  1.
</event>
<event>
 7    1  0.1335379E-011  0.5930187E+02  0.7816164E-02  0.1266605E+00
        -11   -1    0    0    0    0  0.00000000000E+00  0.00000000000E+00  0.45593999997E+02  0.45594000000E+02  0.51100000000E-03 0.  1.
         11   -1    0    0    0    0 -0.00000000000E+00 -0.00000000000E+00 -0.45593999997E+02  0.45594000000E+02  0.51100000000E-03 0. -1.
    9900012    2    1    2    0    0  0.11056007612E+02  0.24972139120E+02 -0.16458508702E+02  0.59301865940E+02  0.49999857587E+02 0.  0.
        -12    1    1    2    0    0 -0.11056007612E+02 -0.24972139120E+02  0.16458508702E+02  0.31886134060E+02  0.00000000000E+00 0.  1.
         11    1    3    3    0    0  0.10414166853E+01  0.20706102229E+01 -0.14185095800E+02  0.14373201401E+02  0.51100000000E-03 0. -1.
        -11    1    3    3    0    0  0.17295157455E+02  0.19506081512E+02 -0.14852328908E+02  0.30003355839E+02  0.51100000000E-03 0.  1.
        -12    1    3    3    0    0 -0.72805665287E+01  0.33954473851E+01  0.12578916005E+02  0.14925308700E+02  0.00000000000E+00 0.  1.
</event>
<event>
 7    1  0.1335379E-011  0.5930195E+02  0.7816164E-02  0.1266605E+00
        -11   -1    0    0    0    0  0.00000000000E+00  0.00000000000E+00  0.45593999997E+02  0.45594000000E+02  0.51100000000E-03 0. -1.
         11   -1    0    0    0    0 -0.00000000000E+00 -0.00000000000E+00 -0.45593999997E+02  0.45594000000E+02  0.51100000000E-03 0.  1.
    9900012    2    1    2    0    0  0.29926264306E+02 -0.80920730557E+01 -0.74603989629E+01  0.59301945143E+02  0.50000002034E+02 0.  0.
        -12    1    1    2    0    0 -0.29926264306E+02  0.80920730557E+01  0.74603989629E+01  0.31886054857E+02  0.00000000000E+00 0.  1.
         11    1    3    3    0    0  0.60896959048E+01  0.40614716875E+01  0.70563658974E+01  0.10167214388E+02  0.51100000000E-03 0. -1.
        -11    1    3    3    0    0 -0.65772767431E+01 -0.14849438391E+02 -0.30822762130E+01  0.16530783913E+02  0.51100000000E-03 0.  1.
        -12    1    3    3    0    0  0.30413845144E+02  0.26958936475E+01 -0.11434488647E+02  0.32603946841E+02  0.00000000000E+00 0.  1.
</event>
<event>
 7    1  0.1453025E-011  0.5930194E+02  0.7816164E-02  0.1266605E+00
        -11   -1    0    0    0    0  0.00000000000E+00  0.00000000000E+00  0.45593999997E+02  0.45594000000E+02  0.51100000000E-03 0. -1.
         11   -1    0    0    0    0 -0.00000000000E+00 -0.00000000000E+00 -0.45593999997E+02  0.45594000000E+02  0.51100000000E-03 0.  1.
    9900012    2    1    2    0    0  0.29223302547E+02  0.91852712716E+01  0.88515782915E+01  0.59301936299E+02  0.49999985904E+02 0.  0.
        -12    1    1    2    0    0 -0.29223302547E+02 -0.91852712716E+01 -0.88515782915E+01  0.31886063701E+02  0.00000000000E+00 0.  1.
         11    1    3    3    0    0  0.27996509556E+01  0.31469318899E+01  0.10678358492E+02  0.11479049008E+02  0.51100000000E-03 0. -1.
        -11    1    3    3    0    0 -0.58174125577E+01 -0.91451890838E+01 -0.52088494086E+01  0.12025343432E+02  0.51100000000E-03 0.  1.
         12    1    3    3    0    0  0.32241064150E+02  0.15183528466E+02  0.33820692085E+01  0.35797543858E+02  0.00000000000E+00 0. -1.
</event>
<event>
 7    1  0.1335379E-011  0.5930192E+02  0.7816164E-02  0.1266605E+00
        -11   -1    0    0    0    0  0.00000000000E+00  0.00000000000E+00  0.45593999997E+02  0.45594000000E+02  0.51100000000E-03 0.  1.
         11   -1    0    0    0    0 -0.00000000000E+00 -0.00000000000E+00 -0.45593999997E+02  0.45594000000E+02  0.51100000000E-03 0. -1.
    9900012    2    1    2    0    0  0.18997036313E+02 -0.18325498615E+02  0.17888841365E+02  0.59301922575E+02  0.49999960876E+02 0.  0.
        -12    1    1    2    0    0 -0.18997036313E+02  0.18325498615E+02 -0.17888841365E+02  0.31886077425E+02  0.00000000000E+00 0.  1.
         11    1    3    3    0    0 -0.68248589356E+01  0.10694626415E+00  0.30289468589E+01  0.74675736575E+01  0.51100000000E-03 0.  1.
        -11    1    3    3    0    0 -0.86171053062E+01  0.17838598160E+01  0.67364174547E+01  0.11082237143E+02  0.51100000000E-03 0. -1.
         12    1    3    3    0    0  0.34439000555E+02 -0.20216304695E+02  0.81234770509E+01  0.40752111775E+02  0.00000000000E+00 0. -1.
</event>
<event>
 7    1  0.1335379E-011  0.5930196E+02  0.7816164E-02  0.1266605E+00
        -11   -1    0    0    0    0  0.00000000000E+00  0.00000000000E+00  0.45593999997E+02  0.45594000000E+02  0.51100000000E-03 0. -1.
         11   -1    0    0    0    0 -0.00000000000E+00 -0.00000000000E+00 -0.45593999997E+02  0.45594000000E+02  0.51100000000E-03 0.  1.
    9900012    2    1    2    0    0 -0.29392810117E+02 -0.22395611339E+01 -0.12155941488E+02  0.59301955496E+02  0.50000020916E+02 0.  0.
        -12    1    1    2    0    0  0.29392810117E+02  0.22395611339E+01  0.12155941488E+02  0.31886044504E+02  0.00000000000E+00 0.  1.
         11    1    3    3    0    0 -0.12849400241E+02 -0.63499873078E+01 -0.89734348558E+01  0.16910114096E+02  0.51100000000E-03 0. -1.
        -11    1    3    3    0    0  0.86541808811E+01 -0.10122650751E+02 -0.15257522405E+01  0.13404880645E+02  0.51100000000E-03 0.  1.
         12    1    3    3    0    0 -0.25197590757E+02  0.14233076925E+02 -0.16567543914E+01  0.28986960755E+02  0.00000000000E+00 0. -1.
</event>
<event>
 7    1  0.1335379E-011  0.5930194E+02  0.7816164E-02  0.1266605E+00
        -11   -1    0    0    0    0  0.00000000000E+00  0.00000000000E+00  0.45593999997E+02  0.45594000000E+02  0.51100000000E-03 0.  1.
         11   -1    0    0    0    0 -0.00000000000E+00 -0.00000000000E+00 -0.45593999997E+02  0.45594000000E+02  0.51100000000E-03 0. -1.
    9900012    2    1    2    0    0 -0.21070512120E+02  0.66304850465E+01 -0.22995454846E+02  0.59301941032E+02  0.49999994536E+02 0.  0.
        -12    1    1    2    0    0  0.21070512120E+02 -0.66304850465E+01  0.22995454846E+02  0.31886058968E+02  0.00000000000E+00 0.  1.
         11    1    3    3    0    0 -0.98868001745E+01  0.77257473307E+01 -0.14031651778E+02  0.18823475805E+02  0.51100000000E-03 0. -1.
        -11    1    3    3    0    0  0.44953150014E+01  0.12136098189E+02  0.67870863174E+01  0.14613599048E+02  0.51100000000E-03 0.  1.
        -12    1    3    3    0    0 -0.15679026947E+02 -0.13231360473E+02 -0.15750889385E+02  0.25864866178E+02  0.00000000000E+00 0.  1.
</event>
<event>
 7    1  0.1335379E-011  0.5930196E+02  0.7816164E-02  0.1266605E+00
        -11   -1    0    0    0    0  0.00000000000E+00  0.00000000000E+00  0.45593999997E+02  0.45594000000E+02  0.51100000000E-03 0.  1.
         11   -1    0    0    0    0 -0.00000000000E+00 -0.00000000000E+00 -0.45593999997E+02  0.45594000000E+02  0.51100000000E-03 0. -1.
    9900012    2    1    2    0    0 -0.11615545369E+02  0.21817995594E+02 -0.20143824200E+02  0.59301961059E+02  0.50000031061E+02 0.  0.
        -12    1    1    2    0    0  0.11615545369E+02 -0.21817995594E+02  0.20143824200E+02  0.31886038941E+02  0.00000000000E+00 0.  1.
         11    1    3    3    0    0  0.56146342711E+01  0.20739211462E+02  0.11377025812E+01  0.21515886630E+02  0.51100000000E-03 0. -1.
        -11    1    3    3    0    0 -0.15062868287E+02  0.66807406388E+01 -0.86093972130E+00  0.16500409509E+02  0.51100000000E-03 0.  1.
         12    1    3    3    0    0 -0.21673113531E+01 -0.56019565071E+01 -0.20420587060E+02  0.21285664920E+02  0.00000000000E+00 0. -1.
</event>
<event>
 7    1  0.1335379E-011  0.5930185E+02  0.7816164E-02  0.1266605E+00
        -11   -1    0    0    0    0  0.00000000000E+00  0.00000000000E+00  0.45593999997E+02  0.45594000000E+02  0.51100000000E-03 0.  1.
         11   -1    0    0    0    0 -0.00000000000E+00 -0.00000000000E+00 -0.45593999997E+02  0.45594000000E+02  0.51100000000E-03 0. -1.
    9900012    2    1    2    0    0 -0.25995520655E+02 -0.17646840399E+02  0.54358362337E+01  0.59301852761E+02  0.49999833551E+02 0.  0.
        -12    1    1    2    0    0  0.25995520655E+02  0.17646840399E+02 -0.54358362337E+01  0.31886147239E+02  0.00000000000E+00 0.  1.
         11    1    3    3    0    0 -0.20783418621E+02  0.68992694790E+00 -0.67617628863E+01  0.21866593844E+02  0.51100000000E-03 0. -1.
        -11    1    3    3    0    0 -0.11417361947E+02  0.26744981232E+01 -0.11474056886E+01  0.11782429042E+02  0.51100000000E-03 0.  1.
         12    1    3    3    0    0  0.62052599128E+01 -0.21011265470E+02  0.13345004809E+02  0.25652829875E+02  0.00000000000E+00 0. -1.
</event>
<event>
 7    1  0.1335379E-011  0.5930197E+02  0.7816164E-02  0.1266605E+00
        -11   -1    0    0    0    0  0.00000000000E+00  0.00000000000E+00  0.45593999997E+02  0.45594000000E+02  0.51100000000E-03 0. -1.
         11   -1    0    0    0    0 -0.00000000000E+00 -0.00000000000E+00 -0.45593999997E+02  0.45594000000E+02  0.51100000000E-03 0.  1.
    9900012    2    1    2    0    0  0.30545815406E+02  0.90674763693E+01 -0.12054978829E+01  0.59301965570E+02  0.50000039288E+02 0.  0.
        -12    1    1    2    0    0 -0.30545815406E+02 -0.90674763693E+01  0.12054978829E+01  0.31886034430E+02  0.00000000000E+00 0.  1.
         11    1    3    3    0    0  0.26004803347E+02  0.20386133973E+01  0.20315637545E+01  0.26163581430E+02  0.51100000000E-03 0. -1.
        -11    1    3    3    0    0  0.17341789904E+02  0.22243977536E+01  0.36013443015E+01  0.17850918841E+02  0.51100000000E-03 0.  1.
        -12    1    3    3    0    0 -0.12800777845E+02  0.48044652183E+01 -0.68384059389E+01  0.15287465299E+02  0.00000000000E+00 0.  1.
</event>
<event>
 7    1  0.1335379E-011  0.5930197E+02  0.7816164E-02  0.1266605E+00
        -11   -1    0    0    0    0  0.00000000000E+00  0.00000000000E+00  0.45593999997E+02  0.45594000000E+02  0.51100000000E-03 0.  1.
         11   -1    0    0    0    0 -0.00000000000E+00 -0.00000000000E+00 -0.45593999997E+02  0.45594000000E+02  0.51100000000E-03 0. -1.
    9900012    2    1    2    0    0  0.94784635755E+01 -0.30442273259E+02 -0.38156025335E+00  0.59301970753E+02  0.50000048741E+02 0.  0.
        -12    1    1    2    0    0 -0.94784635755E+01  0.30442273259E+02  0.38156025335E+00  0.31886029247E+02  0.00000000000E+00 0.  1.
         11    1    3    3    0    0  0.72841879410E+01 -0.13898999690E+02 -0.10749065497E+02  0.19020620275E+02  0.51100000000E-03 0. -1.
        -11    1    3    3    0    0  0.17639115399E+02 -0.13597215707E+02  0.10347671089E+02  0.24558032581E+02  0.51100000000E-03 0.  1.
        -12    1    3    3    0    0 -0.15444839765E+02 -0.29460578618E+01  0.19834154586E-01  0.15723317896E+02  0.00000000000E+00 0.  1.
</event>
<event>
 7    1  0.1335379E-011  0.5930197E+02  0.7816164E-02  0.1266605E+00
        -11   -1    0    0    0    0  0.00000000000E+00  0.00000000000E+00  0.45593999997E+02  0.45594000000E+02  0.51100000000E-03 0.  1.
         11   -1    0    0    0    0 -0.00000000000E+00 -0.00000000000E+00 -0.45593999997E+02  0.45594000000E+02  0.51100000000E-03 0. -1.
    9900012    2    1    2    0    0 -0.29203795091E+02 -0.11173573024E+02 -0.62457056967E+01  0.59301965102E+02  0.50000038434E+02 0.  0.
        -12    1    1    2    0    0  0.29203795091E+02  0.11173573024E+02  0.62457056967E+01  0.31886034898E+02  0.00000000000E+00 0.  1.
         11    1    3    3    0    0 -0.28826908390E+02 -0.38322663871E+01  0.45793580751E+01  0.29438876229E+02  0.51100000000E-03 0. -1.
        -11    1    3    3    0    0 -0.28867899527E+01 -0.46173053435E+01  0.85501655402E+01  0.10136981597E+02  0.51100000000E-03 0.  1.
        -12    1    3    3    0    0  0.25099032514E+01 -0.27240012937E+01 -0.19375229312E+02  0.19726107276E+02  0.00000000000E+00 0.  1.
</event>
<event>
 7    1  0.1335379E-011  0.5930193E+02  0.7816164E-02  0.1266605E+00
        -11   -1    0    0    0    0  0.00000000000E+00  0.00000000000E+00  0.45593999997E+02  0.45594000000E+02  0.51100000000E-03 0.  1.
         11   -1    0    0    0    0 -0.00000000000E+00 -0.00000000000E+00 -0.45593999997E+02  0.45594000000E+02  0.51100000000E-03 0. -1.
    9900012    2    1    2    0    0  0.21620380859E+02 -0.12413810120E+02 -0.19879089460E+02  0.59301925485E+02  0.49999966182E+02 0.  0.
        -12    1    1    2    0    0 -0.21620380859E+02  0.12413810120E+02  0.19879089460E+02  0.31886074515E+02  0.00000000000E+00 0.  1.
         11    1    3    3    0    0  0.17294818420E+02  0.13604676199E+01 -0.81798256675E+01  0.19179967793E+02  0.51100000000E-03 0. -1.
        -11    1    3    3    0    0  0.47747207944E+01  0.36793656096E+01  0.10362016192E+02  0.11987788361E+02  0.51100000000E-03 0.  1.
        -12    1    3    3    0    0 -0.44915835490E+00 -0.17453643349E+02 -0.22061279985E+02  0.28134169332E+02  0.00000000000E+00 0.  1.
</event>
<event>
 7    1  0.1335379E-011  0.5930186E+02  0.7816164E-02  0.1266605E+00
        -11   -1    0    0    0    0  0.00000000000E+00  0.00000000000E+00  0.45593999997E+02  0.45594000000E+02  0.51100000000E-03 0.  1.
         11   -1    0    0    0    0 -0.00000000000E+00 -0.00000000000E+00 -0.45593999997E+02  0.45594000000E+02  0.51100000000E-03 0. -1.
    9900012    2    1    2    0    0  0.17818655910E+02 -0.91917731528E+01 -0.24793808820E+02  0.59301856490E+02  0.49999840352E+02 0.  0.
        -12    1    1    2    0    0 -0.17818655910E+02  0.91917731528E+01  0.24793808820E+02  0.31886143510E+02  0.00000000000E+00 0.  1.
         11    1    3    3    0    0  0.14958095438E+02  0.66860665018E+01 -0.19348605789E+02  0.25353829112E+02  0.51100000000E-03 0. -1.
        -11    1    3    3    0    0 -0.10515097250E+02  0.97041260523E+00  0.27758562937E+01  0.10918532375E+02  0.51100000000E-03 0.  1.
        -12    1    3    3    0    0  0.13375657722E+02 -0.16848252260E+02 -0.82210593243E+01  0.23029495003E+02  0.00000000000E+00 0.  1.
</event>
<event>
 7    1  0.1335379E-011  0.5930197E+02  0.7816164E-02  0.1266605E+00
        -11   -1    0    0    0    0  0.00000000000E+00  0.00000000000E+00  0.45593999997E+02  0.45594000000E+02  0.51100000000E-03 0.  1.
         11   -1    0    0    0    0 -0.00000000000E+00 -0.00000000000E+00 -0.45593999997E+02  0.45594000000E+02  0.51100000000E-03 0. -1.
    9900012    2    1    2    0    0  0.31352486968E+02  0.46966189442E+01  0.34179539681E+01  0.59301967354E+02  0.50000042541E+02 0.  0.
        -12    1    1    2    0    0 -0.31352486968E+02 -0.46966189442E+01 -0.34179539681E+01  0.31886032646E+02  0.00000000000E+00 0.  1.
         11    1    3    3    0    0  0.30323702967E+01 -0.13702719310E+02  0.33564636930E+01  0.14430025464E+02  0.51100000000E-03 0. -1.
        -11    1    3    3    0    0 -0.40816719117E+01  0.66076534466E+01  0.60881985527E+01  0.98684999642E+01  0.51100000000E-03 0.  1.
         12    1    3    3    0    0  0.32401788583E+02  0.11791684808E+02 -0.60267082776E+01  0.35003441926E+02  0.00000000000E+00 0. -1.
</event>
<event>
 7    1  0.1335379E-011  0.5930194E+02  0.7816164E-02  0.1266605E+00
        -11   -1    0    0    0    0  0.00000000000E+00  0.00000000000E+00  0.45593999997E+02  0.45594000000E+02  0.51100000000E-03 0. -1.
         11   -1    0    0    0    0 -0.00000000000E+00 -0.00000000000E+00 -0.45593999997E+02  0.45594000000E+02  0.51100000000E-03 0.  1.
    9900012    2    1    2    0    0 -0.15278719260E+02  0.14318018018E+02  0.24047372713E+02  0.59301936640E+02  0.49999986527E+02 0.  0.
        -12    1    1    2    0    0  0.15278719260E+02 -0.14318018018E+02 -0.24047372713E+02  0.31886063360E+02  0.00000000000E+00 0.  1.
         11    1    3    3    0    0 -0.60945677876E+01  0.27311064812E+02  0.10456938206E+02  0.29872823344E+02  0.51100000000E-03 0. -1.
        -11    1    3    3    0    0 -0.13891878529E+02 -0.18638742948E+01  0.75145803129E+01  0.15903686177E+02  0.51100000000E-03 0.  1.
        -12    1    3    3    0    0  0.47077270566E+01 -0.11129172499E+02  0.60758541947E+01  0.13525427119E+02  0.00000000000E+00 0.  1.
</event>
<event>
 7    1  0.1335379E-011  0.5930201E+02  0.7816164E-02  0.1266605E+00
        -11   -1    0    0    0    0  0.00000000000E+00  0.00000000000E+00  0.45593999997E+02  0.45594000000E+02  0.51100000000E-03 0.  1.
         11   -1    0    0    0    0 -0.00000000000E+00 -0.00000000000E+00 -0.45593999997E+02  0.45594000000E+02  0.51100000000E-03 0. -1.
    9900012    2    1    2    0    0 -0.54217065828E+01 -0.27011640399E+02 -0.16052805503E+02  0.59302012736E+02  0.50000125307E+02 0.  0.
        -12    1    1    2    0    0  0.54217065828E+01  0.27011640399E+02  0.16052805503E+02  0.31885987264E+02  0.00000000000E+00 0.  1.
         11    1    3    3    0    0 -0.97005713177E+01 -0.95093118681E+00  0.37147259238E+01  0.10430941614E+02  0.51100000000E-03 0. -1.
        -11    1    3    3    0    0 -0.72024702901E+01 -0.23523719580E+02  0.14166856560E+01  0.24642401662E+02  0.51100000000E-03 0.  1.
         12    1    3    3    0    0  0.11481335025E+02 -0.25369896319E+01 -0.21184217083E+02  0.24228669459E+02  0.00000000000E+00 0. -1.
</event>
<event>
 7    1  0.1335379E-011  0.5930192E+02  0.7816164E-02  0.1266605E+00
        -11   -1    0    0    0    0  0.00000000000E+00  0.00000000000E+00  0.45593999997E+02  0.45594000000E+02  0.51100000000E-03 0. -1.
         11   -1    0    0    0    0 -0.00000000000E+00 -0.00000000000E+00 -0.45593999997E+02  0.45594000000E+02  0.51100000000E-03 0.  1.
    9900012    2    1    2    0    0  0.19001712277E+02 -0.23702049390E+02  0.96886320697E+01  0.59301924573E+02  0.49999964519E+02 0.  0.
        -12    1    1    2    0    0 -0.19001712277E+02  0.23702049390E+02 -0.96886320697E+01  0.31886075427E+02  0.00000000000E+00 0.  1.
         11    1    3    3    0    0  0.14799312228E+02  0.52318748915E+01  0.30644048090E+01  0.15993209008E+02  0.51100000000E-03 0. -1.
        -11    1    3    3    0    0  0.65869619366E+01  0.35722935314E+01  0.76372828745E+01  0.10699413002E+02  0.51100000000E-03 0.  1.
         12    1    3    3    0    0 -0.23845618875E+01 -0.32506217813E+02 -0.10130556138E+01  0.32609302562E+02  0.00000000000E+00 0. -1.
</event>
<event>
 7    1  0.1335379E-011  0.5930193E+02  0.7816164E-02  0.1266605E+00
        -11   -1    0    0    0    0  0.00000000000E+00  0.00000000000E+00  0.45593999997E+02  0.45594000000E+02  0.51100000000E-03 0.  1.
         11   -1    0    0    0    0 -0.00000000000E+00 -0.00000000000E+00 -0.45593999997E+02  0.45594000000E+02  0.51100000000E-03 0. -1.
    9900012    2    1    2    0    0 -0.25299034266E+02 -0.80200580477E+01 -0.17673685544E+02  0.59301927388E+02  0.49999969654E+02 0.  0.
        -12    1    1    2    0    0  0.25299034266E+02  0.80200580477E+01  0.17673685544E+02  0.31886072612E+02  0.00000000000E+00 0.  1.
         11    1    3    3    0    0  0.74513116001E+01  0.35179950033E+01 -0.56042385402E+01  0.99652307189E+01  0.51100000000E-03 0. -1.
        -11    1    3    3    0    0 -0.11219634786E+02 -0.65772526175E+01  0.11261787544E+02  0.17203729702E+02  0.51100000000E-03 0.  1.
         12    1    3    3    0    0 -0.21530711081E+02 -0.49608004335E+01 -0.23331234548E+02  0.32132966967E+02  0.00000000000E+00 0. -1.
</event>
<event>
 7    1  0.1335379E-011  0.5930201E+02  0.7816164E-02  0.1266605E+00
        -11   -1    0    0    0    0  0.00000000000E+00  0.00000000000E+00  0.45593999997E+02  0.45594000000E+02  0.51100000000E-03 0.  1.
         11   -1    0    0    0    0 -0.00000000000E+00 -0.00000000000E+00 -0.45593999997E+02  0.45594000000E+02  0.51100000000E-03 0. -1.
    9900012    2    1    2    0    0 -0.30879259556E+02 -0.40633136919E+01 -0.68320899715E+01  0.59302005547E+02  0.50000112196E+02 0.  0.
        -12    1    1    2    0    0  0.30879259556E+02  0.40633136919E+01  0.68320899715E+01  0.31885994453E+02  0.00000000000E+00 0.  1.
         11    1    3    3    0    0 -0.11380658784E+01 -0.95273876546E+01 -0.85364382820E+01  0.12842783509E+02  0.51100000000E-03 0.  1.
        -11    1    3    3    0    0  0.16084417057E+01  0.95995858392E+01  0.98060935906E+01  0.13816606124E+02  0.51100000000E-03 0. -1.
         12    1    3    3    0    0 -0.31349635383E+02 -0.41355118765E+01 -0.81017452802E+01  0.32642615914E+02  0.00000000000E+00 0. -1.
</event>
<event>
 7    1  0.1335379E-011  0.5930193E+02  0.7816164E-02  0.1266605E+00
        -11   -1    0    0    0    0  0.00000000000E+00  0.00000000000E+00  0.45593999997E+02  0.45594000000E+02  0.51100000000E-03 0.  1.
         11   -1    0    0    0    0 -0.00000000000E+00 -0.00000000000E+00 -0.45593999997E+02  0.45594000000E+02  0.51100000000E-03 0. -1.
    9900012    2    1    2    0    0 -0.11847896727E+02  0.28415737728E+02 -0.83002692833E+01  0.59301932860E+02  0.49999979632E+02 0.  0.
        -12    1    1    2    0    0  0.11847896727E+02 -0.28415737728E+02  0.83002692833E+01  0.31886067140E+02  0.00000000000E+00 0.  1.
         11    1    3    3    0    0  0.11259755125E+01  0.13725780229E+01  0.95666618880E+01  0.97299954380E+01  0.51100000000E-03 0. -1.
        -11    1    3    3    0    0  0.16017943447E+01  0.21274398170E+02  0.49383250680E+01  0.21898694421E+02  0.51100000000E-03 0.  1.
         12    1    3    3    0    0 -0.14575666584E+02  0.57687615360E+01 -0.22805256239E+02  0.27673243001E+02  0.00000000000E+00 0. -1.
</event>
<event>
 7    1  0.1335379E-011  0.5930193E+02  0.7816164E-02  0.1266605E+00
        -11   -1    0    0    0    0  0.00000000000E+00  0.00000000000E+00  0.45593999997E+02  0.45594000000E+02  0.51100000000E-03 0.  1.
         11   -1    0    0    0    0 -0.00000000000E+00 -0.00000000000E+00 -0.45593999997E+02  0.45594000000E+02  0.51100000000E-03 0. -1.
    9900012    2    1    2    0    0  0.25468846235E+02 -0.18792449715E+02 -0.38604550024E+01  0.59301930822E+02  0.49999975915E+02 0.  0.
        -12    1    1    2    0    0 -0.25468846235E+02  0.18792449715E+02  0.38604550024E+01  0.31886069178E+02  0.00000000000E+00 0.  1.
         11    1    3    3    0    0  0.20683599843E+02 -0.62807330582E+01 -0.17193092632E+02  0.27619944691E+02  0.51100000000E-03 0. -1.
        -11    1    3    3    0    0  0.11725394695E+02  0.12165871667E+01  0.75642380973E+00  0.11812584066E+02  0.51100000000E-03 0.  1.
        -12    1    3    3    0    0 -0.69401483028E+01 -0.13728303823E+02  0.12576213820E+02  0.19869402064E+02  0.00000000000E+00 0.  1.
</event>
<event>
 7    1  0.1335379E-011  0.5930204E+02  0.7816164E-02  0.1266604E+00
        -11   -1    0    0    0    0  0.00000000000E+00  0.00000000000E+00  0.45593999997E+02  0.45594000000E+02  0.51100000000E-03 0.  1.
         11   -1    0    0    0    0 -0.00000000000E+00 -0.00000000000E+00 -0.45593999997E+02  0.45594000000E+02  0.51100000000E-03 0. -1.
    9900012    2    1    2    0    0 -0.43991199965E+01 -0.30688253043E+02  0.74560882910E+01  0.59302040956E+02  0.50000176773E+02 0.  0.
        -12    1    1    2    0    0  0.43991199965E+01  0.30688253043E+02 -0.74560882910E+01  0.31885959044E+02  0.00000000000E+00 0.  1.
         11    1    3    3    0    0 -0.82134944025E+01 -0.26419537404E+01 -0.23429741759E+01  0.89404103997E+01  0.51100000000E-03 0. -1.
        -11    1    3    3    0    0 -0.73325914935E+01 -0.23655438307E+02  0.22098397004E+02  0.33191652714E+02  0.51100000000E-03 0.  1.
         12    1    3    3    0    0  0.11146965899E+02 -0.43908609956E+01 -0.12299334537E+02  0.17169977842E+02  0.00000000000E+00 0. -1.
</event>
<event>
 7    1  0.1335379E-011  0.5930194E+02  0.7816164E-02  0.1266605E+00
        -11   -1    0    0    0    0  0.00000000000E+00  0.00000000000E+00  0.45593999997E+02  0.45594000000E+02  0.51100000000E-03 0.  1.
         11   -1    0    0    0    0 -0.00000000000E+00 -0.00000000000E+00 -0.45593999997E+02  0.45594000000E+02  0.51100000000E-03 0. -1.
    9900012    2    1    2    0    0  0.27222457274E+02 -0.37147837089E+01 -0.16182067410E+02  0.59301935588E+02  0.49999984607E+02 0.  0.
        -12    1    1    2    0    0 -0.27222457274E+02  0.37147837089E+01  0.16182067410E+02  0.31886064412E+02  0.00000000000E+00 0.  1.
         11    1    3    3    0    0  0.22262899590E+02 -0.10135525520E+02  0.50303245088E+01  0.24973380641E+02  0.51100000000E-03 0. -1.
        -11    1    3    3    0    0 -0.30502309949E+01 -0.83547960676E+01 -0.12656642133E+02  0.15469231293E+02  0.51100000000E-03 0.  1.
        -12    1    3    3    0    0  0.80097886794E+01  0.14775537878E+02 -0.85557497858E+01  0.18859323654E+02  0.00000000000E+00 0.  1.
</event>
<event>
 7    1  0.1335379E-011  0.5930195E+02  0.7816164E-02  0.1266605E+00
        -11   -1    0    0    0    0  0.00000000000E+00  0.00000000000E+00  0.45593999997E+02  0.45594000000E+02  0.51100000000E-03 0.  1.
         11   -1    0    0    0    0 -0.00000000000E+00 -0.00000000000E+00 -0.45593999997E+02  0.45594000000E+02  0.51100000000E-03 0. -1.
    9900012    2    1    2    0    0  0.15872930241E+02 -0.26757574961E+02  0.69858825319E+01  0.59301948394E+02  0.50000007963E+02 0.  0.
        -12    1    1    2    0    0 -0.15872930241E+02  0.26757574961E+02 -0.69858825319E+01  0.31886051606E+02  0.00000000000E+00 0.  1.
         11    1    3    3    0    0 -0.14300479471E+01 -0.28993009360E+02  0.10557644784E+01  0.29047448558E+02  0.51100000000E-03 0. -1.
        -11    1    3    3    0    0  0.42798434565E+01 -0.74628564697E+01  0.10318484019E+02  0.13434373800E+02  0.51100000000E-03 0.  1.
         12    1    3    3    0    0  0.13023134732E+02  0.96982908680E+01 -0.43883659650E+01  0.16820126036E+02  0.00000000000E+00 0. -1.
</event>
<event>
 7    1  0.1335379E-011  0.5930192E+02  0.7816164E-02  0.1266605E+00
        -11   -1    0    0    0    0  0.00000000000E+00  0.00000000000E+00  0.45593999997E+02  0.45594000000E+02  0.51100000000E-03 0. -1.
         11   -1    0    0    0    0 -0.00000000000E+00 -0.00000000000E+00 -0.45593999997E+02  0.45594000000E+02  0.51100000000E-03 0.  1.
    9900012    2    1    2    0    0 -0.47789170545E+01 -0.64685640795E+01  0.30855177174E+02  0.59301916391E+02  0.49999949598E+02 0.  0.
        -12    1    1    2    0    0  0.47789170545E+01  0.64685640795E+01 -0.30855177174E+02  0.31886083609E+02  0.00000000000E+00 0.  1.
         11    1    3    3    0    0  0.15569948848E+02 -0.69079918230E+01 -0.12439334832E+01  0.17078964516E+02  0.51100000000E-03 0.  1.
        -11    1    3    3    0    0 -0.10599386132E+01 -0.62164721996E+01  0.12136222775E+02  0.13676838084E+02  0.51100000000E-03 0. -1.
        -12    1    3    3    0    0 -0.19288927289E+02  0.66558999431E+01  0.19962887882E+02  0.28546113792E+02  0.00000000000E+00 0.  1.
</event>
<event>
 7    1  0.1335379E-011  0.5930185E+02  0.7816164E-02  0.1266605E+00
        -11   -1    0    0    0    0  0.00000000000E+00  0.00000000000E+00  0.45593999997E+02  0.45594000000E+02  0.51100000000E-03 0.  1.
         11   -1    0    0    0    0 -0.00000000000E+00 -0.00000000000E+00 -0.45593999997E+02  0.45594000000E+02  0.51100000000E-03 0. -1.
    9900012    2    1    2    0    0  0.16638736449E+01 -0.21157534701E+01 -0.31772342455E+02  0.59301848879E+02  0.49999826471E+02 0.  0.
        -12    1    1    2    0    0 -0.16638736449E+01  0.21157534701E+01  0.31772342455E+02  0.31886151121E+02  0.00000000000E+00 0.  1.
         11    1    3    3    0    0  0.36348682567E+01  0.53911877218E+01 -0.32445407493E+01  0.72666510327E+01  0.51100000000E-03 0. -1.
        -11    1    3    3    0    0 -0.20548045205E+00  0.13877204340E+01  0.11199023193E+02  0.11286545572E+02  0.51100000000E-03 0.  1.
         12    1    3    3    0    0 -0.17655141598E+01 -0.88946616258E+01 -0.39726824898E+02  0.40748652274E+02  0.00000000000E+00 0. -1.
</event>
<event>
 7    1  0.1335379E-011  0.5930194E+02  0.7816164E-02  0.1266605E+00
        -11   -1    0    0    0    0  0.00000000000E+00  0.00000000000E+00  0.45593999997E+02  0.45594000000E+02  0.51100000000E-03 0.  1.
         11   -1    0    0    0    0 -0.00000000000E+00 -0.00000000000E+00 -0.45593999997E+02  0.45594000000E+02  0.51100000000E-03 0. -1.
    9900012    2    1    2    0    0  0.17902553560E+02  0.25883130236E+02 -0.51266883954E+01  0.59301940527E+02  0.49999993616E+02 0.  0.
        -12    1    1    2    0    0 -0.17902553560E+02 -0.25883130236E+02  0.51266883954E+01  0.31886059473E+02  0.00000000000E+00 0.  1.
         11    1    3    3    0    0  0.16342531692E+02 -0.29105156463E+01  0.75756103164E+01  0.18246624766E+02  0.51100000000E-03 0. -1.
        -11    1    3    3    0    0  0.54156684685E+01  0.27519039319E+00  0.49103571276E+01  0.73155178966E+01  0.51100000000E-03 0.  1.
         12    1    3    3    0    0 -0.38556466009E+01  0.28518455489E+02 -0.17612655839E+02  0.33739797864E+02  0.00000000000E+00 0. -1.
</event>
<event>
 7    1  0.1335379E-011  0.5930230E+02  0.7816164E-02  0.1266604E+00
        -11   -1    0    0    0    0  0.00000000000E+00  0.00000000000E+00  0.45593999997E+02  0.45594000000E+02  0.51100000000E-03 0. -1.
         11   -1    0    0    0    0 -0.00000000000E+00 -0.00000000000E+00 -0.45593999997E+02  0.45594000000E+02  0.51100000000E-03 0.  1.
    9900012    2    1    2    0    0 -0.20001646779E+02 -0.18578841721E+02  0.16476001237E+02  0.59302300222E+02  0.50000649609E+02 0.  0.
        -12    1    1    2    0    0  0.20001646779E+02  0.18578841721E+02 -0.16476001237E+02  0.31885699778E+02  0.00000000000E+00 0.  1.
         11    1    3    3    0    0  0.81890422574E+01  0.12284520538E+01  0.38807630387E+01  0.91449346398E+01  0.51100000000E-03 0.  1.
        -11    1    3    3    0    0 -0.30778166304E+02 -0.31967544732E+01  0.12426508871E+02  0.33345657636E+02  0.51100000000E-03 0. -1.
         12    1    3    3    0    0  0.25874772672E+01 -0.16610539301E+02  0.16872932755E+00  0.16811707946E+02  0.00000000000E+00 0. -1.
</event>
<event>
 7    1  0.1335379E-011  0.5930187E+02  0.7816164E-02  0.1266605E+00
        -11   -1    0    0    0    0  0.00000000000E+00  0.00000000000E+00  0.45593999997E+02  0.45594000000E+02  0.51100000000E-03 0.  1.
         11   -1    0    0    0    0 -0.00000000000E+00 -0.00000000000E+00 -0.45593999997E+02  0.45594000000E+02  0.51100000000E-03 0. -1.
    9900012    2    1    2    0    0  0.31704744542E+02  0.10666838504E+01  0.32244246757E+01  0.59301865782E+02  0.49999857297E+02 0.  0.
        -12    1    1    2    0    0 -0.31704744542E+02 -0.10666838504E+01 -0.32244246757E+01  0.31886134218E+02  0.00000000000E+00 0.  1.
         11    1    3    3    0    0  0.45823424957E+01 -0.12806147232E+02  0.14415783477E+00  0.13602060558E+02  0.51100000000E-03 0. -1.
        -11    1    3    3    0    0  0.90306800190E+00 -0.96718341823E+01  0.38579617296E+01  0.10451974801E+02  0.51100000000E-03 0.  1.
         12    1    3    3    0    0  0.26219334044E+02  0.23544665265E+02 -0.77769488868E+00  0.35247830423E+02  0.00000000000E+00 0. -1.
</event>
<event>
 7    1  0.1335379E-011  0.5930195E+02  0.7816164E-02  0.1266605E+00
        -11   -1    0    0    0    0  0.00000000000E+00  0.00000000000E+00  0.45593999997E+02  0.45594000000E+02  0.51100000000E-03 0.  1.
         11   -1    0    0    0    0 -0.00000000000E+00 -0.00000000000E+00 -0.45593999997E+02  0.45594000000E+02  0.51100000000E-03 0. -1.
    9900012    2    1    2    0    0  0.21982211766E+02 -0.83585262737E+01 -0.21532245161E+02  0.59301950115E+02  0.50000011102E+02 0.  0.
        -12    1    1    2    0    0 -0.21982211766E+02  0.83585262737E+01  0.21532245161E+02  0.31886049885E+02  0.00000000000E+00 0.  1.
         11    1    3    3    0    0  0.55193460527E+01  0.47306114711E+00 -0.54880953326E+00  0.55667009857E+01  0.51100000000E-03 0. -1.
        -11    1    3    3    0    0 -0.24678460161E+01  0.17147153683E+02 -0.72218428187E+01  0.18768861376E+02  0.51100000000E-03 0.  1.
         12    1    3    3    0    0  0.18930711729E+02 -0.25978741104E+02 -0.13761592809E+02  0.34966387754E+02  0.00000000000E+00 0. -1.
</event>
<event>
 7    1  0.1335379E-011  0.5930195E+02  0.7816164E-02  0.1266605E+00
        -11   -1    0    0    0    0  0.00000000000E+00  0.00000000000E+00  0.45593999997E+02  0.45594000000E+02  0.51100000000E-03 0. -1.
         11   -1    0    0    0    0 -0.00000000000E+00 -0.00000000000E+00 -0.45593999997E+02  0.45594000000E+02  0.51100000000E-03 0.  1.
    9900012    2    1    2    0    0 -0.30018416013E+00 -0.62715028831E+01  0.31261774626E+02  0.59301946439E+02  0.50000004397E+02 0.  0.
        -12    1    1    2    0    0  0.30018416013E+00  0.62715028831E+01 -0.31261774626E+02  0.31886053561E+02  0.00000000000E+00 0.  1.
         11    1    3    3    0    0  0.13323492975E+02 -0.86406290825E+00  0.33261461371E+01  0.13759553705E+02  0.51100000000E-03 0. -1.
        -11    1    3    3    0    0 -0.14785727598E+02 -0.50360623123E+01 -0.18524788151E+01  0.15729314741E+02  0.51100000000E-03 0.  1.
         12    1    3    3    0    0  0.11620504627E+01 -0.37137766253E+00  0.29788107304E+02  0.29813077993E+02  0.00000000000E+00 0. -1.
</event>
<event>
 7    1  0.1335379E-011  0.5930195E+02  0.7816164E-02  0.1266605E+00
        -11   -1    0    0    0    0  0.00000000000E+00  0.00000000000E+00  0.45593999997E+02  0.45594000000E+02  0.51100000000E-03 0. -1.
         11   -1    0    0    0    0 -0.00000000000E+00 -0.00000000000E+00 -0.45593999997E+02  0.45594000000E+02  0.51100000000E-03 0.  1.
    9900012    2    1    2    0    0 -0.29692456603E+02 -0.99614802244E+01  0.59872583959E+01  0.59301947712E+02  0.50000006720E+02 0.  0.
        -12    1    1    2    0    0  0.29692456603E+02  0.99614802244E+01 -0.59872583959E+01  0.31886052288E+02  0.00000000000E+00 0.  1.
         11    1    3    3    0    0 -0.88140329440E+01  0.11057979862E+01 -0.13439025835E+02  0.16109543184E+02  0.51100000000E-03 0. -1.
        -11    1    3    3    0    0  0.28578914734E+01  0.71787176783E+01  0.43640500347E+00  0.77389909399E+01  0.51100000000E-03 0.  1.
         12    1    3    3    0    0 -0.23736315132E+02 -0.18245995889E+02  0.18989879227E+02  0.35453413589E+02  0.00000000000E+00 0. -1.
</event>
<event>
 7    1  0.1335379E-011  0.5930194E+02  0.7816164E-02  0.1266605E+00
        -11   -1    0    0    0    0  0.00000000000E+00  0.00000000000E+00  0.45593999997E+02  0.45594000000E+02  0.51100000000E-03 0.  1.
         11   -1    0    0    0    0 -0.00000000000E+00 -0.00000000000E+00 -0.45593999997E+02  0.45594000000E+02  0.51100000000E-03 0. -1.
    9900012    2    1    2    0    0  0.58161875667E+01 -0.74534844944E+01 -0.30452227237E+02  0.59301943289E+02  0.49999998652E+02 0.  0.
        -12    1    1    2    0    0 -0.58161875667E+01  0.74534844944E+01  0.30452227237E+02  0.31886056711E+02  0.00000000000E+00 0.  1.
         11    1    3    3    0    0 -0.24227029454E+01  0.14972380910E+01 -0.39641553014E+01  0.48811616422E+01  0.51100000000E-03 0. -1.
        -11    1    3    3    0    0 -0.16877927588E+02  0.64565266336E+01 -0.97783318631E+01  0.20546701685E+02  0.51100000000E-03 0.  1.
         12    1    3    3    0    0  0.25116818100E+02 -0.15407249219E+02 -0.16709740072E+02  0.33874079962E+02  0.00000000000E+00 0. -1.
</event>
<event>
 7    1  0.1335379E-011  0.5930191E+02  0.7816164E-02  0.1266605E+00
        -11   -1    0    0    0    0  0.00000000000E+00  0.00000000000E+00  0.45593999997E+02  0.45594000000E+02  0.51100000000E-03 0.  1.
         11   -1    0    0    0    0 -0.00000000000E+00 -0.00000000000E+00 -0.45593999997E+02  0.45594000000E+02  0.51100000000E-03 0. -1.
    9900012    2    1    2    0    0 -0.20794739613E+02 -0.23300777952E+02  0.64323854346E+01  0.59301905364E+02  0.49999929486E+02 0.  0.
        -12    1    1    2    0    0  0.20794739613E+02  0.23300777952E+02 -0.64323854346E+01  0.31886094636E+02  0.00000000000E+00 0.  1.
         11    1    3    3    0    0 -0.23002730182E+02 -0.51874301473E+01  0.21029966246E+01  0.23673986197E+02  0.51100000000E-03 0. -1.
        -11    1    3    3    0    0 -0.93732471378E+01 -0.42765633906E+01 -0.86077995311E+01  0.13425385260E+02  0.51100000000E-03 0.  1.
        -12    1    3    3    0    0  0.11581237707E+02 -0.13836784414E+02  0.12937188341E+02  0.22202533908E+02  0.00000000000E+00 0.  1.
</event>
<event>
 7    1  0.1335379E-011  0.5930194E+02  0.7816164E-02  0.1266605E+00
        -11   -1    0    0    0    0  0.00000000000E+00  0.00000000000E+00  0.45593999997E+02  0.45594000000E+02  0.51100000000E-03 0. -1.
         11   -1    0    0    0    0 -0.00000000000E+00 -0.00000000000E+00 -0.45593999997E+02  0.45594000000E+02  0.51100000000E-03 0.  1.
    9900012    2    1    2    0    0  0.72578137373E+00  0.14365838415E+02  0.28457281553E+02  0.59301938071E+02  0.49999989136E+02 0.  0.
        -12    1    1    2    0    0 -0.72578137373E+00 -0.14365838415E+02 -0.28457281553E+02  0.31886061929E+02  0.00000000000E+00 0.  1.
         11    1    3    3    0    0 -0.60062947680E+01  0.49763873122E+00  0.50660828044E+00  0.60481297405E+01  0.51100000000E-03 0. -1.
        -11    1    3    3    0    0 -0.10800423221E+02  0.77396482895E+01 -0.59812810761E+01  0.14571445398E+02  0.51100000000E-03 0.  1.
         12    1    3    3    0    0  0.17532499363E+02  0.61285513940E+01  0.33931954349E+02  0.38682362933E+02  0.00000000000E+00 0. -1.
</event>
<event>
 7    1  0.1335379E-011  0.5930200E+02  0.7816164E-02  0.1266605E+00
        -11   -1    0    0    0    0  0.00000000000E+00  0.00000000000E+00  0.45593999997E+02  0.45594000000E+02  0.51100000000E-03 0. -1.
         11   -1    0    0    0    0 -0.00000000000E+00 -0.00000000000E+00 -0.45593999997E+02  0.45594000000E+02  0.51100000000E-03 0.  1.
    9900012    2    1    2    0    0 -0.61497840621E+01 -0.71065921512E+01  0.30469545354E+02  0.59302004797E+02  0.50000110829E+02 0.  0.
        -12    1    1    2    0    0  0.61497840621E+01  0.71065921512E+01 -0.30469545354E+02  0.31885995203E+02  0.00000000000E+00 0.  1.
         11    1    3    3    0    0 -0.86402818416E+00 -0.24437055656E+02  0.10185130844E+02  0.26488735803E+02  0.51100000000E-03 0. -1.
        -11    1    3    3    0    0 -0.38121424402E-01  0.73757775855E+01  0.20259167245E+02  0.21560088264E+02  0.51100000000E-03 0.  1.
        -12    1    3    3    0    0 -0.52476344536E+01  0.99546859197E+01  0.25247264330E-01  0.11253180730E+02  0.00000000000E+00 0.  1.
</event>
<event>
 7    1  0.1335379E-011  0.5930193E+02  0.7816164E-02  0.1266605E+00
        -11   -1    0    0    0    0  0.00000000000E+00  0.00000000000E+00  0.45593999997E+02  0.45594000000E+02  0.51100000000E-03 0. -1.
         11   -1    0    0    0    0 -0.00000000000E+00 -0.00000000000E+00 -0.45593999997E+02  0.45594000000E+02  0.51100000000E-03 0.  1.
    9900012    2    1    2    0    0  0.25703896078E+02  0.12182932153E+02  0.14408578056E+02  0.59301933591E+02  0.49999980966E+02 0.  0.
        -12    1    1    2    0    0 -0.25703896078E+02 -0.12182932153E+02 -0.14408578056E+02  0.31886066409E+02  0.00000000000E+00 0.  1.
         11    1    3    3    0    0 -0.12281854167E+01 -0.81140265906E+01 -0.63034356904E+01  0.10347906489E+02  0.51100000000E-03 0. -1.
        -11    1    3    3    0    0  0.74025920498E+01  0.44847174256E+01 -0.73002310846E+01  0.11322739668E+02  0.51100000000E-03 0.  1.
         12    1    3    3    0    0  0.19529489445E+02  0.15812241318E+02  0.28012244831E+02  0.37631287434E+02  0.00000000000E+00 0. -1.
</event>
<event>
 7    1  0.1335379E-011  0.5930208E+02  0.7816164E-02  0.1266604E+00
        -11   -1    0    0    0    0  0.00000000000E+00  0.00000000000E+00  0.45593999997E+02  0.45594000000E+02  0.51100000000E-03 0. -1.
         11   -1    0    0    0    0 -0.00000000000E+00 -0.00000000000E+00 -0.45593999997E+02  0.45594000000E+02  0.51100000000E-03 0.  1.
    9900012    2    1    2    0    0 -0.25120741969E+02 -0.16080359108E+02  0.11273072282E+02  0.59302081717E+02  0.50000251111E+02 0.  0.
        -12    1    1    2    0    0  0.25120741969E+02  0.16080359108E+02 -0.11273072282E+02  0.31885918283E+02  0.00000000000E+00 0.  1.
         11    1    3    3    0    0  0.69006183322E+01 -0.64576904231E+01 -0.51433554780E+01  0.10759851523E+02  0.51100000000E-03 0. -1.
        -11    1    3    3    0    0 -0.29866758802E+02  0.80770907766E+00  0.11142890193E+01  0.29898450053E+02  0.51100000000E-03 0.  1.
         12    1    3    3    0    0 -0.21546014994E+01 -0.10430377762E+02  0.15302138741E+02  0.18643780141E+02  0.00000000000E+00 0. -1.
</event>
<event>
 7    1  0.1335379E-011  0.5930192E+02  0.7816164E-02  0.1266605E+00
        -11   -1    0    0    0    0  0.00000000000E+00  0.00000000000E+00  0.45593999997E+02  0.45594000000E+02  0.51100000000E-03 0.  1.
         11   -1    0    0    0    0 -0.00000000000E+00 -0.00000000000E+00 -0.45593999997E+02  0.45594000000E+02  0.51100000000E-03 0. -1.
    9900012    2    1    2    0    0  0.32763272919E+01 -0.20706081896E+02 -0.24025941356E+02  0.59301921438E+02  0.49999958802E+02 0.  0.
        -12    1    1    2    0    0 -0.32763272919E+01  0.20706081896E+02  0.24025941356E+02  0.31886078562E+02  0.00000000000E+00 0.  1.
         11    1    3    3    0    0 -0.59251057717E+01 -0.20783961038E+02 -0.24442455317E+02  0.32626883655E+02  0.51100000000E-03 0. -1.
        -11    1    3    3    0    0  0.57761614853E+00  0.50763761995E+01 -0.10631277216E+02  0.11795223238E+02  0.51100000000E-03 0.  1.
        -12    1    3    3    0    0  0.86238169152E+01 -0.49984970575E+01  0.11047791177E+02  0.14879814545E+02  0.00000000000E+00 0.  1.
</event>
<event>
 7    1  0.1335379E-011  0.5930195E+02  0.7816164E-02  0.1266605E+00
        -11   -1    0    0    0    0  0.00000000000E+00  0.00000000000E+00  0.45593999997E+02  0.45594000000E+02  0.51100000000E-03 0.  1.
         11   -1    0    0    0    0 -0.00000000000E+00 -0.00000000000E+00 -0.45593999997E+02  0.45594000000E+02  0.51100000000E-03 0. -1.
    9900012    2    1    2    0    0  0.93625633319E+01  0.27733841903E+01 -0.30354093503E+02  0.59301949063E+02  0.50000009183E+02 0.  0.
        -12    1    1    2    0    0 -0.93625633319E+01 -0.27733841903E+01  0.30354093503E+02  0.31886050937E+02  0.00000000000E+00 0.  1.
         11    1    3    3    0    0  0.10028309123E+01  0.40532625035E+01 -0.12596225582E+01  0.43613364937E+01  0.51100000000E-03 0. -1.
        -11    1    3    3    0    0 -0.19453886151E+01  0.17520390999E+02  0.13779832802E+01  0.17681840284E+02  0.51100000000E-03 0.  1.
         12    1    3    3    0    0  0.10305121035E+02 -0.18800269312E+02 -0.30472454225E+02  0.37258772286E+02  0.00000000000E+00 0. -1.
</event>
<event>
 7    1  0.1335379E-011  0.5930198E+02  0.7816164E-02  0.1266605E+00
        -11   -1    0    0    0    0  0.00000000000E+00  0.00000000000E+00  0.45593999997E+02  0.45594000000E+02  0.51100000000E-03 0.  1.
         11   -1    0    0    0    0 -0.00000000000E+00 -0.00000000000E+00 -0.45593999997E+02  0.45594000000E+02  0.51100000000E-03 0. -1.
    9900012    2    1    2    0    0  0.23952695178E+02 -0.77987711200E+01 -0.19549067939E+02  0.59301976501E+02  0.50000059223E+02 0.  0.
        -12    1    1    2    0    0 -0.23952695178E+02  0.77987711200E+01  0.19549067939E+02  0.31886023499E+02  0.00000000000E+00 0.  1.
         11    1    3    3    0    0  0.39475419852E+01 -0.96048849430E+01 -0.99446801190E+01  0.14378232347E+02  0.51100000000E-03 0. -1.
        -11    1    3    3    0    0  0.50419315554E+01 -0.16774912881E+02 -0.11559761937E+02  0.20986826160E+02  0.51100000000E-03 0.  1.
        -12    1    3    3    0    0  0.14963221638E+02  0.18581026704E+02  0.19553741164E+01  0.23936917994E+02  0.00000000000E+00 0.  1.
</event>
<event>
 7    1  0.1335379E-011  0.5930193E+02  0.7816164E-02  0.1266605E+00
        -11   -1    0    0    0    0  0.00000000000E+00  0.00000000000E+00  0.45593999997E+02  0.45594000000E+02  0.51100000000E-03 0. -1.
         11   -1    0    0    0    0 -0.00000000000E+00 -0.00000000000E+00 -0.45593999997E+02  0.45594000000E+02  0.51100000000E-03 0.  1.
    9900012    2    1    2    0    0 -0.19350807015E+01 -0.31087762246E+02 -0.68211230157E+01  0.59301933795E+02  0.49999981339E+02 0.  0.
        -12    1    1    2    0    0  0.19350807015E+01  0.31087762246E+02  0.68211230157E+01  0.31886066205E+02  0.00000000000E+00 0.  1.
         11    1    3    3    0    0 -0.54890692998E+01 -0.26314879712E+01 -0.18976632294E+01  0.63761851223E+01  0.51100000000E-03 0. -1.
        -11    1    3    3    0    0 -0.12054325297E+02 -0.16361142638E+02 -0.19668668796E+02  0.28281624410E+02  0.51100000000E-03 0.  1.
        -12    1    3    3    0    0  0.15608313895E+02 -0.12095131638E+02  0.14745209010E+02  0.24644124264E+02  0.00000000000E+00 0.  1.
</event>
<event>
 7    1  0.1335379E-011  0.5930194E+02  0.7816164E-02  0.1266605E+00
        -11   -1    0    0    0    0  0.00000000000E+00  0.00000000000E+00  0.45593999997E+02  0.45594000000E+02  0.51100000000E-03 0.  1.
         11   -1    0    0    0    0 -0.00000000000E+00 -0.00000000000E+00 -0.45593999997E+02  0.45594000000E+02  0.51100000000E-03 0. -1.
    9900012    2    1    2    0    0  0.18145619719E+02 -0.61020929100E+01 -0.25499442603E+02  0.59301943080E+02  0.49999998271E+02 0.  0.
        -12    1    1    2    0    0 -0.18145619719E+02  0.61020929100E+01  0.25499442603E+02  0.31886056920E+02  0.00000000000E+00 0.  1.
         11    1    3    3    0    0  0.21543859193E+02 -0.60681132210E+01 -0.17977869460E+02  0.28708250688E+02  0.51100000000E-03 0. -1.
        -11    1    3    3    0    0  0.80747579515E+01 -0.94198119960E+01  0.25583481567E+01  0.12668059029E+02  0.51100000000E-03 0.  1.
        -12    1    3    3    0    0 -0.11472997426E+02  0.93858323070E+01 -0.10079921299E+02  0.17925633362E+02  0.00000000000E+00 0.  1.
</event>
<event>
 7    1  0.1335379E-011  0.5930194E+02  0.7816164E-02  0.1266605E+00
        -11   -1    0    0    0    0  0.00000000000E+00  0.00000000000E+00  0.45593999997E+02  0.45594000000E+02  0.51100000000E-03 0. -1.
         11   -1    0    0    0    0 -0.00000000000E+00 -0.00000000000E+00 -0.45593999997E+02  0.45594000000E+02  0.51100000000E-03 0.  1.
    9900012    2    1    2    0    0  0.28065691472E+02 -0.26934918412E+01  0.14892383488E+02  0.59301936868E+02  0.49999986942E+02 0.  0.
        -12    1    1    2    0    0 -0.28065691472E+02  0.26934918412E+01 -0.14892383488E+02  0.31886063132E+02  0.00000000000E+00 0.  1.
         11    1    3    3    0    0  0.28732247407E+02 -0.15195141160E+02  0.20864107788E+02  0.38623119372E+02  0.51100000000E-03 0. -1.
        -11    1    3    3    0    0 -0.66588413622E+01  0.48572636327E+01  0.15590394074E+01  0.83883122510E+01  0.51100000000E-03 0.  1.
        -12    1    3    3    0    0  0.59922854274E+01  0.76443856860E+01 -0.75307637077E+01  0.12290505245E+02  0.00000000000E+00 0.  1.
</event>
<event>
 7    1  0.1335379E-011  0.5930197E+02  0.7816164E-02  0.1266605E+00
        -11   -1    0    0    0    0  0.00000000000E+00  0.00000000000E+00  0.45593999997E+02  0.45594000000E+02  0.51100000000E-03 0.  1.
         11   -1    0    0    0    0 -0.00000000000E+00 -0.00000000000E+00 -0.45593999997E+02  0.45594000000E+02  0.51100000000E-03 0. -1.
    9900012    2    1    2    0    0 -0.57809948979E+01 -0.24290217460E+02 -0.19831396712E+02  0.59301970743E+02  0.50000048721E+02 0.  0.
        -12    1    1    2    0    0  0.57809948979E+01  0.24290217460E+02  0.19831396712E+02  0.31886029257E+02  0.00000000000E+00 0.  1.
         11    1    3    3    0    0  0.65698131431E+01  0.10552668894E+02 -0.49072886327E+01  0.13364233892E+02  0.51100000000E-03 0. -1.
        -11    1    3    3    0    0  0.42290780458E+01  0.26634066120E+00  0.26397640681E+00  0.42456710034E+01  0.51100000000E-03 0.  1.
         12    1    3    3    0    0 -0.16579886087E+02 -0.35109227015E+02 -0.15188084486E+02  0.41692065847E+02  0.00000000000E+00 0. -1.
</event>
<event>
 7    1  0.1335379E-011  0.5930192E+02  0.7816164E-02  0.1266605E+00
        -11   -1    0    0    0    0  0.00000000000E+00  0.00000000000E+00  0.45593999997E+02  0.45594000000E+02  0.51100000000E-03 0. -1.
         11   -1    0    0    0    0 -0.00000000000E+00 -0.00000000000E+00 -0.45593999997E+02  0.45594000000E+02  0.51100000000E-03 0.  1.
    9900012    2    1    2    0    0  0.25910935910E+02 -0.13562163577E+02  0.12704845509E+02  0.59301921847E+02  0.49999959547E+02 0.  0.
        -12    1    1    2    0    0 -0.25910935910E+02  0.13562163577E+02 -0.12704845509E+02  0.31886078153E+02  0.00000000000E+00 0.  1.
         11    1    3    3    0    0  0.36986094720E+01  0.12077055835E+02  0.94633792641E+00  0.12666118008E+02  0.51100000000E-03 0.  1.
        -11    1    3    3    0    0  0.20676634341E+00 -0.79163082863E+00  0.13380147040E+02  0.13405139566E+02  0.51100000000E-03 0. -1.
        -12    1    3    3    0    0  0.22005560094E+02 -0.24847588583E+02 -0.16216394580E+01  0.33230664273E+02  0.00000000000E+00 0.  1.
</event>
<event>
 7    1  0.1335379E-011  0.5930194E+02  0.7816164E-02  0.1266605E+00
        -11   -1    0    0    0    0  0.00000000000E+00  0.00000000000E+00  0.45593999997E+02  0.45594000000E+02  0.51100000000E-03 0.  1.
         11   -1    0    0    0    0 -0.00000000000E+00 -0.00000000000E+00 -0.45593999997E+02  0.45594000000E+02  0.51100000000E-03 0. -1.
    9900012    2    1    2    0    0  0.24976252959E+02 -0.78962625171E+01 -0.18181212613E+02  0.59301942456E+02  0.49999997134E+02 0.  0.
        -12    1    1    2    0    0 -0.24976252959E+02  0.78962625171E+01  0.18181212613E+02  0.31886057544E+02  0.00000000000E+00 0.  1.
         11    1    3    3    0    0 -0.30925548854E+01  0.12625391870E+01 -0.43001185474E+01  0.54450822492E+01  0.51100000000E-03 0. -1.
        -11    1    3    3    0    0 -0.70704400636E+01 -0.54317396019E+01 -0.16150050709E+02  0.18447738505E+02  0.51100000000E-03 0.  1.
        -12    1    3    3    0    0  0.35139247908E+02 -0.37270621023E+01  0.22689566428E+01  0.35409121702E+02  0.00000000000E+00 0.  1.
</event>
<event>
 7    1  0.1335379E-011  0.5930192E+02  0.7816164E-02  0.1266605E+00
        -11   -1    0    0    0    0  0.00000000000E+00  0.00000000000E+00  0.45593999997E+02  0.45594000000E+02  0.51100000000E-03 0. -1.
         11   -1    0    0    0    0 -0.00000000000E+00 -0.00000000000E+00 -0.45593999997E+02  0.45594000000E+02  0.51100000000E-03 0.  1.
    9900012    2    1    2    0    0 -0.24119915153E+02  0.11673184455E+02  0.17282606895E+02  0.59301920853E+02  0.49999957735E+02 0.  0.
        -12    1    1    2    0    0  0.24119915153E+02 -0.11673184455E+02 -0.17282606895E+02  0.31886079147E+02  0.00000000000E+00 0.  1.
         11    1    3    3    0    0 -0.55880934065E+01  0.16829510714E+02  0.14517676452E+02  0.22917725643E+02  0.51100000000E-03 0. -1.
        -11    1    3    3    0    0  0.53838679865E-01  0.10070063134E+02 -0.48535495862E+01  0.11178819883E+02  0.51100000000E-03 0.  1.
        -12    1    3    3    0    0 -0.18585660426E+02 -0.15226389393E+02  0.76184800292E+01  0.25205375327E+02  0.00000000000E+00 0.  1.
</event>
<event>
 7    1  0.1335379E-011  0.5930189E+02  0.7816164E-02  0.1266605E+00
        -11   -1    0    0    0    0  0.00000000000E+00  0.00000000000E+00  0.45593999997E+02  0.45594000000E+02  0.51100000000E-03 0. -1.
         11   -1    0    0    0    0 -0.00000000000E+00 -0.00000000000E+00 -0.45593999997E+02  0.45594000000E+02  0.51100000000E-03 0.  1.
    9900012    2    1    2    0    0  0.83827027924E+01 -0.78279093717E+01  0.29751944578E+02  0.59301888958E+02  0.49999899565E+02 0.  0.
        -12    1    1    2    0    0 -0.83827027924E+01  0.78279093717E+01 -0.29751944578E+02  0.31886111042E+02  0.00000000000E+00 0.  1.
         11    1    3    3    0    0  0.13777054336E+02 -0.19434604149E+01  0.28388608630E+02  0.31614828242E+02  0.51100000000E-03 0. -1.
        -11    1    3    3    0    0  0.46306673783E+01 -0.13868234133E+02 -0.10008705524E+01  0.14655126764E+02  0.51100000000E-03 0.  1.
        -12    1    3    3    0    0 -0.10025018922E+02  0.79837851764E+01  0.23642065000E+01  0.13031933951E+02  0.00000000000E+00 0.  1.
</event>
<event>
 7    1  0.1335379E-011  0.5930194E+02  0.7816164E-02  0.1266605E+00
        -11   -1    0    0    0    0  0.00000000000E+00  0.00000000000E+00  0.45593999997E+02  0.45594000000E+02  0.51100000000E-03 0.  1.
         11   -1    0    0    0    0 -0.00000000000E+00 -0.00000000000E+00 -0.45593999997E+02  0.45594000000E+02  0.51100000000E-03 0. -1.
    9900012    2    1    2    0    0  0.14796582729E+02 -0.17037354490E+02 -0.22527997322E+02  0.59301937656E+02  0.49999988380E+02 0.  0.
        -12    1    1    2    0    0 -0.14796582729E+02  0.17037354490E+02  0.22527997322E+02  0.31886062344E+02  0.00000000000E+00 0.  1.
         11    1    3    3    0    0 -0.12440304546E+02 -0.20613569026E+02 -0.38177689549E+01  0.24377361737E+02  0.51100000000E-03 0. -1.
        -11    1    3    3    0    0  0.11924152451E+02 -0.86812321473E+00 -0.25542633302E+01  0.12225518844E+02  0.51100000000E-03 0.  1.
        -12    1    3    3    0    0  0.15312734824E+02  0.44443377514E+01 -0.16155965036E+02  0.22699057075E+02  0.00000000000E+00 0.  1.
</event>
<event>
 7    1  0.1335379E-011  0.5930194E+02  0.7816164E-02  0.1266605E+00
        -11   -1    0    0    0    0  0.00000000000E+00  0.00000000000E+00  0.45593999997E+02  0.45594000000E+02  0.51100000000E-03 0.  1.
         11   -1    0    0    0    0 -0.00000000000E+00 -0.00000000000E+00 -0.45593999997E+02  0.45594000000E+02  0.51100000000E-03 0. -1.
    9900012    2    1    2    0    0 -0.99745052729E+01  0.25772338937E+02  0.15906504010E+02  0.59301935966E+02  0.49999985297E+02 0.  0.
        -12    1    1    2    0    0  0.99745052729E+01 -0.25772338937E+02 -0.15906504010E+02  0.31886064034E+02  0.00000000000E+00 0.  1.
         11    1    3    3    0    0 -0.15910104461E+02  0.12376402628E+02 -0.10295804267E+02  0.22634273828E+02  0.51100000000E-03 0. -1.
        -11    1    3    3    0    0 -0.15131045584E+01  0.22989917126E+00 -0.32307217427E+01  0.35748989180E+01  0.51100000000E-03 0.  1.
        -12    1    3    3    0    0  0.74487037461E+01  0.13166037138E+02  0.29433030020E+02  0.33092763220E+02  0.00000000000E+00 0.  1.
</event>
<event>
 7    1  0.1335379E-011  0.5930192E+02  0.7816164E-02  0.1266605E+00
        -11   -1    0    0    0    0  0.00000000000E+00  0.00000000000E+00  0.45593999997E+02  0.45594000000E+02  0.51100000000E-03 0. -1.
         11   -1    0    0    0    0 -0.00000000000E+00 -0.00000000000E+00 -0.45593999997E+02  0.45594000000E+02  0.51100000000E-03 0.  1.
    9900012    2    1    2    0    0 -0.30779651169E+02  0.76992158286E+01 -0.31712708538E+01  0.59301924523E+02  0.49999964429E+02 0.  0.
        -12    1    1    2    0    0  0.30779651169E+02 -0.76992158286E+01  0.31712708538E+01  0.31886075477E+02  0.00000000000E+00 0.  1.
         11    1    3    3    0    0 -0.24195966344E+02  0.16730341148E+02  0.18594016086E+02  0.34800668625E+02  0.51100000000E-03 0. -1.
        -11    1    3    3    0    0 -0.35079875384E+00 -0.44441150987E+00 -0.59785144624E+00  0.82340024817E+00  0.51100000000E-03 0.  1.
         12    1    3    3    0    0 -0.62328860712E+01 -0.85867138099E+01 -0.21167435493E+02  0.23677855650E+02  0.00000000000E+00 0. -1.
</event>
<event>
 7    1  0.1335379E-011  0.5930195E+02  0.7816164E-02  0.1266605E+00
        -11   -1    0    0    0    0  0.00000000000E+00  0.00000000000E+00  0.45593999997E+02  0.45594000000E+02  0.51100000000E-03 0.  1.
         11   -1    0    0    0    0 -0.00000000000E+00 -0.00000000000E+00 -0.45593999997E+02  0.45594000000E+02  0.51100000000E-03 0. -1.
    9900012    2    1    2    0    0  0.28254439511E+02  0.52974115629E+01 -0.13796531533E+02  0.59301949701E+02  0.50000010347E+02 0.  0.
        -12    1    1    2    0    0 -0.28254439511E+02 -0.52974115629E+01  0.13796531533E+02  0.31886050299E+02  0.00000000000E+00 0.  1.
         11    1    3    3    0    0 -0.32923545647E+01 -0.32162183016E+00 -0.77412135895E+01  0.84183981422E+01  0.51100000000E-03 0. -1.
        -11    1    3    3    0    0  0.87545169112E+01 -0.14856102808E+02  0.55588929454E+01  0.18117578426E+02  0.51100000000E-03 0.  1.
         12    1    3    3    0    0  0.22792277164E+02  0.20475136201E+02 -0.11614210889E+02  0.32765973133E+02  0.00000000000E+00 0. -1.
</event>
<event>
 7    1  0.1335379E-011  0.5930194E+02  0.7816164E-02  0.1266605E+00
        -11   -1    0    0    0    0  0.00000000000E+00  0.00000000000E+00  0.45593999997E+02  0.45594000000E+02  0.51100000000E-03 0.  1.
         11   -1    0    0    0    0 -0.00000000000E+00 -0.00000000000E+00 -0.45593999997E+02  0.45594000000E+02  0.51100000000E-03 0. -1.
    9900012    2    1    2    0    0  0.30847501928E+02 -0.58696431854E+01 -0.55407308812E+01  0.59301940585E+02  0.49999993722E+02 0.  0.
        -12    1    1    2    0    0 -0.30847501928E+02  0.58696431854E+01  0.55407308812E+01  0.31886059415E+02  0.00000000000E+00 0.  1.
         11    1    3    3    0    0  0.12774555685E+02 -0.18598337240E+02 -0.48425601233E+01  0.23076780751E+02  0.51100000000E-03 0. -1.
        -11    1    3    3    0    0  0.12246203028E+02 -0.79831255522E+01 -0.14940753544E+01  0.14694626351E+02  0.51100000000E-03 0.  1.
        -12    1    3    3    0    0  0.58267432151E+01  0.20711819607E+02  0.79590459649E+00  0.21530533483E+02  0.00000000000E+00 0.  1.
</event>
<event>
 7    1  0.1335379E-011  0.5930201E+02  0.7816164E-02  0.1266605E+00
        -11   -1    0    0    0    0  0.00000000000E+00  0.00000000000E+00  0.45593999997E+02  0.45594000000E+02  0.51100000000E-03 0.  1.
         11   -1    0    0    0    0 -0.00000000000E+00 -0.00000000000E+00 -0.45593999997E+02  0.45594000000E+02  0.51100000000E-03 0. -1.
    9900012    2    1    2    0    0 -0.19423302668E+00  0.64682052859E+01 -0.31222440278E+02  0.59302012749E+02  0.50000125330E+02 0.  0.
        -12    1    1    2    0    0  0.19423302668E+00 -0.64682052859E+01  0.31222440278E+02  0.31885987251E+02  0.00000000000E+00 0.  1.
         11    1    3    3    0    0  0.17496774623E+01 -0.52066491013E+01 -0.73354717537E+01  0.91640445327E+01  0.51100000000E-03 0. -1.
        -11    1    3    3    0    0  0.14263965462E+02  0.23897008450E+01  0.53692246394E+01  0.15427247140E+02  0.51100000000E-03 0.  1.
         12    1    3    3    0    0 -0.16207875951E+02  0.92851535423E+01 -0.29256193164E+02  0.34710721076E+02  0.00000000000E+00 0. -1.
</event>
<event>
 7    1  0.1335379E-011  0.5930193E+02  0.7816164E-02  0.1266605E+00
        -11   -1    0    0    0    0  0.00000000000E+00  0.00000000000E+00  0.45593999997E+02  0.45594000000E+02  0.51100000000E-03 0.  1.
         11   -1    0    0    0    0 -0.00000000000E+00 -0.00000000000E+00 -0.45593999997E+02  0.45594000000E+02  0.51100000000E-03 0. -1.
    9900012    2    1    2    0    0  0.16040997715E+02  0.21711757011E+01 -0.27471687909E+02  0.59301933321E+02  0.49999980474E+02 0.  0.
        -12    1    1    2    0    0 -0.16040997715E+02 -0.21711757011E+01  0.27471687909E+02  0.31886066679E+02  0.00000000000E+00 0.  1.
         11    1    3    3    0    0  0.29677589028E+01 -0.13224276142E+02  0.26122307489E+00  0.13555711348E+02  0.51100000000E-03 0. -1.
        -11    1    3    3    0    0  0.94341636136E+01 -0.59507183189E+01 -0.79288624357E+00  0.11182269915E+02  0.51100000000E-03 0.  1.
        -12    1    3    3    0    0  0.36390751991E+01  0.21346170162E+02 -0.26940024741E+02  0.34563952059E+02  0.00000000000E+00 0.  1.
</event>
<event>
 7    1  0.1335379E-011  0.5930186E+02  0.7816164E-02  0.1266605E+00
        -11   -1    0    0    0    0  0.00000000000E+00  0.00000000000E+00  0.45593999997E+02  0.45594000000E+02  0.51100000000E-03 0.  1.
         11   -1    0    0    0    0 -0.00000000000E+00 -0.00000000000E+00 -0.45593999997E+02  0.45594000000E+02  0.51100000000E-03 0. -1.
    9900012    2    1    2    0    0 -0.42196276945E+01  0.21745271805E+02 -0.22936078659E+02  0.59301861820E+02  0.49999850073E+02 0.  0.
        -12    1    1    2    0    0  0.42196276945E+01 -0.21745271805E+02  0.22936078659E+02  0.31886138180E+02  0.00000000000E+00 0.  1.
         11    1    3    3    0    0  0.92825175218E+01  0.19140759641E+02  0.63741706323E+01  0.22207293007E+02  0.51100000000E-03 0. -1.
        -11    1    3    3    0    0  0.11629108180E+01  0.72318189218E+01 -0.85334510497E+01  0.11245948318E+02  0.51100000000E-03 0.  1.
         12    1    3    3    0    0 -0.14665056034E+02 -0.46273067583E+01 -0.20776798242E+02  0.25848620495E+02  0.00000000000E+00 0. -1.
</event>
<event>
 7    1  0.1335379E-011  0.5930195E+02  0.7816164E-02  0.1266605E+00
        -11   -1    0    0    0    0  0.00000000000E+00  0.00000000000E+00  0.45593999997E+02  0.45594000000E+02  0.51100000000E-03 0.  1.
         11   -1    0    0    0    0 -0.00000000000E+00 -0.00000000000E+00 -0.45593999997E+02  0.45594000000E+02  0.51100000000E-03 0. -1.
    9900012    2    1    2    0    0 -0.32447694737E+01  0.30327788463E+01 -0.31575208076E+02  0.59301952244E+02  0.50000014984E+02 0.  0.
        -12    1    1    2    0    0  0.32447694737E+01 -0.30327788463E+01  0.31575208076E+02  0.31886047756E+02  0.00000000000E+00 0.  1.
         11    1    3    3    0    0 -0.62284327392E+01  0.17346022007E+02 -0.36151301705E+02  0.40578251183E+02  0.51100000000E-03 0. -1.
        -11    1    3    3    0    0 -0.37360491913E+01 -0.74637116344E+01  0.35622392031E+01  0.90749437091E+01  0.51100000000E-03 0.  1.
        -12    1    3    3    0    0  0.67197124568E+01 -0.68495315264E+01  0.10138544257E+01  0.96487573516E+01  0.00000000000E+00 0.  1.
</event>
<event>
 7    1  0.1335379E-011  0.5930194E+02  0.7816164E-02  0.1266605E+00
        -11   -1    0    0    0    0  0.00000000000E+00  0.00000000000E+00  0.45593999997E+02  0.45594000000E+02  0.51100000000E-03 0. -1.
         11   -1    0    0    0    0 -0.00000000000E+00 -0.00000000000E+00 -0.45593999997E+02  0.45594000000E+02  0.51100000000E-03 0.  1.
    9900012    2    1    2    0    0  0.53042355387E+01  0.90883647129E+01  0.30099626756E+02  0.59301940058E+02  0.49999992760E+02 0.  0.
        -12    1    1    2    0    0 -0.53042355387E+01 -0.90883647129E+01 -0.30099626756E+02  0.31886059942E+02  0.00000000000E+00 0.  1.
         11    1    3    3    0    0 -0.27083764414E+01  0.20750602823E+01  0.23895350677E+02  0.24137708308E+02  0.51100000000E-03 0. -1.
        -11    1    3    3    0    0  0.11237534156E+02 -0.87458015071E+01  0.11420695704E+02  0.18253862839E+02  0.51100000000E-03 0.  1.
         12    1    3    3    0    0 -0.32249221756E+01  0.15759105938E+02 -0.52164196257E+01  0.16910368911E+02  0.00000000000E+00 0. -1.
</event>
<event>
 7    1  0.1335379E-011  0.5930196E+02  0.7816164E-02  0.1266605E+00
        -11   -1    0    0    0    0  0.00000000000E+00  0.00000000000E+00  0.45593999997E+02  0.45594000000E+02  0.51100000000E-03 0. -1.
         11   -1    0    0    0    0 -0.00000000000E+00 -0.00000000000E+00 -0.45593999997E+02  0.45594000000E+02  0.51100000000E-03 0.  1.
    9900012    2    1    2    0    0 -0.17238301980E+01 -0.15441458430E+02  0.27844381349E+02  0.59301956004E+02  0.50000021842E+02 0.  0.
        -12    1    1    2    0    0  0.17238301980E+01  0.15441458430E+02 -0.27844381349E+02  0.31886043996E+02  0.00000000000E+00 0.  1.
         11    1    3    3    0    0  0.30392971162E+01  0.64461722599E+01  0.25459557198E+02  0.26438220756E+02  0.51100000000E-03 0. -1.
        -11    1    3    3    0    0 -0.45316399219E+01  0.44984784184E+01  0.68449718335E+00  0.64218848571E+01  0.51100000000E-03 0.  1.
         12    1    3    3    0    0 -0.23148739236E+00 -0.26386109108E+02  0.17003269680E+01  0.26441850391E+02  0.00000000000E+00 0. -1.
</event>
<event>
 7    1  0.1335379E-011  0.5930196E+02  0.7816164E-02  0.1266605E+00
        -11   -1    0    0    0    0  0.00000000000E+00  0.00000000000E+00  0.45593999997E+02  0.45594000000E+02  0.51100000000E-03 0. -1.
         11   -1    0    0    0    0 -0.00000000000E+00 -0.00000000000E+00 -0.45593999997E+02  0.45594000000E+02  0.51100000000E-03 0.  1.
    9900012    2    1    2    0    0 -0.21929704824E+01 -0.18171264898E+02  0.26109685151E+02  0.59301958442E+02  0.50000026288E+02 0.  0.
        -12    1    1    2    0    0  0.21929704824E+01  0.18171264898E+02 -0.26109685151E+02  0.31886041558E+02  0.00000000000E+00 0.  1.
         11    1    3    3    0    0  0.65361589703E+01 -0.19380242935E+02 -0.13916390189E+01  0.20500045115E+02  0.51100000000E-03 0. -1.
        -11    1    3    3    0    0 -0.91893060867E+00 -0.10392701681E+02  0.34663072759E+01  0.10993996911E+02  0.51100000000E-03 0.  1.
        -12    1    3    3    0    0 -0.78101988441E+01  0.11601679717E+02  0.24035016895E+02  0.27807916415E+02  0.00000000000E+00 0.  1.
</event>
<event>
 7    1  0.1335379E-011  0.5930194E+02  0.7816164E-02  0.1266605E+00
        -11   -1    0    0    0    0  0.00000000000E+00  0.00000000000E+00  0.45593999997E+02  0.45594000000E+02  0.51100000000E-03 0.  1.
         11   -1    0    0    0    0 -0.00000000000E+00 -0.00000000000E+00 -0.45593999997E+02  0.45594000000E+02  0.51100000000E-03 0. -1.
    9900012    2    1    2    0    0  0.37581712584E+00 -0.15719667738E+02 -0.27739350135E+02  0.59301941318E+02  0.49999995059E+02 0.  0.
        -12    1    1    2    0    0 -0.37581712584E+00  0.15719667738E+02  0.27739350135E+02  0.31886058682E+02  0.00000000000E+00 0.  1.
         11    1    3    3    0    0 -0.12304221332E+01  0.12755900874E+02 -0.49490551830E+01  0.13737543201E+02  0.51100000000E-03 0. -1.
        -11    1    3    3    0    0 -0.12803984602E+01 -0.60523844075E+01  0.62282070404E+01  0.87784588871E+01  0.51100000000E-03 0.  1.
        -12    1    3    3    0    0  0.28866377192E+01 -0.22423184204E+02 -0.29018501993E+02  0.36785939231E+02  0.00000000000E+00 0.  1.
</event>
<event>
 7    1  0.1335379E-011  0.5930193E+02  0.7816164E-02  0.1266605E+00
        -11   -1    0    0    0    0  0.00000000000E+00  0.00000000000E+00  0.45593999997E+02  0.45594000000E+02  0.51100000000E-03 0. -1.
         11   -1    0    0    0    0 -0.00000000000E+00 -0.00000000000E+00 -0.45593999997E+02  0.45594000000E+02  0.51100000000E-03 0.  1.
    9900012    2    1    2    0    0  0.10368858673E+02  0.18168468181E+02  0.24064803570E+02  0.59301933496E+02  0.49999980793E+02 0.  0.
        -12    1    1    2    0    0 -0.10368858673E+02 -0.18168468181E+02 -0.24064803570E+02  0.31886066504E+02  0.00000000000E+00 0.  1.
         11    1    3    3    0    0 -0.31707163995E+00  0.20109538436E+02  0.11923037353E+02  0.23380609284E+02  0.51100000000E-03 0. -1.
        -11    1    3    3    0    0  0.93601411105E+01  0.13593032678E+02  0.58480382106E+00  0.16514380847E+02  0.51100000000E-03 0.  1.
         12    1    3    3    0    0  0.13257892025E+01 -0.15534102933E+02  0.11556962395E+02  0.19406943364E+02  0.00000000000E+00 0. -1.
</event>
<event>
 7    1  0.1335379E-011  0.5930197E+02  0.7816164E-02  0.1266605E+00
        -11   -1    0    0    0    0  0.00000000000E+00  0.00000000000E+00  0.45593999997E+02  0.45594000000E+02  0.51100000000E-03 0. -1.
         11   -1    0    0    0    0 -0.00000000000E+00 -0.00000000000E+00 -0.45593999997E+02  0.45594000000E+02  0.51100000000E-03 0.  1.
    9900012    2    1    2    0    0 -0.72648422197E+00 -0.31786002155E+02 -0.24168781314E+01  0.59301968384E+02  0.50000044420E+02 0.  0.
        -12    1    1    2    0    0  0.72648422197E+00  0.31786002155E+02  0.24168781314E+01  0.31886031616E+02  0.00000000000E+00 0.  1.
         11    1    3    3    0    0  0.43770583479E+01 -0.21924472041E+02  0.16142482809E+02  0.27575729646E+02  0.51100000000E-03 0. -1.
        -11    1    3    3    0    0 -0.17607005456E+01 -0.17372275991E+02 -0.11691968209E+02  0.21014237088E+02  0.51100000000E-03 0.  1.
        -12    1    3    3    0    0 -0.33428420242E+01  0.75107458770E+01 -0.68673927306E+01  0.10712001650E+02  0.00000000000E+00 0.  1.
</event>
<event>
 7    1  0.1335379E-011  0.5930194E+02  0.7816164E-02  0.1266605E+00
        -11   -1    0    0    0    0  0.00000000000E+00  0.00000000000E+00  0.45593999997E+02  0.45594000000E+02  0.51100000000E-03 0.  1.
         11   -1    0    0    0    0 -0.00000000000E+00 -0.00000000000E+00 -0.45593999997E+02  0.45594000000E+02  0.51100000000E-03 0. -1.
    9900012    2    1    2    0    0 -0.21271592753E+02  0.81188241347E+01 -0.22323187694E+02  0.59301942350E+02  0.49999996941E+02 0.  0.
        -12    1    1    2    0    0  0.21271592753E+02 -0.81188241347E+01  0.22323187694E+02  0.31886057650E+02  0.00000000000E+00 0.  1.
         11    1    3    3    0    0 -0.12761430261E+02  0.98605385320E+01  0.15902847425E+01  0.16205348755E+02  0.51100000000E-03 0. -1.
        -11    1    3    3    0    0 -0.19535795997E+02 -0.51906657301E+01 -0.48202010316E+01  0.20780391580E+02  0.51100000000E-03 0.  1.
         12    1    3    3    0    0  0.11025633504E+02  0.34489513328E+01 -0.19093271405E+02  0.22316202016E+02  0.00000000000E+00 0. -1.
</event>
<event>
 7    1  0.1335379E-011  0.5930196E+02  0.7816164E-02  0.1266605E+00
        -11   -1    0    0    0    0  0.00000000000E+00  0.00000000000E+00  0.45593999997E+02  0.45594000000E+02  0.51100000000E-03 0.  1.
         11   -1    0    0    0    0 -0.00000000000E+00 -0.00000000000E+00 -0.45593999997E+02  0.45594000000E+02  0.51100000000E-03 0. -1.
    9900012    2    1    2    0    0  0.31089685965E+01  0.88331602015E+01 -0.30479978073E+02  0.59301961234E+02  0.50000031379E+02 0.  0.
        -12    1    1    2    0    0 -0.31089685965E+01 -0.88331602015E+01  0.30479978073E+02  0.31886038766E+02  0.00000000000E+00 0.  1.
         11    1    3    3    0    0  0.97566589109E+01 -0.28475997956E+01  0.13935623354E+01  0.10258812502E+02  0.51100000000E-03 0. -1.
        -11    1    3    3    0    0  0.10151898712E+02 -0.22781749820E+00  0.10516589347E+01  0.10208767557E+02  0.51100000000E-03 0.  1.
        -12    1    3    3    0    0 -0.16799589026E+02  0.11908577495E+02 -0.32925199343E+02  0.38834381174E+02  0.00000000000E+00 0.  1.
</event>
<event>
 7    1  0.1335379E-011  0.5930197E+02  0.7816164E-02  0.1266605E+00
        -11   -1    0    0    0    0  0.00000000000E+00  0.00000000000E+00  0.45593999997E+02  0.45594000000E+02  0.51100000000E-03 0.  1.
         11   -1    0    0    0    0 -0.00000000000E+00 -0.00000000000E+00 -0.45593999997E+02  0.45594000000E+02  0.51100000000E-03 0. -1.
    9900012    2    1    2    0    0  0.20509073740E+02  0.14337313095E+02 -0.19762048454E+02  0.59301965258E+02  0.50000038719E+02 0.  0.
        -12    1    1    2    0    0 -0.20509073740E+02 -0.14337313095E+02  0.19762048454E+02  0.31886034742E+02  0.00000000000E+00 0.  1.
         11    1    3    3    0    0  0.50076996063E+01  0.15186560835E+01 -0.84024681393E+01  0.98987293498E+01  0.51100000000E-03 0. -1.
        -11    1    3    3    0    0  0.86937986420E+00  0.14194952839E+02 -0.25379182005E+02  0.29092187731E+02  0.51100000000E-03 0.  1.
         12    1    3    3    0    0  0.14631994269E+02 -0.13762958280E+01  0.14019601690E+02  0.20311048177E+02  0.00000000000E+00 0. -1.
</event>
<event>
 7    1  0.1335379E-011  0.5930193E+02  0.7816164E-02  0.1266605E+00
        -11   -1    0    0    0    0  0.00000000000E+00  0.00000000000E+00  0.45593999997E+02  0.45594000000E+02  0.51100000000E-03 0.  1.
         11   -1    0    0    0    0 -0.00000000000E+00 -0.00000000000E+00 -0.45593999997E+02  0.45594000000E+02  0.51100000000E-03 0. -1.
    9900012    2    1    2    0    0  0.21215150116E+02 -0.25081366863E+01 -0.23671671726E+02  0.59301931155E+02  0.49999976524E+02 0.  0.
        -12    1    1    2    0    0 -0.21215150116E+02  0.25081366863E+01  0.23671671726E+02  0.31886068845E+02  0.00000000000E+00 0.  1.
         11    1    3    3    0    0  0.22236635812E+01  0.12973942940E+02 -0.22098259469E+02  0.25721604673E+02  0.51100000000E-03 0. -1.
        -11    1    3    3    0    0  0.10369927455E+02 -0.17966110047E+01  0.93374839162E+01  0.14069534913E+02  0.51100000000E-03 0.  1.
        -12    1    3    3    0    0  0.86215590798E+01 -0.13685468622E+02 -0.10910896173E+02  0.19510791569E+02  0.00000000000E+00 0.  1.
</event>
<event>
 7    1  0.1335379E-011  0.5930194E+02  0.7816164E-02  0.1266605E+00
        -11   -1    0    0    0    0  0.00000000000E+00  0.00000000000E+00  0.45593999997E+02  0.45594000000E+02  0.51100000000E-03 0. -1.
         11   -1    0    0    0    0 -0.00000000000E+00 -0.00000000000E+00 -0.45593999997E+02  0.45594000000E+02  0.51100000000E-03 0.  1.
    9900012    2    1    2    0    0  0.28005893457E+02  0.11716636785E+02  0.97524825425E+01  0.59301944088E+02  0.50000000110E+02 0.  0.
        -12    1    1    2    0    0 -0.28005893457E+02 -0.11716636785E+02 -0.97524825425E+01  0.31886055912E+02  0.00000000000E+00 0.  1.
         11    1    3    3    0    0  0.14688258015E+02 -0.12633507366E+00 -0.12705379758E+02  0.19421317132E+02  0.51100000000E-03 0. -1.
        -11    1    3    3    0    0  0.52143400281E+01  0.14167846651E+02 -0.82409959170E+00  0.15119403462E+02  0.51100000000E-03 0.  1.
         12    1    3    3    0    0  0.81032954141E+01 -0.23248747920E+01  0.23281961893E+02  0.24761223494E+02  0.00000000000E+00 0. -1.
</event>
<event>
 7    1  0.1335379E-011  0.5930188E+02  0.7816164E-02  0.1266605E+00
        -11   -1    0    0    0    0  0.00000000000E+00  0.00000000000E+00  0.45593999997E+02  0.45594000000E+02  0.51100000000E-03 0.  1.
         11   -1    0    0    0    0 -0.00000000000E+00 -0.00000000000E+00 -0.45593999997E+02  0.45594000000E+02  0.51100000000E-03 0. -1.
    9900012    2    1    2    0    0  0.31312568405E+02  0.33273157766E+01 -0.50176109303E+01  0.59301884058E+02  0.49999890630E+02 0.  0.
        -12    1    1    2    0    0 -0.31312568405E+02 -0.33273157766E+01  0.50176109303E+01  0.31886115942E+02  0.00000000000E+00 0.  1.
         11    1    3    3    0    0 -0.26465075785E+00 -0.89172479572E+01 -0.45087878696E+01  0.99958251019E+01  0.51100000000E-03 0. -1.
        -11    1    3    3    0    0  0.15631117581E+02  0.80489097159E+01  0.17556974235E+02  0.24846813256E+02  0.51100000000E-03 0.  1.
         12    1    3    3    0    0  0.15946101582E+02  0.41956540179E+01 -0.18065797295E+02  0.24459245700E+02  0.00000000000E+00 0. -1.
</event>
<event>
 7    1  0.1335379E-011  0.5930193E+02  0.7816164E-02  0.1266605E+00
        -11   -1    0    0    0    0  0.00000000000E+00  0.00000000000E+00  0.45593999997E+02  0.45594000000E+02  0.51100000000E-03 0. -1.
         11   -1    0    0    0    0 -0.00000000000E+00 -0.00000000000E+00 -0.45593999997E+02  0.45594000000E+02  0.51100000000E-03 0.  1.
    9900012    2    1    2    0    0  0.64828169358E+01 -0.40749642449E+01  0.30953013440E+02  0.59301932665E+02  0.49999979278E+02 0.  0.
        -12    1    1    2    0    0 -0.64828169358E+01  0.40749642449E+01 -0.30953013440E+02  0.31886067335E+02  0.00000000000E+00 0.  1.
         11    1    3    3    0    0  0.17154690376E+01 -0.13025705077E+01  0.51566887803E+01  0.55884669977E+01  0.51100000000E-03 0. -1.
        -11    1    3    3    0    0  0.13014672664E+02 -0.21066578857E+02  0.22340357071E+02  0.33350772159E+02  0.51100000000E-03 0.  1.
        -12    1    3    3    0    0 -0.82473247654E+01  0.18294185120E+02  0.34559675896E+01  0.20362693509E+02  0.00000000000E+00 0.  1.
</event>
<event>
 7    1  0.1335379E-011  0.5930195E+02  0.7816164E-02  0.1266605E+00
        -11   -1    0    0    0    0  0.00000000000E+00  0.00000000000E+00  0.45593999997E+02  0.45594000000E+02  0.51100000000E-03 0. -1.
         11   -1    0    0    0    0 -0.00000000000E+00 -0.00000000000E+00 -0.45593999997E+02  0.45594000000E+02  0.51100000000E-03 0.  1.
    9900012    2    1    2    0    0 -0.16114122482E+02  0.27459273418E+02 -0.17446240018E+01  0.59301947361E+02  0.50000006079E+02 0.  0.
        -12    1    1    2    0    0  0.16114122482E+02 -0.27459273418E+02  0.17446240018E+01  0.31886052639E+02  0.00000000000E+00 0.  1.
         11    1    3    3    0    0  0.73026239121E+01 -0.96518806550E+00  0.22770617346E+01  0.77100528148E+01  0.51100000000E-03 0. -1.
        -11    1    3    3    0    0  0.92584217952E+01  0.44362682419E+01  0.24208069838E+01  0.10547945618E+02  0.51100000000E-03 0.  1.
         12    1    3    3    0    0 -0.32675168189E+02  0.23988193241E+02 -0.64424927201E+01  0.41043948928E+02  0.00000000000E+00 0. -1.
</event>
<event>
 7    1  0.1335379E-011  0.5930196E+02  0.7816164E-02  0.1266605E+00
        -11   -1    0    0    0    0  0.00000000000E+00  0.00000000000E+00  0.45593999997E+02  0.45594000000E+02  0.51100000000E-03 0. -1.
         11   -1    0    0    0    0 -0.00000000000E+00 -0.00000000000E+00 -0.45593999997E+02  0.45594000000E+02  0.51100000000E-03 0.  1.
    9900012    2    1    2    0    0  0.28489770140E+02 -0.16161567417E+01 -0.14228170371E+02  0.59301956072E+02  0.50000021967E+02 0.  0.
        -12    1    1    2    0    0 -0.28489770140E+02  0.16161567417E+01  0.14228170371E+02  0.31886043928E+02  0.00000000000E+00 0.  1.
         11    1    3    3    0    0  0.43558467229E+01 -0.12862414498E+02 -0.26703933641E+01  0.13840018366E+02  0.51100000000E-03 0. -1.
        -11    1    3    3    0    0  0.23094403645E+02 -0.81794756315E+01 -0.70237905175E+01  0.25487034641E+02  0.51100000000E-03 0.  1.
         12    1    3    3    0    0  0.10395197727E+01  0.19425733387E+02 -0.45339864889E+01  0.19974903066E+02  0.00000000000E+00 0. -1.
</event>
<event>
 7    1  0.1335379E-011  0.5930203E+02  0.7816164E-02  0.1266604E+00
        -11   -1    0    0    0    0  0.00000000000E+00  0.00000000000E+00  0.45593999997E+02  0.45594000000E+02  0.51100000000E-03 0.  1.
         11   -1    0    0    0    0 -0.00000000000E+00 -0.00000000000E+00 -0.45593999997E+02  0.45594000000E+02  0.51100000000E-03 0. -1.
    9900012    2    1    2    0    0  0.27422940099E+00 -0.16653267237E+02 -0.27190228505E+02  0.59302030709E+02  0.50000158086E+02 0.  0.
        -12    1    1    2    0    0 -0.27422940099E+00  0.16653267237E+02  0.27190228505E+02  0.31885969291E+02  0.00000000000E+00 0.  1.
         11    1    3    3    0    0  0.12758025657E+02 -0.52496785231E+01 -0.32278450844E+01  0.14168462422E+02  0.51100000000E-03 0.  1.
        -11    1    3    3    0    0  0.10848318614E+02 -0.92597160961E+01 -0.54358447151E+01  0.15263576480E+02  0.51100000000E-03 0. -1.
         12    1    3    3    0    0 -0.23332114870E+02 -0.21438726178E+01 -0.18526538706E+02  0.29869991807E+02  0.00000000000E+00 0. -1.
</event>
<event>
 7    1  0.1335379E-011  0.5930195E+02  0.7816164E-02  0.1266605E+00
        -11   -1    0    0    0    0  0.00000000000E+00  0.00000000000E+00  0.45593999997E+02  0.45594000000E+02  0.51100000000E-03 0. -1.
         11   -1    0    0    0    0 -0.00000000000E+00 -0.00000000000E+00 -0.45593999997E+02  0.45594000000E+02  0.51100000000E-03 0.  1.
    9900012    2    1    2    0    0  0.30310118766E+02 -0.93731567254E+01 -0.31876183103E+01  0.59301948549E+02  0.50000008246E+02 0.  0.
        -12    1    1    2    0    0 -0.30310118766E+02  0.93731567254E+01  0.31876183103E+01  0.31886051451E+02  0.00000000000E+00 0.  1.
         11    1    3    3    0    0 -0.18049866366E+01 -0.46285689578E+01 -0.61234353867E+01  0.78853083993E+01  0.51100000000E-03 0.  1.
        -11    1    3    3    0    0 -0.65810922520E+01  0.73358674308E+01 -0.33185331483E+01  0.10398960944E+02  0.51100000000E-03 0. -1.
         12    1    3    3    0    0  0.38696197655E+02 -0.12080455198E+02  0.62543502247E+01  0.41017679206E+02  0.00000000000E+00 0. -1.
</event>
<event>
 7    1  0.1335379E-011  0.5930194E+02  0.7816164E-02  0.1266605E+00
        -11   -1    0    0    0    0  0.00000000000E+00  0.00000000000E+00  0.45593999997E+02  0.45594000000E+02  0.51100000000E-03 0. -1.
         11   -1    0    0    0    0 -0.00000000000E+00 -0.00000000000E+00 -0.45593999997E+02  0.45594000000E+02  0.51100000000E-03 0.  1.
    9900012    2    1    2    0    0 -0.16494929126E+02  0.25849272925E+02  0.87437409353E+01  0.59301943437E+02  0.49999998922E+02 0.  0.
        -12    1    1    2    0    0  0.16494929126E+02 -0.25849272925E+02 -0.87437409353E+01  0.31886056563E+02  0.00000000000E+00 0.  1.
         11    1    3    3    0    0  0.72635659553E+01  0.13024977277E+01  0.13552259586E+02  0.15431125392E+02  0.51100000000E-03 0. -1.
        -11    1    3    3    0    0 -0.14065421971E+02  0.15990038041E+01  0.75709634708E+01  0.16053423202E+02  0.51100000000E-03 0.  1.
         12    1    3    3    0    0 -0.96930731104E+01  0.22947771393E+02 -0.12379482121E+02  0.27817394843E+02  0.00000000000E+00 0. -1.
</event>
<event>
 7    1  0.1335379E-011  0.5930193E+02  0.7816164E-02  0.1266605E+00
        -11   -1    0    0    0    0  0.00000000000E+00  0.00000000000E+00  0.45593999997E+02  0.45594000000E+02  0.51100000000E-03 0. -1.
         11   -1    0    0    0    0 -0.00000000000E+00 -0.00000000000E+00 -0.45593999997E+02  0.45594000000E+02  0.51100000000E-03 0.  1.
    9900012    2    1    2    0    0 -0.24267281142E+02 -0.19528650039E+02  0.68155896624E+01  0.59301931430E+02  0.49999977025E+02 0.  0.
        -12    1    1    2    0    0  0.24267281142E+02  0.19528650039E+02 -0.68155896624E+01  0.31886068570E+02  0.00000000000E+00 0.  1.
         11    1    3    3    0    0 -0.17750925151E+02 -0.11458066555E+02 -0.21627143437E+01  0.21238172391E+02  0.51100000000E-03 0. -1.
        -11    1    3    3    0    0 -0.19591400081E+02 -0.48306776678E+01 -0.25435879941E+01  0.20337852493E+02  0.51100000000E-03 0.  1.
         12    1    3    3    0    0  0.13075044090E+02 -0.32399058165E+01  0.11521892000E+02  0.17725906547E+02  0.00000000000E+00 0. -1.
</event>
<event>
 7    1  0.1335379E-011  0.5930194E+02  0.7816164E-02  0.1266605E+00
        -11   -1    0    0    0    0  0.00000000000E+00  0.00000000000E+00  0.45593999997E+02  0.45594000000E+02  0.51100000000E-03 0.  1.
         11   -1    0    0    0    0 -0.00000000000E+00 -0.00000000000E+00 -0.45593999997E+02  0.45594000000E+02  0.51100000000E-03 0. -1.
    9900012    2    1    2    0    0  0.12487962966E+02 -0.25083559594E+02 -0.15217973081E+02  0.59301939007E+02  0.49999990843E+02 0.  0.
        -12    1    1    2    0    0 -0.12487962966E+02  0.25083559594E+02  0.15217973081E+02  0.31886060993E+02  0.00000000000E+00 0.  1.
         11    1    3    3    0    0  0.13685768879E+02 -0.55264268258E+01 -0.24811323959E+01  0.14966552091E+02  0.51100000000E-03 0. -1.
        -11    1    3    3    0    0  0.34378276519E+01 -0.19137227824E+02  0.94832990709E+01  0.21632963488E+02  0.51100000000E-03 0.  1.
         12    1    3    3    0    0 -0.46356335645E+01 -0.41990494468E+00 -0.22220139756E+02  0.22702423428E+02  0.00000000000E+00 0. -1.
</event>
<event>
 7    1  0.1335379E-011  0.5930196E+02  0.7816164E-02  0.1266605E+00
        -11   -1    0    0    0    0  0.00000000000E+00  0.00000000000E+00  0.45593999997E+02  0.45594000000E+02  0.51100000000E-03 0.  1.
         11   -1    0    0    0    0 -0.00000000000E+00 -0.00000000000E+00 -0.45593999997E+02  0.45594000000E+02  0.51100000000E-03 0. -1.
    9900012    2    1    2    0    0 -0.27082988810E+02  0.82308453864E+01 -0.14679394560E+02  0.59301957233E+02  0.50000024084E+02 0.  0.
        -12    1    1    2    0    0  0.27082988810E+02 -0.82308453864E+01  0.14679394560E+02  0.31886042767E+02  0.00000000000E+00 0.  1.
         11    1    3    3    0    0 -0.20498137927E+01 -0.18024383920E+01 -0.18451215525E+01  0.32946918743E+01  0.51100000000E-03 0. -1.
        -11    1    3    3    0    0 -0.25840878542E+01 -0.97125163980E+01 -0.22453704975E+02  0.24600393334E+02  0.51100000000E-03 0.  1.
         12    1    3    3    0    0 -0.22449087163E+02  0.19745800176E+02  0.96194319670E+01  0.31406872026E+02  0.00000000000E+00 0. -1.
</event>
<event>
 7    1  0.1335379E-011  0.5930191E+02  0.7816164E-02  0.1266605E+00
        -11   -1    0    0    0    0  0.00000000000E+00  0.00000000000E+00  0.45593999997E+02  0.45594000000E+02  0.51100000000E-03 0. -1.
         11   -1    0    0    0    0 -0.00000000000E+00 -0.00000000000E+00 -0.45593999997E+02  0.45594000000E+02  0.51100000000E-03 0.  1.
    9900012    2    1    2    0    0 -0.36829342123E+01  0.28728539456E+02  0.13335287954E+02  0.59301907600E+02  0.49999933565E+02 0.  0.
        -12    1    1    2    0    0  0.36829342123E+01 -0.28728539456E+02 -0.13335287954E+02  0.31886092400E+02  0.00000000000E+00 0.  1.
         11    1    3    3    0    0 -0.56712896758E+01 -0.40351157867E+01  0.72166894279E+01  0.10026280096E+02  0.51100000000E-03 0. -1.
        -11    1    3    3    0    0  0.98907439045E+01 -0.29455155819E+01 -0.44016468975E+01  0.11219508577E+02  0.51100000000E-03 0.  1.
         12    1    3    3    0    0 -0.79023884410E+01  0.35709170825E+02  0.10520245424E+02  0.38056118928E+02  0.00000000000E+00 0. -1.
</event>
<event>
 7    1  0.1335379E-011  0.5930200E+02  0.7816164E-02  0.1266605E+00
        -11   -1    0    0    0    0  0.00000000000E+00  0.00000000000E+00  0.45593999997E+02  0.45594000000E+02  0.51100000000E-03 0.  1.
         11   -1    0    0    0    0 -0.00000000000E+00 -0.00000000000E+00 -0.45593999997E+02  0.45594000000E+02  0.51100000000E-03 0. -1.
    9900012    2    1    2    0    0  0.16260679391E+02 -0.24531982161E+02 -0.12267404007E+02  0.59301999247E+02  0.50000100706E+02 0.  0.
        -12    1    1    2    0    0 -0.16260679391E+02  0.24531982161E+02  0.12267404007E+02  0.31886000753E+02  0.00000000000E+00 0.  1.
         11    1    3    3    0    0  0.10938370645E+02  0.12339226283E+02 -0.10655625192E+02  0.19632799244E+02  0.51100000000E-03 0. -1.
        -11    1    3    3    0    0  0.94681862215E+01 -0.24013090429E+02 -0.34232742891E+01  0.26038315410E+02  0.51100000000E-03 0.  1.
        -12    1    3    3    0    0 -0.41458774759E+01 -0.12858118015E+02  0.18114954748E+01  0.13630884593E+02  0.00000000000E+00 0.  1.
</event>
<event>
 7    1  0.1335379E-011  0.5930194E+02  0.7816164E-02  0.1266605E+00
        -11   -1    0    0    0    0  0.00000000000E+00  0.00000000000E+00  0.45593999997E+02  0.45594000000E+02  0.51100000000E-03 0.  1.
         11   -1    0    0    0    0 -0.00000000000E+00 -0.00000000000E+00 -0.45593999997E+02  0.45594000000E+02  0.51100000000E-03 0. -1.
    9900012    2    1    2    0    0  0.25995655194E+02 -0.14955282500E+02 -0.10829882282E+02  0.59301938565E+02  0.49999990037E+02 0.  0.
        -12    1    1    2    0    0 -0.25995655194E+02  0.14955282500E+02  0.10829882282E+02  0.31886061435E+02  0.00000000000E+00 0.  1.
         11    1    3    3    0    0  0.22810217531E+02 -0.35887061610E+01 -0.19473530544E+01  0.23172764615E+02  0.51100000000E-03 0. -1.
        -11    1    3    3    0    0  0.53282783573E+01  0.29546130052E+01 -0.18009543501E+02  0.19012205175E+02  0.51100000000E-03 0.  1.
        -12    1    3    3    0    0 -0.21428406950E+01 -0.14321189344E+02  0.91270142735E+01  0.17116968774E+02  0.00000000000E+00 0.  1.
</event>
<event>
 7    1  0.1335379E-011  0.5930197E+02  0.7816164E-02  0.1266605E+00
        -11   -1    0    0    0    0  0.00000000000E+00  0.00000000000E+00  0.45593999997E+02  0.45594000000E+02  0.51100000000E-03 0.  1.
         11   -1    0    0    0    0 -0.00000000000E+00 -0.00000000000E+00 -0.45593999997E+02  0.45594000000E+02  0.51100000000E-03 0. -1.
    9900012    2    1    2    0    0 -0.88245941336E+00 -0.26182090401E+02 -0.18177965133E+02  0.59301968438E+02  0.50000044518E+02 0.  0.
        -12    1    1    2    0    0  0.88245941336E+00  0.26182090401E+02  0.18177965133E+02  0.31886031562E+02  0.00000000000E+00 0.  1.
         11    1    3    3    0    0 -0.54817495650E+01 -0.37388186770E+02 -0.10766998556E+02  0.39291911972E+02  0.51100000000E-03 0. -1.
        -11    1    3    3    0    0 -0.23710287616E+01  0.99620809350E+00  0.29259048040E+01  0.38955265545E+01  0.51100000000E-03 0.  1.
        -12    1    3    3    0    0  0.69703189133E+01  0.10209888275E+02 -0.10336871381E+02  0.16114529912E+02  0.00000000000E+00 0.  1.
</event>
<event>
 7    1  0.1335379E-011  0.5930194E+02  0.7816164E-02  0.1266605E+00
        -11   -1    0    0    0    0  0.00000000000E+00  0.00000000000E+00  0.45593999997E+02  0.45594000000E+02  0.51100000000E-03 0.  1.
         11   -1    0    0    0    0 -0.00000000000E+00 -0.00000000000E+00 -0.45593999997E+02  0.45594000000E+02  0.51100000000E-03 0. -1.
    9900012    2    1    2    0    0  0.13651662529E+02  0.26135772210E+01 -0.28697070949E+02  0.59301944164E+02  0.50000000249E+02 0.  0.
        -12    1    1    2    0    0 -0.13651662529E+02 -0.26135772210E+01  0.28697070949E+02  0.31886055836E+02  0.00000000000E+00 0.  1.
         11    1    3    3    0    0  0.84857187377E+01 -0.63974777948E+01 -0.20390323964E+01  0.10820942565E+02  0.51100000000E-03 0. -1.
        -11    1    3    3    0    0  0.67453469865E+01 -0.11791707098E+02 -0.23826482760E+02  0.27427091411E+02  0.51100000000E-03 0.  1.
        -12    1    3    3    0    0 -0.15794031952E+01  0.20802762113E+02 -0.28315557925E+01  0.21053910188E+02  0.00000000000E+00 0.  1.
</event>
<event>
 7    1  0.1335379E-011  0.5930207E+02  0.7816164E-02  0.1266604E+00
        -11   -1    0    0    0    0  0.00000000000E+00  0.00000000000E+00  0.45593999997E+02  0.45594000000E+02  0.51100000000E-03 0.  1.
         11   -1    0    0    0    0 -0.00000000000E+00 -0.00000000000E+00 -0.45593999997E+02  0.45594000000E+02  0.51100000000E-03 0. -1.
    9900012    2    1    2    0    0 -0.23536348310E+02 -0.89334983505E+01 -0.19568987349E+02  0.59302072847E+02  0.50000234934E+02 0.  0.
        -12    1    1    2    0    0  0.23536348310E+02  0.89334983505E+01  0.19568987349E+02  0.31885927153E+02  0.00000000000E+00 0.  1.
         11    1    3    3    0    0  0.12355236520E+01 -0.31853801662E+01 -0.38757954785E+01  0.51667162057E+01  0.51100000000E-03 0. -1.
        -11    1    3    3    0    0  0.31233178073E+01 -0.19889651846E+02 -0.28839655645E+01  0.20338894324E+02  0.51100000000E-03 0.  1.
         12    1    3    3    0    0 -0.27895189770E+02  0.14141533662E+02 -0.12809226306E+02  0.33796462317E+02  0.00000000000E+00 0. -1.
</event>
<event>
 7    1  0.1335379E-011  0.5930197E+02  0.7816164E-02  0.1266605E+00
        -11   -1    0    0    0    0  0.00000000000E+00  0.00000000000E+00  0.45593999997E+02  0.45594000000E+02  0.51100000000E-03 0.  1.
         11   -1    0    0    0    0 -0.00000000000E+00 -0.00000000000E+00 -0.45593999997E+02  0.45594000000E+02  0.51100000000E-03 0. -1.
    9900012    2    1    2    0    0 -0.17235518238E+02  0.40070764871E+01 -0.26525449370E+02  0.59301965202E+02  0.50000038616E+02 0.  0.
        -12    1    1    2    0    0  0.17235518238E+02 -0.40070764871E+01  0.26525449370E+02  0.31886034798E+02  0.00000000000E+00 0.  1.
         11    1    3    3    0    0 -0.83794647372E+01  0.81887402353E+01 -0.27491192504E+02  0.29883717330E+02  0.51100000000E-03 0.  1.
        -11    1    3    3    0    0 -0.40326758349E+01 -0.23551005780E+01 -0.13381036145E+02  0.14172547467E+02  0.51100000000E-03 0. -1.
        -12    1    3    3    0    0 -0.48233776657E+01 -0.18265631701E+01  0.14346779280E+02  0.15245700404E+02  0.00000000000E+00 0.  1.
</event>
<event>
 7    1  0.1335379E-011  0.5930195E+02  0.7816164E-02  0.1266605E+00
        -11   -1    0    0    0    0  0.00000000000E+00  0.00000000000E+00  0.45593999997E+02  0.45594000000E+02  0.51100000000E-03 0. -1.
         11   -1    0    0    0    0 -0.00000000000E+00 -0.00000000000E+00 -0.45593999997E+02  0.45594000000E+02  0.51100000000E-03 0.  1.
    9900012    2    1    2    0    0 -0.27284002546E+02 -0.55871704027E+01  0.15526981813E+02  0.59301946116E+02  0.50000003809E+02 0.  0.
        -12    1    1    2    0    0  0.27284002546E+02  0.55871704027E+01 -0.15526981813E+02  0.31886053884E+02  0.00000000000E+00 0.  1.
         11    1    3    3    0    0  0.29543501095E+01 -0.11268589718E+01 -0.14436187281E+01  0.34759216051E+01  0.51100000000E-03 0. -1.
        -11    1    3    3    0    0  0.86701343551E+01  0.79718326163E+01  0.72784573923E+01  0.13845478947E+02  0.51100000000E-03 0.  1.
         12    1    3    3    0    0 -0.38908487011E+02 -0.12432144047E+02  0.96921431490E+01  0.41980545564E+02  0.00000000000E+00 0. -1.
</event>
<event>
 7    1  0.1335379E-011  0.5930190E+02  0.7816164E-02  0.1266605E+00
        -11   -1    0    0    0    0  0.00000000000E+00  0.00000000000E+00  0.45593999997E+02  0.45594000000E+02  0.51100000000E-03 0.  1.
         11   -1    0    0    0    0 -0.00000000000E+00 -0.00000000000E+00 -0.45593999997E+02  0.45594000000E+02  0.51100000000E-03 0. -1.
    9900012    2    1    2    0    0 -0.30019012103E+02 -0.10508018028E+02 -0.22724171125E+01  0.59301899422E+02  0.49999918649E+02 0.  0.
        -12    1    1    2    0    0  0.30019012103E+02  0.10508018028E+02  0.22724171125E+01  0.31886100578E+02  0.00000000000E+00 0.  1.
         11    1    3    3    0    0 -0.18445141478E+02 -0.17324968381E+02 -0.15085177833E+02  0.29460827620E+02  0.51100000000E-03 0. -1.
        -11    1    3    3    0    0 -0.35204355084E-01 -0.80913776932E+01  0.41584463863E+01  0.90974891552E+01  0.51100000000E-03 0.  1.
        -12    1    3    3    0    0 -0.11538666270E+02  0.14908328045E+02  0.86543143346E+01  0.20743582646E+02  0.00000000000E+00 0.  1.
</event>
<event>
 7    1  0.1335379E-011  0.5930194E+02  0.7816164E-02  0.1266605E+00
        -11   -1    0    0    0    0  0.00000000000E+00  0.00000000000E+00  0.45593999997E+02  0.45594000000E+02  0.51100000000E-03 0. -1.
         11   -1    0    0    0    0 -0.00000000000E+00 -0.00000000000E+00 -0.45593999997E+02  0.45594000000E+02  0.51100000000E-03 0.  1.
    9900012    2    1    2    0    0 -0.14571996211E+02 -0.27425108185E+02  0.72278026336E+01  0.59301940923E+02  0.49999994338E+02 0.  0.
        -12    1    1    2    0    0  0.14571996211E+02  0.27425108185E+02 -0.72278026336E+01  0.31886059077E+02  0.00000000000E+00 0.  1.
         11    1    3    3    0    0  0.30430064641E+01 -0.31424239548E+02 -0.13147410261E+01  0.31598595915E+02  0.51100000000E-03 0. -1.
        -11    1    3    3    0    0  0.19710559931E+01  0.34651917427E+01  0.69921377581E+01  0.80487642673E+01  0.51100000000E-03 0.  1.
        -12    1    3    3    0    0 -0.19586058668E+02  0.53393962058E+00  0.15504059016E+01  0.19654580741E+02  0.00000000000E+00 0.  1.
</event>
<event>
 7    1  0.1335379E-011  0.5930195E+02  0.7816164E-02  0.1266605E+00
        -11   -1    0    0    0    0  0.00000000000E+00  0.00000000000E+00  0.45593999997E+02  0.45594000000E+02  0.51100000000E-03 0.  1.
         11   -1    0    0    0    0 -0.00000000000E+00 -0.00000000000E+00 -0.45593999997E+02  0.45594000000E+02  0.51100000000E-03 0. -1.
    9900012    2    1    2    0    0 -0.81749443344E+01 -0.26043921896E+01 -0.30710054270E+02  0.59301952787E+02  0.50000015976E+02 0.  0.
        -12    1    1    2    0    0  0.81749443344E+01  0.26043921896E+01  0.30710054270E+02  0.31886047213E+02  0.00000000000E+00 0.  1.
         11    1    3    3    0    0 -0.76168343925E+01  0.72012500624E+01  0.42644951587E+01  0.11316363720E+02  0.51100000000E-03 0. -1.
        -11    1    3    3    0    0  0.66877254821E+01 -0.10689423140E+02 -0.36473068809E+00  0.12614375448E+02  0.51100000000E-03 0.  1.
        -12    1    3    3    0    0 -0.72458354240E+01  0.88378088830E+00 -0.34609818741E+02  0.35371213620E+02  0.00000000000E+00 0.  1.
</event>
<event>
 7    1  0.1335379E-011  0.5930192E+02  0.7816164E-02  0.1266605E+00
        -11   -1    0    0    0    0  0.00000000000E+00  0.00000000000E+00  0.45593999997E+02  0.45594000000E+02  0.51100000000E-03 0. -1.
         11   -1    0    0    0    0 -0.00000000000E+00 -0.00000000000E+00 -0.45593999997E+02  0.45594000000E+02  0.51100000000E-03 0.  1.
    9900012    2    1    2    0    0 -0.18099934908E+02 -0.21272217814E+02  0.15382044572E+02  0.59301918560E+02  0.49999953552E+02 0.  0.
        -12    1    1    2    0    0  0.18099934908E+02  0.21272217814E+02 -0.15382044572E+02  0.31886081440E+02  0.00000000000E+00 0.  1.
         11    1    3    3    0    0  0.46905480811E+01  0.43431844361E+01  0.10171170518E+02  0.12013209493E+02  0.51100000000E-03 0. -1.
        -11    1    3    3    0    0 -0.29748599315E+01  0.65680335652E+01  0.61582309164E+01  0.94822288944E+01  0.51100000000E-03 0.  1.
         12    1    3    3    0    0 -0.19815623058E+02 -0.32183435815E+02 -0.94735686203E+00  0.37806480173E+02  0.00000000000E+00 0. -1.
</event>
<event>
 7    1  0.1335379E-011  0.5930195E+02  0.7816164E-02  0.1266605E+00
        -11   -1    0    0    0    0  0.00000000000E+00  0.00000000000E+00  0.45593999997E+02  0.45594000000E+02  0.51100000000E-03 0. -1.
         11   -1    0    0    0    0 -0.00000000000E+00 -0.00000000000E+00 -0.45593999997E+02  0.45594000000E+02  0.51100000000E-03 0.  1.
    9900012    2    1    2    0    0 -0.20573080739E+02  0.22112315495E+02  0.10223196227E+02  0.59301954639E+02  0.50000019353E+02 0.  0.
        -12    1    1    2    0    0  0.20573080739E+02 -0.22112315495E+02 -0.10223196227E+02  0.31886045361E+02  0.00000000000E+00 0.  1.
         11    1    3    3    0    0 -0.36273955536E+00  0.60988200288E+01  0.16641357046E+02  0.17727434961E+02  0.51100000000E-03 0. -1.
        -11    1    3    3    0    0 -0.29938919997E+01 -0.87499055566E+01  0.34052449367E+01  0.98549444390E+01  0.51100000000E-03 0.  1.
        -12    1    3    3    0    0 -0.17216449184E+02  0.24763401022E+02 -0.98234057552E+01  0.31719575239E+02  0.00000000000E+00 0.  1.
</event>
<event>
 7    1  0.1335379E-011  0.5930197E+02  0.7816164E-02  0.1266605E+00
        -11   -1    0    0    0    0  0.00000000000E+00  0.00000000000E+00  0.45593999997E+02  0.45594000000E+02  0.51100000000E-03 0. -1.
         11   -1    0    0    0    0 -0.00000000000E+00 -0.00000000000E+00 -0.45593999997E+02  0.45594000000E+02  0.51100000000E-03 0.  1.
    9900012    2    1    2    0    0  0.22899376776E+02  0.12868075479E+02  0.18076227725E+02  0.59301971210E+02  0.50000049574E+02 0.  0.
        -12    1    1    2    0    0 -0.22899376776E+02 -0.12868075479E+02 -0.18076227725E+02  0.31886028790E+02  0.00000000000E+00 0.  1.
         11    1    3    3    0    0 -0.44455288388E+01 -0.47397095911E+01 -0.51484861966E+01  0.82906262757E+01  0.51100000000E-03 0. -1.
        -11    1    3    3    0    0  0.22901085097E+02  0.61673812004E+01 -0.11247482533E+01  0.23743659119E+02  0.51100000000E-03 0.  1.
         12    1    3    3    0    0  0.44438205176E+01  0.11440403870E+02  0.24349462175E+02  0.27267685815E+02  0.00000000000E+00 0. -1.
</event>
<event>
 7    1  0.1335379E-011  0.5930194E+02  0.7816164E-02  0.1266605E+00
        -11   -1    0    0    0    0  0.00000000000E+00  0.00000000000E+00  0.45593999997E+02  0.45594000000E+02  0.51100000000E-03 0.  1.
         11   -1    0    0    0    0 -0.00000000000E+00 -0.00000000000E+00 -0.45593999997E+02  0.45594000000E+02  0.51100000000E-03 0. -1.
    9900012    2    1    2    0    0  0.93235999197E+01 -0.28065037469E+02  0.11922459399E+02  0.59301939069E+02  0.49999990956E+02 0.  0.
        -12    1    1    2    0    0 -0.93235999197E+01  0.28065037469E+02 -0.11922459399E+02  0.31886060931E+02  0.00000000000E+00 0.  1.
         11    1    3    3    0    0  0.95215431648E+01 -0.22861142978E+02  0.22684321835E+01  0.24868402187E+02  0.51100000000E-03 0. -1.
        -11    1    3    3    0    0 -0.94530501528E+01 -0.14350106266E+02  0.12329341889E+02  0.21149429749E+02  0.51100000000E-03 0.  1.
         12    1    3    3    0    0  0.92551069077E+01  0.91462117749E+01 -0.26753146736E+01  0.13284107133E+02  0.00000000000E+00 0. -1.
</event>
<event>
 7    1  0.1335379E-011  0.5930186E+02  0.7816164E-02  0.1266605E+00
        -11   -1    0    0    0    0  0.00000000000E+00  0.00000000000E+00  0.45593999997E+02  0.45594000000E+02  0.51100000000E-03 0.  1.
         11   -1    0    0    0    0 -0.00000000000E+00 -0.00000000000E+00 -0.45593999997E+02  0.45594000000E+02  0.51100000000E-03 0. -1.
    9900012    2    1    2    0    0  0.19758031464E+02  0.23368613056E+02 -0.89584569573E+01  0.59301861404E+02  0.49999849314E+02 0.  0.
        -12    1    1    2    0    0 -0.19758031464E+02 -0.23368613056E+02  0.89584569573E+01  0.31886138596E+02  0.00000000000E+00 0.  1.
         11    1    3    3    0    0  0.12715342344E+02  0.31306492075E+01  0.12796970992E+02  0.18309652160E+02  0.51100000000E-03 0. -1.
        -11    1    3    3    0    0  0.91758280827E+01  0.53563138781E+01  0.38489804366E+01  0.11300467691E+02  0.51100000000E-03 0.  1.
         12    1    3    3    0    0 -0.21331389629E+01  0.14881649970E+02 -0.25604408386E+02  0.29691741553E+02  0.00000000000E+00 0. -1.
</event>
<event>
 7    1  0.1335379E-011  0.5930196E+02  0.7816164E-02  0.1266605E+00
        -11   -1    0    0    0    0  0.00000000000E+00  0.00000000000E+00  0.45593999997E+02  0.45594000000E+02  0.51100000000E-03 0. -1.
         11   -1    0    0    0    0 -0.00000000000E+00 -0.00000000000E+00 -0.45593999997E+02  0.45594000000E+02  0.51100000000E-03 0.  1.
    9900012    2    1    2    0    0  0.26037672849E+02  0.77139638872E+00 -0.18389232500E+02  0.59301963374E+02  0.50000035284E+02 0.  0.
        -12    1    1    2    0    0 -0.26037672849E+02 -0.77139638872E+00  0.18389232500E+02  0.31886036626E+02  0.00000000000E+00 0.  1.
         11    1    3    3    0    0  0.65811945748E+01  0.70178397341E+01 -0.15661456441E+02  0.18380517258E+02  0.51100000000E-03 0. -1.
        -11    1    3    3    0    0 -0.28169842805E+01  0.71481956939E+01 -0.11202264368E+02  0.13583918041E+02  0.51100000000E-03 0.  1.
        -12    1    3    3    0    0  0.22273462554E+02 -0.13394639039E+02  0.84744883093E+01  0.27337528075E+02  0.00000000000E+00 0.  1.
</event>
<event>
 7    1  0.1335379E-011  0.5930195E+02  0.7816164E-02  0.1266605E+00
        -11   -1    0    0    0    0  0.00000000000E+00  0.00000000000E+00  0.45593999997E+02  0.45594000000E+02  0.51100000000E-03 0.  1.
         11   -1    0    0    0    0 -0.00000000000E+00 -0.00000000000E+00 -0.45593999997E+02  0.45594000000E+02  0.51100000000E-03 0. -1.
    9900012    2    1    2    0    0  0.25790934957E+01  0.23400130121E+02 -0.21505871311E+02  0.59301947974E+02  0.50000007198E+02 0.  0.
        -12    1    1    2    0    0 -0.25790934957E+01 -0.23400130121E+02  0.21505871311E+02  0.31886052026E+02  0.00000000000E+00 0.  1.
         11    1    3    3    0    0  0.88732606763E+01 -0.10308421756E+02 -0.54266739672E+01  0.14644012590E+02  0.51100000000E-03 0. -1.
        -11    1    3    3    0    0  0.44912548358E+01  0.65175291510E-02 -0.66724451838E+01  0.80431919951E+01  0.51100000000E-03 0.  1.
        -12    1    3    3    0    0 -0.10785422016E+02  0.33702034348E+02 -0.94067521600E+01  0.36614743389E+02  0.00000000000E+00 0.  1.
</event>
<event>
 7    1  0.1335379E-011  0.5930195E+02  0.7816164E-02  0.1266605E+00
        -11   -1    0    0    0    0  0.00000000000E+00  0.00000000000E+00  0.45593999997E+02  0.45594000000E+02  0.51100000000E-03 0.  1.
         11   -1    0    0    0    0 -0.00000000000E+00 -0.00000000000E+00 -0.45593999997E+02  0.45594000000E+02  0.51100000000E-03 0. -1.
    9900012    2    1    2    0    0  0.26235902707E+02  0.72675758271E+01  0.16600603306E+02  0.59301948514E+02  0.50000008181E+02 0.  0.
        -12    1    1    2    0    0 -0.26235902707E+02 -0.72675758271E+01 -0.16600603306E+02  0.31886051486E+02  0.00000000000E+00 0.  1.
         11    1    3    3    0    0 -0.47149367589E+01  0.26544523787E+01 -0.12916443299E+01  0.55628312402E+01  0.51100000000E-03 0. -1.
        -11    1    3    3    0    0  0.13722769661E+02  0.77589786108E+01  0.28994913964E+02  0.33003351228E+02  0.51100000000E-03 0.  1.
        -12    1    3    3    0    0  0.17228069805E+02 -0.31458551624E+01 -0.11102666328E+02  0.20735766045E+02  0.00000000000E+00 0.  1.
</event>
<event>
 7    1  0.1335379E-011  0.5930194E+02  0.7816164E-02  0.1266605E+00
        -11   -1    0    0    0    0  0.00000000000E+00  0.00000000000E+00  0.45593999997E+02  0.45594000000E+02  0.51100000000E-03 0.  1.
         11   -1    0    0    0    0 -0.00000000000E+00 -0.00000000000E+00 -0.45593999997E+02  0.45594000000E+02  0.51100000000E-03 0. -1.
    9900012    2    1    2    0    0  0.47229380005E+00  0.80282396492E+01 -0.30855226741E+02  0.59301941753E+02  0.49999995851E+02 0.  0.
        -12    1    1    2    0    0 -0.47229380005E+00 -0.80282396492E+01  0.30855226741E+02  0.31886058247E+02  0.00000000000E+00 0.  1.
         11    1    3    3    0    0 -0.38675874631E+01 -0.13066098015E+02 -0.10532551197E+02  0.17222537127E+02  0.51100000000E-03 0. -1.
        -11    1    3    3    0    0 -0.59520813693E+01 -0.55861177377E+01 -0.33373033336E+01  0.88187061300E+01  0.51100000000E-03 0.  1.
        -12    1    3    3    0    0  0.10291962632E+02  0.26680455402E+02 -0.16985372210E+02  0.33260698495E+02  0.00000000000E+00 0.  1.
</event>
<event>
 7    1  0.1335379E-011  0.5930195E+02  0.7816164E-02  0.1266605E+00
        -11   -1    0    0    0    0  0.00000000000E+00  0.00000000000E+00  0.45593999997E+02  0.45594000000E+02  0.51100000000E-03 0.  1.
         11   -1    0    0    0    0 -0.00000000000E+00 -0.00000000000E+00 -0.45593999997E+02  0.45594000000E+02  0.51100000000E-03 0. -1.
    9900012    2    1    2    0    0  0.53849308276E+00 -0.91732586719E+01 -0.30533280503E+02  0.59301954969E+02  0.50000019954E+02 0.  0.
        -12    1    1    2    0    0 -0.53849308276E+00  0.91732586719E+01  0.30533280503E+02  0.31886045031E+02  0.00000000000E+00 0.  1.
         11    1    3    3    0    0  0.43859268946E+01  0.23803451609E+00  0.70279627700E+00  0.44482511197E+01  0.51100000000E-03 0. -1.
        -11    1    3    3    0    0  0.18918016661E+02 -0.62112592608E+01 -0.61788258345E+01  0.20848236975E+02  0.51100000000E-03 0.  1.
         12    1    3    3    0    0 -0.22765450473E+02 -0.32000339271E+01 -0.25057250945E+02  0.34005466874E+02  0.00000000000E+00 0. -1.
</event>
<event>
 7    1  0.1335379E-011  0.5930193E+02  0.7816164E-02  0.1266605E+00
        -11   -1    0    0    0    0  0.00000000000E+00  0.00000000000E+00  0.45593999997E+02  0.45594000000E+02  0.51100000000E-03 0.  1.
         11   -1    0    0    0    0 -0.00000000000E+00 -0.00000000000E+00 -0.45593999997E+02  0.45594000000E+02  0.51100000000E-03 0. -1.
    9900012    2    1    2    0    0  0.32306504282E+01 -0.20660288886E+02 -0.24071494360E+02  0.59301929691E+02  0.49999973854E+02 0.  0.
        -12    1    1    2    0    0 -0.32306504282E+01  0.20660288886E+02  0.24071494360E+02  0.31886070309E+02  0.00000000000E+00 0.  1.
         11    1    3    3    0    0 -0.22861970759E+02 -0.64198083619E+01 -0.83077845870E+01  0.25157562111E+02  0.51100000000E-03 0. -1.
        -11    1    3    3    0    0  0.60240912831E+00 -0.13152574585E+01 -0.18756899811E+01  0.23687575026E+01  0.51100000000E-03 0.  1.
        -12    1    3    3    0    0  0.25490212059E+02 -0.12925223065E+02 -0.13888019791E+02  0.31775610078E+02  0.00000000000E+00 0.  1.
</event>
<event>
 7    1  0.1335379E-011  0.5930195E+02  0.7816164E-02  0.1266605E+00
        -11   -1    0    0    0    0  0.00000000000E+00  0.00000000000E+00  0.45593999997E+02  0.45594000000E+02  0.51100000000E-03 0.  1.
         11   -1    0    0    0    0 -0.00000000000E+00 -0.00000000000E+00 -0.45593999997E+02  0.45594000000E+02  0.51100000000E-03 0. -1.
    9900012    2    1    2    0    0  0.28516183864E+02  0.13279243895E+02 -0.52162663739E+01  0.59301945125E+02  0.50000002001E+02 0.  0.
        -12    1    1    2    0    0 -0.28516183864E+02 -0.13279243895E+02  0.52162663739E+01  0.31886054875E+02  0.00000000000E+00 0.  1.
         11    1    3    3    0    0  0.17883481963E+02 -0.15085226608E+02 -0.14016687317E+01  0.23438166832E+02  0.51100000000E-03 0. -1.
        -11    1    3    3    0    0  0.53108401701E+01 -0.93298702350E+00 -0.27854213697E+01  0.60691070650E+01  0.51100000000E-03 0.  1.
         12    1    3    3    0    0  0.53218617306E+01  0.29297457526E+02 -0.10291762724E+01  0.29794671228E+02  0.00000000000E+00 0. -1.
</event>
<event>
 7    1  0.1335379E-011  0.5930198E+02  0.7816164E-02  0.1266605E+00
        -11   -1    0    0    0    0  0.00000000000E+00  0.00000000000E+00  0.45593999997E+02  0.45594000000E+02  0.51100000000E-03 0. -1.
         11   -1    0    0    0    0 -0.00000000000E+00 -0.00000000000E+00 -0.45593999997E+02  0.45594000000E+02  0.51100000000E-03 0.  1.
    9900012    2    1    2    0    0  0.29884170423E+02  0.45716418369E+01  0.10136805641E+02  0.59301978304E+02  0.50000062512E+02 0.  0.
        -12    1    1    2    0    0 -0.29884170423E+02 -0.45716418369E+01 -0.10136805641E+02  0.31886021696E+02  0.00000000000E+00 0.  1.
         11    1    3    3    0    0  0.17831133257E+02 -0.84546354181E+00  0.96570448148E+01  0.20295877331E+02  0.51100000000E-03 0. -1.
        -11    1    3    3    0    0  0.23653766293E+02 -0.26995614168E+01 -0.40319694272E+01  0.24146326210E+02  0.51100000000E-03 0.  1.
        -12    1    3    3    0    0 -0.11600729127E+02  0.81166667955E+01  0.45117302539E+01  0.14859774764E+02  0.00000000000E+00 0.  1.
</event>
<event>
 7    1  0.1335379E-011  0.5930193E+02  0.7816164E-02  0.1266605E+00
        -11   -1    0    0    0    0  0.00000000000E+00  0.00000000000E+00  0.45593999997E+02  0.45594000000E+02  0.51100000000E-03 0. -1.
         11   -1    0    0    0    0 -0.00000000000E+00 -0.00000000000E+00 -0.45593999997E+02  0.45594000000E+02  0.51100000000E-03 0.  1.
    9900012    2    1    2    0    0 -0.10038695500E+02 -0.28804665360E+02 -0.92864083458E+01  0.59301928844E+02  0.49999972308E+02 0.  0.
        -12    1    1    2    0    0  0.10038695500E+02  0.28804665360E+02  0.92864083458E+01  0.31886071156E+02  0.00000000000E+00 0.  1.
         11    1    3    3    0    0  0.14564956839E+02 -0.18096727122E+02  0.80542345298E+01  0.24586585659E+02  0.51100000000E-03 0. -1.
        -11    1    3    3    0    0 -0.21185241933E+00  0.54089436570E+00  0.16960881806E+01  0.17928088409E+01  0.51100000000E-03 0.  1.
        -12    1    3    3    0    0 -0.24391799920E+02 -0.11248832604E+02 -0.19036731056E+02  0.32922534344E+02  0.00000000000E+00 0.  1.
</event>
<event>
 7    1  0.1335379E-011  0.5930192E+02  0.7816164E-02  0.1266605E+00
        -11   -1    0    0    0    0  0.00000000000E+00  0.00000000000E+00  0.45593999997E+02  0.45594000000E+02  0.51100000000E-03 0.  1.
         11   -1    0    0    0    0 -0.00000000000E+00 -0.00000000000E+00 -0.45593999997E+02  0.45594000000E+02  0.51100000000E-03 0. -1.
    9900012    2    1    2    0    0 -0.20139722511E+02 -0.23582253552E+02 -0.74155771781E+01  0.59301923254E+02  0.49999962113E+02 0.  0.
        -12    1    1    2    0    0  0.20139722511E+02  0.23582253552E+02  0.74155771781E+01  0.31886076746E+02  0.00000000000E+00 0.  1.
         11    1    3    3    0    0  0.35445703029E+01 -0.20424760511E+02 -0.92305778235E+01  0.22692253915E+02  0.51100000000E-03 0. -1.
        -11    1    3    3    0    0  0.10786805524E+01 -0.55882512443E+01 -0.80370813477E+01  0.98481866632E+01  0.51100000000E-03 0.  1.
        -12    1    3    3    0    0 -0.24762973366E+02  0.24307582031E+01  0.98520819931E+01  0.26761482675E+02  0.00000000000E+00 0.  1.
</event>
<event>
 7    1  0.1335379E-011  0.5930199E+02  0.7816164E-02  0.1266605E+00
        -11   -1    0    0    0    0  0.00000000000E+00  0.00000000000E+00  0.45593999997E+02  0.45594000000E+02  0.51100000000E-03 0. -1.
         11   -1    0    0    0    0 -0.00000000000E+00 -0.00000000000E+00 -0.45593999997E+02  0.45594000000E+02  0.51100000000E-03 0.  1.
    9900012    2    1    2    0    0  0.26605092881E+02  0.29796887078E+01  0.17320742817E+02  0.59301989842E+02  0.50000083555E+02 0.  0.
        -12    1    1    2    0    0 -0.26605092881E+02 -0.29796887078E+01 -0.17320742817E+02  0.31886010158E+02  0.00000000000E+00 0.  1.
         11    1    3    3    0    0 -0.56031846248E+01 -0.71860380957E+01 -0.24829379743E+01  0.94445647172E+01  0.51100000000E-03 0. -1.
        -11    1    3    3    0    0  0.28170040945E+02 -0.15027745188E+01  0.21201445982E+01  0.28289654496E+02  0.51100000000E-03 0.  1.
         12    1    3    3    0    0  0.40382365612E+01  0.11668501322E+02  0.17683536193E+02  0.21567770630E+02  0.00000000000E+00 0. -1.
</event>
<event>
 7    1  0.1335379E-011  0.5930194E+02  0.7816164E-02  0.1266605E+00
        -11   -1    0    0    0    0  0.00000000000E+00  0.00000000000E+00  0.45593999997E+02  0.45594000000E+02  0.51100000000E-03 0.  1.
         11   -1    0    0    0    0 -0.00000000000E+00 -0.00000000000E+00 -0.45593999997E+02  0.45594000000E+02  0.51100000000E-03 0. -1.
    9900012    2    1    2    0    0 -0.23789075817E+02 -0.20508667432E+02 -0.54949960264E+01  0.59301944280E+02  0.50000000460E+02 0.  0.
        -12    1    1    2    0    0  0.23789075817E+02  0.20508667432E+02  0.54949960264E+01  0.31886055720E+02  0.00000000000E+00 0.  1.
         11    1    3    3    0    0 -0.17599320706E+02  0.91547713460E+00 -0.16480030331E+02  0.24128107835E+02  0.51100000000E-03 0. -1.
        -11    1    3    3    0    0 -0.95037061367E+01 -0.97705765465E+00  0.10853693422E+02  0.14459520502E+02  0.51100000000E-03 0.  1.
        -12    1    3    3    0    0  0.33139510260E+01 -0.20447086912E+02  0.13134088294E+00  0.20714315943E+02  0.00000000000E+00 0.  1.
</event>
<event>
 7    1  0.1335379E-011  0.5930194E+02  0.7816164E-02  0.1266605E+00
        -11   -1    0    0    0    0  0.00000000000E+00  0.00000000000E+00  0.45593999997E+02  0.45594000000E+02  0.51100000000E-03 0. -1.
         11   -1    0    0    0    0 -0.00000000000E+00 -0.00000000000E+00 -0.45593999997E+02  0.45594000000E+02  0.51100000000E-03 0.  1.
    9900012    2    1    2    0    0 -0.62178715335E+01  0.11705380523E+02  0.29000743809E+02  0.59301937198E+02  0.49999987543E+02 0.  0.
        -12    1    1    2    0    0  0.62178715335E+01 -0.11705380523E+02 -0.29000743809E+02  0.31886062802E+02  0.00000000000E+00 0.  1.
         11    1    3    3    0    0 -0.20119831694E+01  0.13472931934E+02  0.79488413819E+00  0.13645505202E+02  0.51100000000E-03 0. -1.
        -11    1    3    3    0    0 -0.11701689997E+02 -0.36728433945E+01 -0.37127147104E+01  0.12814194402E+02  0.51100000000E-03 0.  1.
         12    1    3    3    0    0  0.74958016329E+01  0.19052919839E+01  0.31918574381E+02  0.32842237594E+02  0.00000000000E+00 0. -1.
</event>
<event>
 7    1  0.1335379E-011  0.5930192E+02  0.7816164E-02  0.1266605E+00
        -11   -1    0    0    0    0  0.00000000000E+00  0.00000000000E+00  0.45593999997E+02  0.45594000000E+02  0.51100000000E-03 0. -1.
         11   -1    0    0    0    0 -0.00000000000E+00 -0.00000000000E+00 -0.45593999997E+02  0.45594000000E+02  0.51100000000E-03 0.  1.
    9900012    2    1    2    0    0 -0.29937103515E+02 -0.85274457368E+01  0.69119307699E+01  0.59301917070E+02  0.49999950835E+02 0.  0.
        -12    1    1    2    0    0  0.29937103515E+02  0.85274457368E+01 -0.69119307699E+01  0.31886082930E+02  0.00000000000E+00 0.  1.
         11    1    3    3    0    0 -0.24336304236E+01  0.54180880845E+01 -0.12052935039E+02  0.13436944550E+02  0.51100000000E-03 0. -1.
        -11    1    3    3    0    0  0.18684819870E+01  0.26800177457E+01 -0.39080436153E+01  0.50937731804E+01  0.51100000000E-03 0.  1.
         12    1    3    3    0    0 -0.29371955078E+02 -0.16625551567E+02  0.22872909424E+02  0.40771199339E+02  0.00000000000E+00 0. -1.
</event>
<event>
 7    1  0.1335379E-011  0.5930185E+02  0.7816164E-02  0.1266605E+00
        -11   -1    0    0    0    0  0.00000000000E+00  0.00000000000E+00  0.45593999997E+02  0.45594000000E+02  0.51100000000E-03 0.  1.
         11   -1    0    0    0    0 -0.00000000000E+00 -0.00000000000E+00 -0.45593999997E+02  0.45594000000E+02  0.51100000000E-03 0. -1.
    9900012    2    1    2    0    0 -0.47562295547E+01  0.20772790980E+02 -0.23719107338E+02  0.59301849126E+02  0.49999826921E+02 0.  0.
        -12    1    1    2    0    0  0.47562295547E+01 -0.20772790980E+02  0.23719107338E+02  0.31886150874E+02  0.00000000000E+00 0.  1.
         11    1    3    3    0    0  0.53261802639E+01  0.78708260893E+01 -0.25738936302E+02  0.27437400419E+02  0.51100000000E-03 0. -1.
        -11    1    3    3    0    0  0.48480804853E+01 -0.54360924343E+01 -0.26673350687E+01  0.77569105948E+01  0.51100000000E-03 0.  1.
        -12    1    3    3    0    0 -0.14930490304E+02  0.18338057325E+02  0.46871640325E+01  0.24107538112E+02  0.00000000000E+00 0.  1.
</event>
<event>
 7    1  0.1335379E-011  0.5930195E+02  0.7816164E-02  0.1266605E+00
        -11   -1    0    0    0    0  0.00000000000E+00  0.00000000000E+00  0.45593999997E+02  0.45594000000E+02  0.51100000000E-03 0.  1.
         11   -1    0    0    0    0 -0.00000000000E+00 -0.00000000000E+00 -0.45593999997E+02  0.45594000000E+02  0.51100000000E-03 0. -1.
    9900012    2    1    2    0    0  0.87110077693E+01 -0.72183795559E+01 -0.29811634201E+02  0.59301949861E+02  0.50000010638E+02 0.  0.
        -12    1    1    2    0    0 -0.87110077693E+01  0.72183795559E+01  0.29811634201E+02  0.31886050139E+02  0.00000000000E+00 0.  1.
         11    1    3    3    0    0  0.48650228846E+01 -0.26182009558E+02 -0.17778364070E+02  0.32019311383E+02  0.51100000000E-03 0. -1.
        -11    1    3    3    0    0 -0.20886379319E+01 -0.17616928208E+01 -0.25259051472E+01  0.37210438158E+01  0.51100000000E-03 0.  1.
        -12    1    3    3    0    0  0.59346228166E+01  0.20725322823E+02 -0.95073649832E+01  0.23561594662E+02  0.00000000000E+00 0.  1.
</event>
<event>
 7    1  0.1335379E-011  0.5930194E+02  0.7816164E-02  0.1266605E+00
        -11   -1    0    0    0    0  0.00000000000E+00  0.00000000000E+00  0.45593999997E+02  0.45594000000E+02  0.51100000000E-03 0.  1.
         11   -1    0    0    0    0 -0.00000000000E+00 -0.00000000000E+00 -0.45593999997E+02  0.45594000000E+02  0.51100000000E-03 0. -1.
    9900012    2    1    2    0    0  0.24758456146E+02  0.17744748771E+02 -0.94267506336E+01  0.59301938983E+02  0.49999990799E+02 0.  0.
        -12    1    1    2    0    0 -0.24758456146E+02 -0.17744748771E+02  0.94267506336E+01  0.31886061017E+02  0.00000000000E+00 0.  1.
         11    1    3    3    0    0  0.22501588606E+02  0.13867386609E+02 -0.11980484259E+02  0.29019957004E+02  0.51100000000E-03 0. -1.
        -11    1    3    3    0    0  0.32505425051E+01  0.16632419591E+02 -0.10823564988E+01  0.16981604867E+02  0.51100000000E-03 0.  1.
        -12    1    3    3    0    0 -0.99367496521E+00 -0.12755057428E+02  0.36360901243E+01  0.13300377112E+02  0.00000000000E+00 0.  1.
</event>
<event>
 7    1  0.1335379E-011  0.5930194E+02  0.7816164E-02  0.1266605E+00
        -11   -1    0    0    0    0  0.00000000000E+00  0.00000000000E+00  0.45593999997E+02  0.45594000000E+02  0.51100000000E-03 0.  1.
         11   -1    0    0    0    0 -0.00000000000E+00 -0.00000000000E+00 -0.45593999997E+02  0.45594000000E+02  0.51100000000E-03 0. -1.
    9900012    2    1    2    0    0 -0.11508813158E+02 -0.11790143987E+02 -0.27299459771E+02  0.59301940674E+02  0.49999993884E+02 0.  0.
        -12    1    1    2    0    0  0.11508813158E+02  0.11790143987E+02  0.27299459771E+02  0.31886059326E+02  0.00000000000E+00 0.  1.
         11    1    3    3    0    0 -0.47706032205E+01 -0.18532079507E+02 -0.31745312139E+01  0.19397790458E+02  0.51100000000E-03 0. -1.
        -11    1    3    3    0    0 -0.15663701421E+02 -0.91444342711E+00 -0.33682576658E+01  0.16047831908E+02  0.51100000000E-03 0.  1.
         12    1    3    3    0    0  0.89254914828E+01  0.76563789469E+01 -0.20756670891E+02  0.23856318309E+02  0.00000000000E+00 0. -1.
</event>
<event>
 7    1  0.1335379E-011  0.5930194E+02  0.7816164E-02  0.1266605E+00
        -11   -1    0    0    0    0  0.00000000000E+00  0.00000000000E+00  0.45593999997E+02  0.45594000000E+02  0.51100000000E-03 0. -1.
         11   -1    0    0    0    0 -0.00000000000E+00 -0.00000000000E+00 -0.45593999997E+02  0.45594000000E+02  0.51100000000E-03 0.  1.
    9900012    2    1    2    0    0  0.73253594722E+01 -0.27925134060E+02  0.13536858175E+02  0.59301944538E+02  0.50000000931E+02 0.  0.
        -12    1    1    2    0    0 -0.73253594722E+01  0.27925134060E+02 -0.13536858175E+02  0.31886055462E+02  0.00000000000E+00 0.  1.
         11    1    3    3    0    0  0.10304456930E+02 -0.33111253261E+02  0.91572658197E+01  0.35866313481E+02  0.51100000000E-03 0. -1.
        -11    1    3    3    0    0  0.68725665807E+00 -0.44169505873E+01  0.10542155097E+02  0.11450712142E+02  0.51100000000E-03 0.  1.
        -12    1    3    3    0    0 -0.36663541163E+01  0.96030697887E+01 -0.61625627412E+01  0.11984918916E+02  0.00000000000E+00 0.  1.
</event>
<event>
 7    1  0.1335379E-011  0.5930196E+02  0.7816164E-02  0.1266605E+00
        -11   -1    0    0    0    0  0.00000000000E+00  0.00000000000E+00  0.45593999997E+02  0.45594000000E+02  0.51100000000E-03 0.  1.
         11   -1    0    0    0    0 -0.00000000000E+00 -0.00000000000E+00 -0.45593999997E+02  0.45594000000E+02  0.51100000000E-03 0. -1.
    9900012    2    1    2    0    0  0.63526102644E+01  0.30897744620E+02  0.46576122889E+01  0.59301958665E+02  0.50000026695E+02 0.  0.
        -12    1    1    2    0    0 -0.63526102644E+01 -0.30897744620E+02 -0.46576122889E+01  0.31886041335E+02  0.00000000000E+00 0.  1.
         11    1    3    3    0    0 -0.12340557153E+02  0.77346284596E+01 -0.72857706019E+01  0.16284848227E+02  0.51100000000E-03 0. -1.
        -11    1    3    3    0    0 -0.68864294982E+01  0.30170222350E+01 -0.17093453912E+01  0.77102007968E+01  0.51100000000E-03 0.  1.
        -12    1    3    3    0    0  0.25579596916E+02  0.20146093926E+02  0.13652728282E+02  0.35306909641E+02  0.00000000000E+00 0.  1.
</event>
<event>
 7    1  0.1335379E-011  0.5930194E+02  0.7816164E-02  0.1266605E+00
        -11   -1    0    0    0    0  0.00000000000E+00  0.00000000000E+00  0.45593999997E+02  0.45594000000E+02  0.51100000000E-03 0. -1.
         11   -1    0    0    0    0 -0.00000000000E+00 -0.00000000000E+00 -0.45593999997E+02  0.45594000000E+02  0.51100000000E-03 0.  1.
    9900012    2    1    2    0    0  0.13999184857E+02  0.16804244001E+02  0.23202612241E+02  0.59301937090E+02  0.49999987347E+02 0.  0.
        -12    1    1    2    0    0 -0.13999184857E+02 -0.16804244001E+02 -0.23202612241E+02  0.31886062910E+02  0.00000000000E+00 0.  1.
         11    1    3    3    0    0  0.13713605061E+02  0.10177725942E+02  0.18069705686E+02  0.24862890680E+02  0.51100000000E-03 0. -1.
        -11    1    3    3    0    0  0.44260214077E+01 -0.62464494411E+01  0.15574578304E+02  0.17354402489E+02  0.51100000000E-03 0.  1.
        -12    1    3    3    0    0 -0.41404416115E+01  0.12872967499E+02 -0.10441671749E+02  0.17084643921E+02  0.00000000000E+00 0.  1.
</event>
<event>
 7    1  0.1335379E-011  0.5930192E+02  0.7816164E-02  0.1266605E+00
        -11   -1    0    0    0    0  0.00000000000E+00  0.00000000000E+00  0.45593999997E+02  0.45594000000E+02  0.51100000000E-03 0.  1.
         11   -1    0    0    0    0 -0.00000000000E+00 -0.00000000000E+00 -0.45593999997E+02  0.45594000000E+02  0.51100000000E-03 0. -1.
    9900012    2    1    2    0    0 -0.17235714932E+02  0.26488296007E+02 -0.42452479407E+01  0.59301924283E+02  0.49999963990E+02 0.  0.
        -12    1    1    2    0    0  0.17235714932E+02 -0.26488296007E+02  0.42452479407E+01  0.31886075717E+02  0.00000000000E+00 0.  1.
         11    1    3    3    0    0  0.97468506959E+01  0.25470237123E+02 -0.17456467021E+00  0.27272047057E+02  0.51100000000E-03 0. -1.
        -11    1    3    3    0    0 -0.21542205232E+01 -0.47583700894E+01 -0.39323548119E+01  0.65380552611E+01  0.51100000000E-03 0.  1.
        -12    1    3    3    0    0 -0.24828345105E+02  0.57764289725E+01 -0.13832845858E+00  0.25491821965E+02  0.00000000000E+00 0.  1.
</event>
<event>
 7    1  0.1335379E-011  0.5930198E+02  0.7816164E-02  0.1266605E+00
        -11   -1    0    0    0    0  0.00000000000E+00  0.00000000000E+00  0.45593999997E+02  0.45594000000E+02  0.51100000000E-03 0.  1.
         11   -1    0    0    0    0 -0.00000000000E+00 -0.00000000000E+00 -0.45593999997E+02  0.45594000000E+02  0.51100000000E-03 0. -1.
    9900012    2    1    2    0    0 -0.30303185278E+02  0.76015110162E+01 -0.63759065480E+01  0.59301981245E+02  0.50000067875E+02 0.  0.
        -12    1    1    2    0    0  0.30303185278E+02 -0.76015110162E+01  0.63759065480E+01  0.31886018755E+02  0.00000000000E+00 0.  1.
         11    1    3    3    0    0  0.35272164689E+01  0.44299502449E+01  0.88867636001E+01  0.10537565313E+02  0.51100000000E-03 0. -1.
        -11    1    3    3    0    0 -0.82578219269E+01 -0.13254688965E+02 -0.25691090982E+01  0.15826519654E+02  0.51100000000E-03 0.  1.
         12    1    3    3    0    0 -0.25572579820E+02  0.16426249736E+02 -0.12693561050E+02  0.32937896278E+02  0.00000000000E+00 0. -1.
</event>
<event>
 7    1  0.1335379E-011  0.5930198E+02  0.7816164E-02  0.1266605E+00
        -11   -1    0    0    0    0  0.00000000000E+00  0.00000000000E+00  0.45593999997E+02  0.45594000000E+02  0.51100000000E-03 0. -1.
         11   -1    0    0    0    0 -0.00000000000E+00 -0.00000000000E+00 -0.45593999997E+02  0.45594000000E+02  0.51100000000E-03 0.  1.
    9900012    2    1    2    0    0 -0.23596451352E+02  0.17848451717E+02  0.11889433486E+02  0.59301978396E+02  0.50000062680E+02 0.  0.
        -12    1    1    2    0    0  0.23596451352E+02 -0.17848451717E+02 -0.11889433486E+02  0.31886021604E+02  0.00000000000E+00 0.  1.
         11    1    3    3    0    0  0.37630654615E+00 -0.18459973489E+00  0.12537007647E+00  0.43749468111E+00  0.51100000000E-03 0. -1.
        -11    1    3    3    0    0  0.48840201452E+00 -0.30427576054E+01 -0.15991794293E+02  0.16286018401E+02  0.51100000000E-03 0.  1.
         12    1    3    3    0    0 -0.24461159913E+02  0.21075809057E+02  0.27755857703E+02  0.42578465314E+02  0.00000000000E+00 0. -1.
</event>
<event>
 7    1  0.1335379E-011  0.5930198E+02  0.7816164E-02  0.1266605E+00
        -11   -1    0    0    0    0  0.00000000000E+00  0.00000000000E+00  0.45593999997E+02  0.45594000000E+02  0.51100000000E-03 0.  1.
         11   -1    0    0    0    0 -0.00000000000E+00 -0.00000000000E+00 -0.45593999997E+02  0.45594000000E+02  0.51100000000E-03 0. -1.
    9900012    2    1    2    0    0 -0.30941644624E+02 -0.73910635298E+01  0.21691731245E+01  0.59301976350E+02  0.50000058949E+02 0.  0.
        -12    1    1    2    0    0  0.30941644624E+02  0.73910635298E+01 -0.21691731245E+01  0.31886023650E+02  0.00000000000E+00 0.  1.
         11    1    3    3    0    0 -0.10048948432E+02  0.88420989504E+00 -0.38522247693E+01  0.10798278921E+02  0.51100000000E-03 0. -1.
        -11    1    3    3    0    0 -0.26015230446E+02  0.26167794528E+01  0.17825762324E+02  0.31644866133E+02  0.51100000000E-03 0.  1.
         12    1    3    3    0    0  0.51225342542E+01 -0.10892052878E+02 -0.11804364430E+02  0.16858831296E+02  0.00000000000E+00 0. -1.
</event>
<event>
 7    1  0.1457855E-011  0.5930196E+02  0.7816164E-02  0.1266605E+00
        -11   -1    0    0    0    0  0.00000000000E+00  0.00000000000E+00  0.45593999997E+02  0.45594000000E+02  0.51100000000E-03 0. -1.
         11   -1    0    0    0    0 -0.00000000000E+00 -0.00000000000E+00 -0.45593999997E+02  0.45594000000E+02  0.51100000000E-03 0.  1.
    9900012    2    1    2    0    0  0.11221906735E+02 -0.11428998456E+02  0.27571115627E+02  0.59301958957E+02  0.50000027228E+02 0.  0.
        -12    1    1    2    0    0 -0.11221906735E+02  0.11428998456E+02 -0.27571115627E+02  0.31886041043E+02  0.00000000000E+00 0.  1.
         11    1    3    3    0    0  0.80573374932E+01  0.97388038617E+01  0.11658887094E+01  0.12693474106E+02  0.51100000000E-03 0. -1.
        -11    1    3    3    0    0 -0.53718322215E+01 -0.73687427805E+01 -0.56168902559E+01  0.10710014379E+02  0.51100000000E-03 0.  1.
         12    1    3    3    0    0  0.85364014631E+01 -0.13799059537E+02  0.32022117173E+02  0.35898470473E+02  0.00000000000E+00 0. -1.
</event>
<event>
 7    1  0.1335379E-011  0.5930194E+02  0.7816164E-02  0.1266605E+00
        -11   -1    0    0    0    0  0.00000000000E+00  0.00000000000E+00  0.45593999997E+02  0.45594000000E+02  0.51100000000E-03 0.  1.
         11   -1    0    0    0    0 -0.00000000000E+00 -0.00000000000E+00 -0.45593999997E+02  0.45594000000E+02  0.51100000000E-03 0. -1.
    9900012    2    1    2    0    0  0.45013526001E+00  0.30607613542E+02  0.89270475205E+01  0.59301940257E+02  0.49999993123E+02 0.  0.
        -12    1    1    2    0    0 -0.45013526001E+00 -0.30607613542E+02 -0.89270475205E+01  0.31886059743E+02  0.00000000000E+00 0.  1.
         11    1    3    3    0    0  0.12982106786E+01  0.12090473777E+02  0.14507247136E+02  0.18929477723E+02  0.51100000000E-03 0. -1.
        -11    1    3    3    0    0 -0.29434503407E+01 -0.71680284829E+01  0.80885990639E+01  0.11201337747E+02  0.51100000000E-03 0.  1.
         12    1    3    3    0    0  0.20953749222E+01  0.25685168249E+02 -0.13668798680E+02  0.29171124787E+02  0.00000000000E+00 0. -1.
</event>
<event>
 7    1  0.1335379E-011  0.5930194E+02  0.7816164E-02  0.1266605E+00
        -11   -1    0    0    0    0  0.00000000000E+00  0.00000000000E+00  0.45593999997E+02  0.45594000000E+02  0.51100000000E-03 0. -1.
         11   -1    0    0    0    0 -0.00000000000E+00 -0.00000000000E+00 -0.45593999997E+02  0.45594000000E+02  0.51100000000E-03 0.  1.
    9900012    2    1    2    0    0  0.22072958396E+02 -0.21960710484E+02  0.68725761446E+01  0.59301943484E+02  0.49999999008E+02 0.  0.
        -12    1    1    2    0    0 -0.22072958396E+02  0.21960710484E+02 -0.68725761446E+01  0.31886056516E+02  0.00000000000E+00 0.  1.
         11    1    3    3    0    0 -0.35142562107E+01 -0.68923726069E+01 -0.68100957633E+01  0.10306900671E+02  0.51100000000E-03 0. -1.
        -11    1    3    3    0    0  0.22766528973E+02 -0.67753114194E+01 -0.84345279790E+01  0.25206367228E+02  0.51100000000E-03 0.  1.
         12    1    3    3    0    0  0.28206856334E+01 -0.82930264574E+01  0.22117199887E+02  0.23788675585E+02  0.00000000000E+00 0. -1.
</event>
<event>
 7    1  0.1335379E-011  0.5930186E+02  0.7816164E-02  0.1266605E+00
        -11   -1    0    0    0    0  0.00000000000E+00  0.00000000000E+00  0.45593999997E+02  0.45594000000E+02  0.51100000000E-03 0.  1.
         11   -1    0    0    0    0 -0.00000000000E+00 -0.00000000000E+00 -0.45593999997E+02  0.45594000000E+02  0.51100000000E-03 0. -1.
    9900012    2    1    2    0    0 -0.14744138879E+02  0.23587481325E+02 -0.15587403449E+02  0.59301857981E+02  0.49999843072E+02 0.  0.
        -12    1    1    2    0    0  0.14744138879E+02 -0.23587481325E+02  0.15587403449E+02  0.31886142019E+02  0.00000000000E+00 0.  1.
         11    1    3    3    0    0 -0.24587668757E+02  0.72701679431E+01 -0.86059860769E+01  0.27045735217E+02  0.51100000000E-03 0. -1.
        -11    1    3    3    0    0  0.59420951871E+01 -0.62030189747E+01 -0.11357514060E+01  0.86646333524E+01  0.51100000000E-03 0.  1.
        -12    1    3    3    0    0  0.39014346903E+01  0.22520332357E+02 -0.58456659661E+01  0.23591489412E+02  0.00000000000E+00 0.  1.
</event>
<event>
 7    1  0.1335379E-011  0.5930185E+02  0.7816164E-02  0.1266605E+00
        -11   -1    0    0    0    0  0.00000000000E+00  0.00000000000E+00  0.45593999997E+02  0.45594000000E+02  0.51100000000E-03 0.  1.
         11   -1    0    0    0    0 -0.00000000000E+00 -0.00000000000E+00 -0.45593999997E+02  0.45594000000E+02  0.51100000000E-03 0. -1.
    9900012    2    1    2    0    0  0.21372038172E+02  0.22313976652E+00 -0.23662478631E+02  0.59301847802E+02  0.49999824508E+02 0.  0.
        -12    1    1    2    0    0 -0.21372038172E+02 -0.22313976652E+00  0.23662478631E+02  0.31886152198E+02  0.00000000000E+00 0.  1.
         11    1    3    3    0    0  0.17966091076E+02 -0.23224927375E+02 -0.79032682499E+01  0.30407882685E+02  0.51100000000E-03 0. -1.
        -11    1    3    3    0    0 -0.27570315726E+00 -0.34251253413E-02 -0.77276048111E+00  0.82047729079E+00  0.51100000000E-03 0.  1.
        -12    1    3    3    0    0  0.36816502537E+01  0.23451492267E+02 -0.14986449900E+02  0.28073487826E+02  0.00000000000E+00 0.  1.
</event>
<event>
 7    1  0.1335379E-011  0.5930194E+02  0.7816164E-02  0.1266605E+00
        -11   -1    0    0    0    0  0.00000000000E+00  0.00000000000E+00  0.45593999997E+02  0.45594000000E+02  0.51100000000E-03 0. -1.
         11   -1    0    0    0    0 -0.00000000000E+00 -0.00000000000E+00 -0.45593999997E+02  0.45594000000E+02  0.51100000000E-03 0.  1.
    9900012    2    1    2    0    0  0.25578548692E+01  0.29073760877E+02  0.12841135090E+02  0.59301938101E+02  0.49999989190E+02 0.  0.
        -12    1    1    2    0    0 -0.25578548692E+01 -0.29073760877E+02 -0.12841135090E+02  0.31886061899E+02  0.00000000000E+00 0.  1.
         11    1    3    3    0    0 -0.29109502750E+01  0.11989163561E+02  0.16728680922E+01  0.12450388039E+02  0.51100000000E-03 0.  1.
        -11    1    3    3    0    0 -0.50496076627E+00 -0.78251979267E+01 -0.10634631909E+02  0.13213027816E+02  0.51100000000E-03 0. -1.
         12    1    3    3    0    0  0.59737659105E+01  0.24909795242E+02  0.21802898907E+02  0.33638522246E+02  0.00000000000E+00 0. -1.
</event>
<event>
 7    1  0.1335379E-011  0.5930194E+02  0.7816164E-02  0.1266605E+00
        -11   -1    0    0    0    0  0.00000000000E+00  0.00000000000E+00  0.45593999997E+02  0.45594000000E+02  0.51100000000E-03 0.  1.
         11   -1    0    0    0    0 -0.00000000000E+00 -0.00000000000E+00 -0.45593999997E+02  0.45594000000E+02  0.51100000000E-03 0. -1.
    9900012    2    1    2    0    0  0.30266847764E+02 -0.97747563207E+01 -0.22567890061E+01  0.59301936723E+02  0.49999986677E+02 0.  0.
        -12    1    1    2    0    0 -0.30266847764E+02  0.97747563207E+01  0.22567890061E+01  0.31886063277E+02  0.00000000000E+00 0.  1.
         11    1    3    3    0    0  0.47378764379E+01 -0.77779084671E+01  0.28259995278E+01  0.95357016971E+01  0.51100000000E-03 0. -1.
        -11    1    3    3    0    0  0.14901878000E+01  0.58911181022E+01  0.15820943880E+02  0.16947808050E+02  0.51100000000E-03 0.  1.
         12    1    3    3    0    0  0.24038783526E+02 -0.78879659557E+01 -0.20903732414E+02  0.32818426976E+02  0.00000000000E+00 0. -1.
</event>
<event>
 7    1  0.1335379E-011  0.5930193E+02  0.7816164E-02  0.1266605E+00
        -11   -1    0    0    0    0  0.00000000000E+00  0.00000000000E+00  0.45593999997E+02  0.45594000000E+02  0.51100000000E-03 0.  1.
         11   -1    0    0    0    0 -0.00000000000E+00 -0.00000000000E+00 -0.45593999997E+02  0.45594000000E+02  0.51100000000E-03 0. -1.
    9900012    2    1    2    0    0 -0.25045332589E+02 -0.25226598256E+01 -0.19572651923E+02  0.59301934072E+02  0.49999981843E+02 0.  0.
        -12    1    1    2    0    0  0.25045332589E+02  0.25226598256E+01  0.19572651923E+02  0.31886065928E+02  0.00000000000E+00 0.  1.
         11    1    3    3    0    0  0.89524166811E+01  0.94119935968E+01 -0.12640926794E+02  0.18125242574E+02  0.51100000000E-03 0. -1.
        -11    1    3    3    0    0 -0.14192750706E+01 -0.66970364624E+01 -0.42797756554E+01  0.80734824596E+01  0.51100000000E-03 0.  1.
        -12    1    3    3    0    0 -0.32578474200E+02 -0.52376169600E+01 -0.26519494728E+01  0.33103209038E+02  0.00000000000E+00 0.  1.
</event>
<event>
 7    1  0.1335379E-011  0.5930196E+02  0.7816164E-02  0.1266605E+00
        -11   -1    0    0    0    0  0.00000000000E+00  0.00000000000E+00  0.45593999997E+02  0.45594000000E+02  0.51100000000E-03 0.  1.
         11   -1    0    0    0    0 -0.00000000000E+00 -0.00000000000E+00 -0.45593999997E+02  0.45594000000E+02  0.51100000000E-03 0. -1.
    9900012    2    1    2    0    0 -0.97689009582E+00  0.31861819720E+02  0.76791648823E+00  0.59301959703E+02  0.50000028587E+02 0.  0.
        -12    1    1    2    0    0  0.97689009582E+00 -0.31861819720E+02 -0.76791648823E+00  0.31886040297E+02  0.00000000000E+00 0.  1.
         11    1    3    3    0    0 -0.61839066843E+01  0.10960531042E+02 -0.12049037284E+02  0.17422779409E+02  0.51100000000E-03 0. -1.
        -11    1    3    3    0    0 -0.10666083637E+02  0.33004996214E+01 -0.49946392805E+01  0.12231314717E+02  0.51100000000E-03 0.  1.
        -12    1    3    3    0    0  0.15873100226E+02  0.17600789056E+02  0.17811593052E+02  0.29647865576E+02  0.00000000000E+00 0.  1.
</event>
<event>
 7    1  0.1335379E-011  0.5930197E+02  0.7816164E-02  0.1266605E+00
        -11   -1    0    0    0    0  0.00000000000E+00  0.00000000000E+00  0.45593999997E+02  0.45594000000E+02  0.51100000000E-03 0.  1.
         11   -1    0    0    0    0 -0.00000000000E+00 -0.00000000000E+00 -0.45593999997E+02  0.45594000000E+02  0.51100000000E-03 0. -1.
    9900012    2    1    2    0    0 -0.20642259180E+02 -0.22786111827E+02 -0.84503858832E+01  0.59301972060E+02  0.50000051124E+02 0.  0.
        -12    1    1    2    0    0  0.20642259180E+02  0.22786111827E+02  0.84503858832E+01  0.31886027940E+02  0.00000000000E+00 0.  1.
         11    1    3    3    0    0 -0.78063980795E+01 -0.33564309116E+00  0.96643957283E+00  0.78731514001E+01  0.51100000000E-03 0. -1.
        -11    1    3    3    0    0 -0.87723798635E+01  0.98509735260E+01 -0.13191033824E+02  0.18654750105E+02  0.51100000000E-03 0.  1.
         12    1    3    3    0    0 -0.40634812367E+01 -0.32301442261E+02  0.37742083678E+01  0.32774070555E+02  0.00000000000E+00 0. -1.
</event>
<event>
 7    1  0.1335379E-011  0.5930195E+02  0.7816164E-02  0.1266605E+00
        -11   -1    0    0    0    0  0.00000000000E+00  0.00000000000E+00  0.45593999997E+02  0.45594000000E+02  0.51100000000E-03 0.  1.
         11   -1    0    0    0    0 -0.00000000000E+00 -0.00000000000E+00 -0.45593999997E+02  0.45594000000E+02  0.51100000000E-03 0. -1.
    9900012    2    1    2    0    0  0.32297248629E+01 -0.11453223951E+02 -0.29582308941E+02  0.59301945621E+02  0.50000002907E+02 0.  0.
        -12    1    1    2    0    0 -0.32297248629E+01  0.11453223951E+02  0.29582308941E+02  0.31886054379E+02  0.00000000000E+00 0.  1.
         11    1    3    3    0    0  0.41897705958E+00 -0.11332465896E+02 -0.28493631188E+02  0.30667366101E+02  0.51100000000E-03 0. -1.
        -11    1    3    3    0    0 -0.22746842999E+01  0.48538463665E+01 -0.13390686741E+02  0.14423747948E+02  0.51100000000E-03 0.  1.
        -12    1    3    3    0    0  0.50854321033E+01 -0.49746044217E+01  0.12302008988E+02  0.14210831572E+02  0.00000000000E+00 0.  1.
</event>
<event>
 7    1  0.1335379E-011  0.5930191E+02  0.7816164E-02  0.1266605E+00
        -11   -1    0    0    0    0  0.00000000000E+00  0.00000000000E+00  0.45593999997E+02  0.45594000000E+02  0.51100000000E-03 0.  1.
         11   -1    0    0    0    0 -0.00000000000E+00 -0.00000000000E+00 -0.45593999997E+02  0.45594000000E+02  0.51100000000E-03 0. -1.
    9900012    2    1    2    0    0  0.27502123600E+02 -0.51593123817E+01 -0.15288473655E+02  0.59301910032E+02  0.49999938000E+02 0.  0.
        -12    1    1    2    0    0 -0.27502123600E+02  0.51593123817E+01  0.15288473655E+02  0.31886089968E+02  0.00000000000E+00 0.  1.
         11    1    3    3    0    0  0.85224224509E+01  0.10096664723E+02 -0.11339180153E+02  0.17411241477E+02  0.51100000000E-03 0. -1.
        -11    1    3    3    0    0  0.13369749945E+02  0.39456512647E+01 -0.13780075165E+02  0.19601246116E+02  0.51100000000E-03 0.  1.
        -12    1    3    3    0    0  0.56099512037E+01 -0.19201628370E+02  0.98307816630E+01  0.22289422439E+02  0.00000000000E+00 0.  1.
</event>
<event>
 7    1  0.1335379E-011  0.5930196E+02  0.7816164E-02  0.1266605E+00
        -11   -1    0    0    0    0  0.00000000000E+00  0.00000000000E+00  0.45593999997E+02  0.45594000000E+02  0.51100000000E-03 0.  1.
         11   -1    0    0    0    0 -0.00000000000E+00 -0.00000000000E+00 -0.45593999997E+02  0.45594000000E+02  0.51100000000E-03 0. -1.
    9900012    2    1    2    0    0 -0.13259808038E+02  0.28987894837E+02 -0.77392041723E+00  0.59301960592E+02  0.50000030210E+02 0.  0.
        -12    1    1    2    0    0  0.13259808038E+02 -0.28987894837E+02  0.77392041723E+00  0.31886039408E+02  0.00000000000E+00 0.  1.
         11    1    3    3    0    0 -0.13550655016E+01  0.10096738479E+02 -0.21964835020E+02  0.24212275980E+02  0.51100000000E-03 0. -1.
        -11    1    3    3    0    0  0.21210083656E+01  0.71196661983E+01  0.47916867151E+00  0.74443217380E+01  0.51100000000E-03 0.  1.
        -12    1    3    3    0    0 -0.14025750902E+02  0.11771490160E+02  0.20711745931E+02  0.27645362874E+02  0.00000000000E+00 0.  1.
</event>
<event>
 7    1  0.1335379E-011  0.5930194E+02  0.7816164E-02  0.1266605E+00
        -11   -1    0    0    0    0  0.00000000000E+00  0.00000000000E+00  0.45593999997E+02  0.45594000000E+02  0.51100000000E-03 0.  1.
         11   -1    0    0    0    0 -0.00000000000E+00 -0.00000000000E+00 -0.45593999997E+02  0.45594000000E+02  0.51100000000E-03 0. -1.
    9900012    2    1    2    0    0  0.13627025308E+02  0.26690320357E+02  0.10892731243E+02  0.59301943275E+02  0.49999998627E+02 0.  0.
        -12    1    1    2    0    0 -0.13627025308E+02 -0.26690320357E+02 -0.10892731243E+02  0.31886056725E+02  0.00000000000E+00 0.  1.
         11    1    3    3    0    0  0.70624937051E+01 -0.47313566168E+01 -0.69763847935E+01  0.10997022225E+02  0.51100000000E-03 0.  1.
        -11    1    3    3    0    0 -0.11954576482E+02  0.58612945948E+01  0.52658934049E+01  0.14317692090E+02  0.51100000000E-03 0. -1.
         12    1    3    3    0    0  0.18519108085E+02  0.25560382379E+02  0.12603222632E+02  0.33987228960E+02  0.00000000000E+00 0. -1.
</event>
<event>
 7    1  0.1335379E-011  0.5930194E+02  0.7816164E-02  0.1266605E+00
        -11   -1    0    0    0    0  0.00000000000E+00  0.00000000000E+00  0.45593999997E+02  0.45594000000E+02  0.51100000000E-03 0.  1.
         11   -1    0    0    0    0 -0.00000000000E+00 -0.00000000000E+00 -0.45593999997E+02  0.45594000000E+02  0.51100000000E-03 0. -1.
    9900012    2    1    2    0    0  0.59487545229E+01  0.29613169776E+02  0.10217314122E+02  0.59301937019E+02  0.49999987218E+02 0.  0.
        -12    1    1    2    0    0 -0.59487545229E+01 -0.29613169776E+02 -0.10217314122E+02  0.31886062981E+02  0.00000000000E+00 0.  1.
         11    1    3    3    0    0 -0.15886933572E+00  0.32058554683E+02  0.26627856875E+01  0.32169342482E+02  0.51100000000E-03 0. -1.
        -11    1    3    3    0    0 -0.50960210521E+01 -0.47728747097E-01  0.13352338377E+02  0.14291838544E+02  0.51100000000E-03 0.  1.
         12    1    3    3    0    0  0.11203644911E+02 -0.23976561605E+01 -0.57978099420E+01  0.12840755993E+02  0.00000000000E+00 0. -1.
</event>
<event>
 7    1  0.1335379E-011  0.5930176E+02  0.7816164E-02  0.1266605E+00
        -11   -1    0    0    0    0  0.00000000000E+00  0.00000000000E+00  0.45593999997E+02  0.45594000000E+02  0.51100000000E-03 0. -1.
         11   -1    0    0    0    0 -0.00000000000E+00 -0.00000000000E+00 -0.45593999997E+02  0.45594000000E+02  0.51100000000E-03 0.  1.
    9900012    2    1    2    0    0  0.18836881224E+01 -0.26625585183E+02  0.17443115310E+02  0.59301759410E+02  0.49999663300E+02 0.  0.
        -12    1    1    2    0    0 -0.18836881224E+01  0.26625585183E+02 -0.17443115310E+02  0.31886240590E+02  0.00000000000E+00 0.  1.
         11    1    3    3    0    0  0.37539568572E+01 -0.65114117826E+01  0.30631733963E+01  0.81162618862E+01  0.51100000000E-03 0. -1.
        -11    1    3    3    0    0  0.18131631919E+02 -0.22578291388E+02  0.78887653594E+01  0.30012796224E+02  0.51100000000E-03 0.  1.
        -12    1    3    3    0    0 -0.20001900654E+02  0.24641179876E+01  0.64911765545E+01  0.21172701299E+02  0.00000000000E+00 0.  1.
</event>
<event>
 7    1  0.1335379E-011  0.5930194E+02  0.7816164E-02  0.1266605E+00
        -11   -1    0    0    0    0  0.00000000000E+00  0.00000000000E+00  0.45593999997E+02  0.45594000000E+02  0.51100000000E-03 0. -1.
         11   -1    0    0    0    0 -0.00000000000E+00 -0.00000000000E+00 -0.45593999997E+02  0.45594000000E+02  0.51100000000E-03 0.  1.
    9900012    2    1    2    0    0  0.19405492108E+02 -0.24644185170E+02  0.57281653106E+01  0.59301939339E+02  0.49999991449E+02 0.  0.
        -12    1    1    2    0    0 -0.19405492108E+02  0.24644185170E+02 -0.57281653106E+01  0.31886060661E+02  0.00000000000E+00 0.  1.
         11    1    3    3    0    0  0.78121801963E+01 -0.15404952144E+02 -0.59360421003E+01  0.18264153582E+02  0.51100000000E-03 0. -1.
        -11    1    3    3    0    0  0.43561305675E+01 -0.19685664453E+02 -0.43177024445E+01  0.20619015814E+02  0.51100000000E-03 0.  1.
        -12    1    3    3    0    0  0.72371813442E+01  0.10446431427E+02  0.15981909855E+02  0.20418769943E+02  0.00000000000E+00 0.  1.
</event>
<event>
 7    1  0.1335379E-011  0.5930193E+02  0.7816164E-02  0.1266605E+00
        -11   -1    0    0    0    0  0.00000000000E+00  0.00000000000E+00  0.45593999997E+02  0.45594000000E+02  0.51100000000E-03 0.  1.
         11   -1    0    0    0    0 -0.00000000000E+00 -0.00000000000E+00 -0.45593999997E+02  0.45594000000E+02  0.51100000000E-03 0. -1.
    9900012    2    1    2    0    0  0.25011770547E+02  0.18122164800E+02 -0.79195828501E+01  0.59301932268E+02  0.49999978552E+02 0.  0.
        -12    1    1    2    0    0 -0.25011770547E+02 -0.18122164800E+02  0.79195828501E+01  0.31886067732E+02  0.00000000000E+00 0.  1.
         11    1    3    3    0    0  0.28477657608E+01 -0.30124103561E+01 -0.35503292632E+01  0.54579505421E+01  0.51100000000E-03 0. -1.
        -11    1    3    3    0    0 -0.35591274130E+01 -0.43528516734E+01  0.12641696379E+02  0.13835721638E+02  0.51100000000E-03 0.  1.
        -12    1    3    3    0    0  0.25723132199E+02  0.25487426830E+02 -0.17010949966E+02  0.40008260088E+02  0.00000000000E+00 0.  1.
</event>
<event>
 7    1  0.1335379E-011  0.5930197E+02  0.7816164E-02  0.1266605E+00
        -11   -1    0    0    0    0  0.00000000000E+00  0.00000000000E+00  0.45593999997E+02  0.45594000000E+02  0.51100000000E-03 0.  1.
         11   -1    0    0    0    0 -0.00000000000E+00 -0.00000000000E+00 -0.45593999997E+02  0.45594000000E+02  0.51100000000E-03 0. -1.
    9900012    2    1    2    0    0 -0.82935170413E+00  0.24114062342E+01 -0.31783901176E+02  0.59301967348E+02  0.50000042531E+02 0.  0.
        -12    1    1    2    0    0  0.82935170413E+00 -0.24114062342E+01  0.31783901176E+02  0.31886032652E+02  0.00000000000E+00 0.  1.
         11    1    3    3    0    0 -0.11514772774E+01  0.75245364551E+01 -0.40160540215E+01  0.86065811417E+01  0.51100000000E-03 0. -1.
        -11    1    3    3    0    0 -0.87326055029E+00  0.54553904519E+01  0.10018389238E+02  0.11440803825E+02  0.51100000000E-03 0.  1.
        -12    1    3    3    0    0  0.11953861235E+01 -0.10568520673E+02 -0.37786236393E+02  0.39254582382E+02  0.00000000000E+00 0.  1.
</event>
<event>
 7    1  0.1335379E-011  0.5930201E+02  0.7816164E-02  0.1266605E+00
        -11   -1    0    0    0    0  0.00000000000E+00  0.00000000000E+00  0.45593999997E+02  0.45594000000E+02  0.51100000000E-03 0.  1.
         11   -1    0    0    0    0 -0.00000000000E+00 -0.00000000000E+00 -0.45593999997E+02  0.45594000000E+02  0.51100000000E-03 0. -1.
    9900012    2    1    2    0    0  0.23090514637E+02  0.53825446549E+01 -0.21320714555E+02  0.59302007429E+02  0.50000115628E+02 0.  0.
        -12    1    1    2    0    0 -0.23090514637E+02 -0.53825446549E+01  0.21320714555E+02  0.31885992571E+02  0.00000000000E+00 0.  1.
         11    1    3    3    0    0  0.32285968616E+02  0.15668966091E+02 -0.13344974517E+02  0.38288230737E+02  0.51100000000E-03 0. -1.
        -11    1    3    3    0    0 -0.53048356388E+01  0.25967508590E+01 -0.33071717911E+01  0.67691788051E+01  0.51100000000E-03 0.  1.
        -12    1    3    3    0    0 -0.38906183410E+01 -0.12883172295E+02 -0.46685682465E+01  0.14244597886E+02  0.00000000000E+00 0.  1.
</event>
<event>
 7    1  0.1335379E-011  0.5930194E+02  0.7816164E-02  0.1266605E+00
        -11   -1    0    0    0    0  0.00000000000E+00  0.00000000000E+00  0.45593999997E+02  0.45594000000E+02  0.51100000000E-03 0.  1.
         11   -1    0    0    0    0 -0.00000000000E+00 -0.00000000000E+00 -0.45593999997E+02  0.45594000000E+02  0.51100000000E-03 0. -1.
    9900012    2    1    2    0    0 -0.23612659085E+01 -0.26782513396E+02  0.17141834169E+02  0.59301935972E+02  0.49999985309E+02 0.  0.
        -12    1    1    2    0    0  0.23612659085E+01  0.26782513396E+02 -0.17141834169E+02  0.31886064028E+02  0.00000000000E+00 0.  1.
         11    1    3    3    0    0  0.35686833174E+01  0.89280571326E+01  0.32663575012E+01  0.10154545601E+02  0.51100000000E-03 0. -1.
        -11    1    3    3    0    0 -0.76193203221E+01 -0.68890517611E+01  0.17253196466E+02  0.20079488662E+02  0.51100000000E-03 0.  1.
         12    1    3    3    0    0  0.16893710962E+01 -0.28821518767E+02 -0.33777197985E+01  0.29067901709E+02  0.00000000000E+00 0. -1.
</event>
<event>
 7    1  0.1335379E-011  0.5930195E+02  0.7816164E-02  0.1266605E+00
        -11   -1    0    0    0    0  0.00000000000E+00  0.00000000000E+00  0.45593999997E+02  0.45594000000E+02  0.51100000000E-03 0. -1.
         11   -1    0    0    0    0 -0.00000000000E+00 -0.00000000000E+00 -0.45593999997E+02  0.45594000000E+02  0.51100000000E-03 0.  1.
    9900012    2    1    2    0    0 -0.26673140218E+02 -0.10965077118E+02  0.13602608966E+02  0.59301948254E+02  0.50000007707E+02 0.  0.
        -12    1    1    2    0    0  0.26673140218E+02  0.10965077118E+02 -0.13602608966E+02  0.31886051746E+02  0.00000000000E+00 0.  1.
         11    1    3    3    0    0 -0.84263247342E+01  0.50821425556E+01  0.38423737610E+01  0.10563851469E+02  0.51100000000E-03 0. -1.
        -11    1    3    3    0    0  0.63455135561E+01  0.24249931140E+01 -0.10066616483E+02  0.12144253850E+02  0.51100000000E-03 0.  1.
         12    1    3    3    0    0 -0.24592329040E+02 -0.18472212787E+02  0.19826851688E+02  0.36593842935E+02  0.00000000000E+00 0. -1.
</event>
<event>
 7    1  0.1335379E-011  0.5930189E+02  0.7816164E-02  0.1266605E+00
        -11   -1    0    0    0    0  0.00000000000E+00  0.00000000000E+00  0.45593999997E+02  0.45594000000E+02  0.51100000000E-03 0. -1.
         11   -1    0    0    0    0 -0.00000000000E+00 -0.00000000000E+00 -0.45593999997E+02  0.45594000000E+02  0.51100000000E-03 0.  1.
    9900012    2    1    2    0    0  0.18268270483E+02 -0.85643218768E+01  0.24691028768E+02  0.59301886764E+02  0.49999895565E+02 0.  0.
        -12    1    1    2    0    0 -0.18268270483E+02  0.85643218768E+01 -0.24691028768E+02  0.31886113236E+02  0.00000000000E+00 0.  1.
         11    1    3    3    0    0  0.22693285867E+01  0.12498421192E+01  0.89498570093E+01  0.93172902877E+01  0.51100000000E-03 0. -1.
        -11    1    3    3    0    0 -0.20567443794E+01 -0.18820628074E+01  0.27088671612E+02  0.27231755137E+02  0.51100000000E-03 0.  1.
        -12    1    3    3    0    0  0.18055686275E+02 -0.79321011887E+01 -0.11347499853E+02  0.22752841340E+02  0.00000000000E+00 0.  1.
</event>
<event>
 7    1  0.1335379E-011  0.5930188E+02  0.7816164E-02  0.1266605E+00
        -11   -1    0    0    0    0  0.00000000000E+00  0.00000000000E+00  0.45593999997E+02  0.45594000000E+02  0.51100000000E-03 0.  1.
         11   -1    0    0    0    0 -0.00000000000E+00 -0.00000000000E+00 -0.45593999997E+02  0.45594000000E+02  0.51100000000E-03 0. -1.
    9900012    2    1    2    0    0  0.12570144913E+02  0.25382288071E+02 -0.14644300135E+02  0.59301880491E+02  0.49999884125E+02 0.  0.
        -12    1    1    2    0    0 -0.12570144913E+02 -0.25382288071E+02  0.14644300135E+02  0.31886119509E+02  0.00000000000E+00 0.  1.
         11    1    3    3    0    0 -0.34144069297E+01  0.14882879373E+02 -0.68336470306E+01  0.16728927195E+02  0.51100000000E-03 0.  1.
        -11    1    3    3    0    0  0.12873303497E+02  0.23930107017E+02 -0.92673517614E+01  0.28709854992E+02  0.51100000000E-03 0. -1.
        -12    1    3    3    0    0  0.31112483466E+01 -0.13430698319E+02  0.14566986566E+01  0.13863098304E+02  0.00000000000E+00 0.  1.
</event>
<event>
 7    1  0.1335379E-011  0.5930193E+02  0.7816164E-02  0.1266605E+00
        -11   -1    0    0    0    0  0.00000000000E+00  0.00000000000E+00  0.45593999997E+02  0.45594000000E+02  0.51100000000E-03 0.  1.
         11   -1    0    0    0    0 -0.00000000000E+00 -0.00000000000E+00 -0.45593999997E+02  0.45594000000E+02  0.51100000000E-03 0. -1.
    9900012    2    1    2    0    0 -0.68951019596E+01  0.30307084976E+02 -0.71175551356E+01  0.59301930598E+02  0.49999975508E+02 0.  0.
        -12    1    1    2    0    0  0.68951019596E+01 -0.30307084976E+02  0.71175551356E+01  0.31886069402E+02  0.00000000000E+00 0.  1.
         11    1    3    3    0    0  0.11345481532E+02  0.13119736602E+02 -0.11224005966E+02  0.20659761613E+02  0.51100000000E-03 0. -1.
        -11    1    3    3    0    0 -0.12408122393E+02  0.68435542555E+01  0.16315956118E+02  0.21610325321E+02  0.51100000000E-03 0.  1.
         12    1    3    3    0    0 -0.58324610984E+01  0.10343794119E+02 -0.12209505288E+02  0.17031843664E+02  0.00000000000E+00 0. -1.
</event>
<event>
 7    1  0.1335379E-011  0.5930194E+02  0.7816164E-02  0.1266605E+00
        -11   -1    0    0    0    0  0.00000000000E+00  0.00000000000E+00  0.45593999997E+02  0.45594000000E+02  0.51100000000E-03 0. -1.
         11   -1    0    0    0    0 -0.00000000000E+00 -0.00000000000E+00 -0.45593999997E+02  0.45594000000E+02  0.51100000000E-03 0.  1.
    9900012    2    1    2    0    0  0.66186938810E+01 -0.32323158467E+01  0.31023629541E+02  0.59301944046E+02  0.50000000033E+02 0.  0.
        -12    1    1    2    0    0 -0.66186938810E+01  0.32323158467E+01 -0.31023629541E+02  0.31886055954E+02  0.00000000000E+00 0.  1.
         11    1    3    3    0    0  0.57996625019E+01 -0.73880746929E+01  0.73789111832E+01  0.11944373710E+02  0.51100000000E-03 0. -1.
        -11    1    3    3    0    0 -0.12599184646E+02 -0.42152682226E+01  0.27967045467E+02  0.30962292750E+02  0.51100000000E-03 0.  1.
        -12    1    3    3    0    0  0.13418216025E+02  0.83710270688E+01 -0.43223271091E+01  0.16395277586E+02  0.00000000000E+00 0.  1.
</event>
<event>
 7    1  0.1335379E-011  0.5930199E+02  0.7816164E-02  0.1266605E+00
        -11   -1    0    0    0    0  0.00000000000E+00  0.00000000000E+00  0.45593999997E+02  0.45594000000E+02  0.51100000000E-03 0. -1.
         11   -1    0    0    0    0 -0.00000000000E+00 -0.00000000000E+00 -0.45593999997E+02  0.45594000000E+02  0.51100000000E-03 0.  1.
    9900012    2    1    2    0    0  0.21452674626E+02  0.18982960880E+02  0.14005266808E+02  0.59301991301E+02  0.50000086215E+02 0.  0.
        -12    1    1    2    0    0 -0.21452674626E+02 -0.18982960880E+02 -0.14005266808E+02  0.31886008699E+02  0.00000000000E+00 0.  1.
         11    1    3    3    0    0  0.15439921940E+01 -0.24306294955E+00  0.18861857217E+02  0.18926506530E+02  0.51100000000E-03 0. -1.
        -11    1    3    3    0    0  0.64700891127E+01  0.19752212948E+02  0.75150161094E+01  0.22101751896E+02  0.51100000000E-03 0.  1.
        -12    1    3    3    0    0  0.13438593319E+02 -0.52618911859E+00 -0.12371606518E+02  0.18273732876E+02  0.00000000000E+00 0.  1.
</event>
<event>
 7    1  0.1335379E-011  0.5930194E+02  0.7816164E-02  0.1266605E+00
        -11   -1    0    0    0    0  0.00000000000E+00  0.00000000000E+00  0.45593999997E+02  0.45594000000E+02  0.51100000000E-03 0. -1.
         11   -1    0    0    0    0 -0.00000000000E+00 -0.00000000000E+00 -0.45593999997E+02  0.45594000000E+02  0.51100000000E-03 0.  1.
    9900012    2    1    2    0    0  0.24436543183E+02  0.90540593952E+01  0.18373891835E+02  0.59301944499E+02  0.50000000859E+02 0.  0.
        -12    1    1    2    0    0 -0.24436543183E+02 -0.90540593952E+01 -0.18373891835E+02  0.31886055501E+02  0.00000000000E+00 0.  1.
         11    1    3    3    0    0  0.14732753915E+02  0.23861264197E+02  0.26902106069E+02  0.38860484791E+02  0.51100000000E-03 0. -1.
        -11    1    3    3    0    0  0.50329352027E+01 -0.68678335163E+01 -0.10547655097E+01  0.85796331217E+01  0.51100000000E-03 0.  1.
        -12    1    3    3    0    0  0.46708540653E+01 -0.79393712854E+01 -0.74734487249E+01  0.11861826586E+02  0.00000000000E+00 0.  1.
</event>
<event>
 7    1  0.1335379E-011  0.5930198E+02  0.7816164E-02  0.1266605E+00
        -11   -1    0    0    0    0  0.00000000000E+00  0.00000000000E+00  0.45593999997E+02  0.45594000000E+02  0.51100000000E-03 0.  1.
         11   -1    0    0    0    0 -0.00000000000E+00 -0.00000000000E+00 -0.45593999997E+02  0.45594000000E+02  0.51100000000E-03 0. -1.
    9900012    2    1    2    0    0 -0.19646758964E+02 -0.21597619412E+02 -0.12816617634E+02  0.59301984419E+02  0.50000073663E+02 0.  0.
        -12    1    1    2    0    0  0.19646758964E+02  0.21597619412E+02  0.12816617634E+02  0.31886015581E+02  0.00000000000E+00 0.  1.
         11    1    3    3    0    0 -0.87102554125E+01 -0.83856471649E+01 -0.97445473828E+01  0.15528806512E+02  0.51100000000E-03 0. -1.
        -11    1    3    3    0    0 -0.36094559616E+01 -0.18294275683E+02 -0.18299941864E+02  0.26126549094E+02  0.51100000000E-03 0.  1.
        -12    1    3    3    0    0 -0.73270475902E+01  0.50823034352E+01  0.15227871613E+02  0.17646628813E+02  0.00000000000E+00 0.  1.
</event>
<event>
 7    1  0.1335379E-011  0.5930195E+02  0.7816164E-02  0.1266605E+00
        -11   -1    0    0    0    0  0.00000000000E+00  0.00000000000E+00  0.45593999997E+02  0.45594000000E+02  0.51100000000E-03 0.  1.
         11   -1    0    0    0    0 -0.00000000000E+00 -0.00000000000E+00 -0.45593999997E+02  0.45594000000E+02  0.51100000000E-03 0. -1.
    9900012    2    1    2    0    0 -0.27398260146E+02  0.38585913871E+01 -0.15848235078E+02  0.59301953811E+02  0.50000017841E+02 0.  0.
        -12    1    1    2    0    0  0.27398260146E+02 -0.38585913871E+01  0.15848235078E+02  0.31886046189E+02  0.00000000000E+00 0.  1.
         11    1    3    3    0    0 -0.22262909071E+02  0.21354360661E+02 -0.10702766765E+02  0.32652642408E+02  0.51100000000E-03 0. -1.
        -11    1    3    3    0    0 -0.72526089417E+01 -0.78026535847E+01 -0.10849355300E+02  0.15204941634E+02  0.51100000000E-03 0.  1.
        -12    1    3    3    0    0  0.21172578674E+01 -0.96931156889E+01  0.57038869862E+01  0.11444369768E+02  0.00000000000E+00 0.  1.
</event>
<event>
 7    1  0.1335379E-011  0.5930196E+02  0.7816164E-02  0.1266605E+00
        -11   -1    0    0    0    0  0.00000000000E+00  0.00000000000E+00  0.45593999997E+02  0.45594000000E+02  0.51100000000E-03 0.  1.
         11   -1    0    0    0    0 -0.00000000000E+00 -0.00000000000E+00 -0.45593999997E+02  0.45594000000E+02  0.51100000000E-03 0. -1.
    9900012    2    1    2    0    0 -0.21248031032E+02 -0.23706500303E+02 -0.18006256223E+01  0.59301964938E+02  0.50000038135E+02 0.  0.
        -12    1    1    2    0    0  0.21248031032E+02  0.23706500303E+02  0.18006256223E+01  0.31886035062E+02  0.00000000000E+00 0.  1.
         11    1    3    3    0    0 -0.23427487793E+02 -0.15097124472E+02  0.23663458261E+01  0.27970876719E+02  0.51100000000E-03 0. -1.
        -11    1    3    3    0    0 -0.56220843690E+01 -0.11278448813E+02 -0.13775150876E+02  0.18669922929E+02  0.51100000000E-03 0.  1.
        -12    1    3    3    0    0  0.78015411298E+01  0.26690729818E+01  0.96081794271E+01  0.12661165289E+02  0.00000000000E+00 0.  1.
</event>
<event>
 7    1  0.1335379E-011  0.5930194E+02  0.7816164E-02  0.1266605E+00
        -11   -1    0    0    0    0  0.00000000000E+00  0.00000000000E+00  0.45593999997E+02  0.45594000000E+02  0.51100000000E-03 0. -1.
         11   -1    0    0    0    0 -0.00000000000E+00 -0.00000000000E+00 -0.45593999997E+02  0.45594000000E+02  0.51100000000E-03 0.  1.
    9900012    2    1    2    0    0 -0.12604064851E+02  0.19931829323E+02  0.21461137044E+02  0.59301942323E+02  0.49999996891E+02 0.  0.
        -12    1    1    2    0    0  0.12604064851E+02 -0.19931829323E+02 -0.21461137044E+02  0.31886057677E+02  0.00000000000E+00 0.  1.
         11    1    3    3    0    0  0.17189017321E+01 -0.26679559621E+01  0.16648376724E+02  0.16948187513E+02  0.51100000000E-03 0. -1.
        -11    1    3    3    0    0  0.28424244245E+00 -0.72946751294E+01  0.53932262568E+01  0.90763411531E+01  0.51100000000E-03 0.  1.
        -12    1    3    3    0    0 -0.14607209025E+02  0.29894460415E+02 -0.58046593623E+00  0.33277413657E+02  0.00000000000E+00 0.  1.
</event>
<event>
 7    1  0.1335379E-011  0.5930193E+02  0.7816164E-02  0.1266605E+00
        -11   -1    0    0    0    0  0.00000000000E+00  0.00000000000E+00  0.45593999997E+02  0.45594000000E+02  0.51100000000E-03 0. -1.
         11   -1    0    0    0    0 -0.00000000000E+00 -0.00000000000E+00 -0.45593999997E+02  0.45594000000E+02  0.51100000000E-03 0.  1.
    9900012    2    1    2    0    0  0.10411913414E+02 -0.60730361903E+01  0.29520023202E+02  0.59301929697E+02  0.49999973864E+02 0.  0.
        -12    1    1    2    0    0 -0.10411913414E+02  0.60730361903E+01 -0.29520023202E+02  0.31886070303E+02  0.00000000000E+00 0.  1.
         11    1    3    3    0    0  0.16285485610E+01 -0.89642885628E+00  0.41162754104E+01  0.45165781987E+01  0.51100000000E-03 0. -1.
        -11    1    3    3    0    0  0.24528416418E+02 -0.14769531270E+02  0.87466917488E+01  0.29938050750E+02  0.51100000000E-03 0.  1.
        -12    1    3    3    0    0 -0.15745051565E+02  0.95929239364E+01  0.16657056043E+02  0.24847300748E+02  0.00000000000E+00 0.  1.
</event>
<event>
 7    1  0.1335379E-011  0.5930195E+02  0.7816164E-02  0.1266605E+00
        -11   -1    0    0    0    0  0.00000000000E+00  0.00000000000E+00  0.45593999997E+02  0.45594000000E+02  0.51100000000E-03 0.  1.
         11   -1    0    0    0    0 -0.00000000000E+00 -0.00000000000E+00 -0.45593999997E+02  0.45594000000E+02  0.51100000000E-03 0. -1.
    9900012    2    1    2    0    0 -0.60983244375E+00 -0.24276502239E+02 -0.20663970595E+02  0.59301950742E+02  0.50000012244E+02 0.  0.
        -12    1    1    2    0    0  0.60983244375E+00  0.24276502239E+02  0.20663970595E+02  0.31886049258E+02  0.00000000000E+00 0.  1.
         11    1    3    3    0    0 -0.82257984525E+01 -0.67859190676E+00  0.49619707432E+01  0.96304413748E+01  0.51100000000E-03 0.  1.
        -11    1    3    3    0    0 -0.34290075982E+01 -0.28119502426E+02 -0.24898464885E+02  0.37714692941E+02  0.51100000000E-03 0. -1.
         12    1    3    3    0    0  0.11044973607E+02  0.45215920939E+01 -0.72747645370E+00  0.11956816425E+02  0.00000000000E+00 0. -1.
</event>
<event>
 7    1  0.1335379E-011  0.5930177E+02  0.7816164E-02  0.1266605E+00
        -11   -1    0    0    0    0  0.00000000000E+00  0.00000000000E+00  0.45593999997E+02  0.45594000000E+02  0.51100000000E-03 0.  1.
         11   -1    0    0    0    0 -0.00000000000E+00 -0.00000000000E+00 -0.45593999997E+02  0.45594000000E+02  0.51100000000E-03 0. -1.
    9900012    2    1    2    0    0  0.15499707619E+01  0.11431256268E+02 -0.29726348558E+02  0.59301767425E+02  0.49999677919E+02 0.  0.
        -12    1    1    2    0    0 -0.15499707619E+01 -0.11431256268E+02  0.29726348558E+02  0.31886232575E+02  0.00000000000E+00 0.  1.
         11    1    3    3    0    0  0.23986471966E+01 -0.13442816513E+01 -0.95326087924E+01  0.99212515432E+01  0.51100000000E-03 0. -1.
        -11    1    3    3    0    0  0.30004939749E+01 -0.14783659807E+02 -0.14607679231E+02  0.20998663151E+02  0.51100000000E-03 0.  1.
        -12    1    3    3    0    0 -0.38491704096E+01  0.27559197726E+02 -0.55860605343E+01  0.28381852731E+02  0.00000000000E+00 0.  1.
</event>
<event>
 7    1  0.1335379E-011  0.5930194E+02  0.7816164E-02  0.1266605E+00
        -11   -1    0    0    0    0  0.00000000000E+00  0.00000000000E+00  0.45593999997E+02  0.45594000000E+02  0.51100000000E-03 0.  1.
         11   -1    0    0    0    0 -0.00000000000E+00 -0.00000000000E+00 -0.45593999997E+02  0.45594000000E+02  0.51100000000E-03 0. -1.
    9900012    2    1    2    0    0 -0.20968934142E+02 -0.67146648863E+01 -0.23063776480E+02  0.59301941776E+02  0.49999995893E+02 0.  0.
        -12    1    1    2    0    0  0.20968934142E+02  0.67146648863E+01  0.23063776480E+02  0.31886058224E+02  0.00000000000E+00 0.  1.
         11    1    3    3    0    0 -0.25806303166E+02 -0.10054946564E+02 -0.16866483631E+02  0.32427542365E+02  0.51100000000E-03 0. -1.
        -11    1    3    3    0    0  0.55992395566E+01 -0.89963011250E+01 -0.93354383302E+01  0.14122157293E+02  0.51100000000E-03 0.  1.
        -12    1    3    3    0    0 -0.76187053231E+00  0.12336582802E+02  0.31381454819E+01  0.12752242117E+02  0.00000000000E+00 0.  1.
</event>
<event>
 7    1  0.1335379E-011  0.5930170E+02  0.7816164E-02  0.1266606E+00
        -11   -1    0    0    0    0  0.00000000000E+00  0.00000000000E+00  0.45593999997E+02  0.45594000000E+02  0.51100000000E-03 0.  1.
         11   -1    0    0    0    0 -0.00000000000E+00 -0.00000000000E+00 -0.45593999997E+02  0.45594000000E+02  0.51100000000E-03 0. -1.
    9900012    2    1    2    0    0  0.48206093829E+01  0.13340065009E+01 -0.31491556860E+02  0.59301701977E+02  0.49999558555E+02 0.  0.
        -12    1    1    2    0    0 -0.48206093829E+01 -0.13340065009E+01  0.31491556860E+02  0.31886298023E+02  0.00000000000E+00 0.  1.
         11    1    3    3    0    0  0.58720081356E+01 -0.26189267613E+01  0.43813329869E+01  0.77804457410E+01  0.51100000000E-03 0. -1.
        -11    1    3    3    0    0 -0.89570967155E+01 -0.13501463594E+02 -0.90540339010E+01  0.18560566556E+02  0.51100000000E-03 0.  1.
         12    1    3    3    0    0  0.79056979628E+01  0.17454396856E+02 -0.26818855946E+02  0.32960689679E+02  0.00000000000E+00 0. -1.
</event>
<event>
 7    1  0.1335379E-011  0.5930170E+02  0.7816164E-02  0.1266606E+00
        -11   -1    0    0    0    0  0.00000000000E+00  0.00000000000E+00  0.45593999997E+02  0.45594000000E+02  0.51100000000E-03 0. -1.
         11   -1    0    0    0    0 -0.00000000000E+00 -0.00000000000E+00 -0.45593999997E+02  0.45594000000E+02  0.51100000000E-03 0.  1.
    9900012    2    1    2    0    0 -0.69957980109E+01 -0.25992551003E+02  0.17093331299E+02  0.59301704004E+02  0.49999562252E+02 0.  0.
        -12    1    1    2    0    0  0.69957980109E+01  0.25992551003E+02 -0.17093331299E+02  0.31886295996E+02  0.00000000000E+00 0.  1.
         11    1    3    3    0    0  0.41256769573E+01 -0.22524588146E+01 -0.42555959550E+00  0.47197332867E+01  0.51100000000E-03 0.  1.
        -11    1    3    3    0    0  0.86609706849E+01  0.90594360234E+01  0.17452619384E+00  0.12534602264E+02  0.51100000000E-03 0. -1.
         12    1    3    3    0    0 -0.19782445653E+02 -0.32799528212E+02  0.17344364700E+02  0.42047368453E+02  0.00000000000E+00 0. -1.
</event>
<event>
 7    1  0.1335379E-011  0.5930195E+02  0.7816164E-02  0.1266605E+00
        -11   -1    0    0    0    0  0.00000000000E+00  0.00000000000E+00  0.45593999997E+02  0.45594000000E+02  0.51100000000E-03 0.  1.
         11   -1    0    0    0    0 -0.00000000000E+00 -0.00000000000E+00 -0.45593999997E+02  0.45594000000E+02  0.51100000000E-03 0. -1.
    9900012    2    1    2    0    0  0.21778155980E+02  0.17779472001E+02  0.15044012639E+02  0.59301952600E+02  0.50000015634E+02 0.  0.
        -12    1    1    2    0    0 -0.21778155980E+02 -0.17779472001E+02 -0.15044012639E+02  0.31886047400E+02  0.00000000000E+00 0.  1.
         11    1    3    3    0    0 -0.42474060843E+01 -0.36672013241E+01  0.88984278116E+01  0.10520020997E+02  0.51100000000E-03 0. -1.
        -11    1    3    3    0    0  0.84637934316E+01 -0.91658842760E+01 -0.18032189886E+01  0.12605587364E+02  0.51100000000E-03 0.  1.
         12    1    3    3    0    0  0.17561768632E+02  0.30612557601E+02  0.79488038163E+01  0.36176344239E+02  0.00000000000E+00 0. -1.
</event>
<event>
 7    1  0.1335379E-011  0.5930195E+02  0.7816164E-02  0.1266605E+00
        -11   -1    0    0    0    0  0.00000000000E+00  0.00000000000E+00  0.45593999997E+02  0.45594000000E+02  0.51100000000E-03 0.  1.
         11   -1    0    0    0    0 -0.00000000000E+00 -0.00000000000E+00 -0.45593999997E+02  0.45594000000E+02  0.51100000000E-03 0. -1.
    9900012    2    1    2    0    0 -0.29032055206E+02  0.88914594971E+01 -0.97366409579E+01  0.59301945703E+02  0.50000003055E+02 0.  0.
        -12    1    1    2    0    0  0.29032055206E+02 -0.88914594971E+01  0.97366409579E+01  0.31886054297E+02  0.00000000000E+00 0.  1.
         11    1    3    3    0    0 -0.17093880016E+02  0.15190205145E+02 -0.62719182030E+01  0.23712444508E+02  0.51100000000E-03 0.  1.
        -11    1    3    3    0    0 -0.22202498266E+02 -0.15539458782E+01  0.31660259134E+01  0.22480867363E+02  0.51100000000E-03 0. -1.
        -12    1    3    3    0    0  0.10264323075E+02 -0.47447997695E+01 -0.66307486683E+01  0.13108633832E+02  0.00000000000E+00 0.  1.
</event>
<event>
 7    1  0.1335379E-011  0.5930195E+02  0.7816164E-02  0.1266605E+00
        -11   -1    0    0    0    0  0.00000000000E+00  0.00000000000E+00  0.45593999997E+02  0.45594000000E+02  0.51100000000E-03 0.  1.
         11   -1    0    0    0    0 -0.00000000000E+00 -0.00000000000E+00 -0.45593999997E+02  0.45594000000E+02  0.51100000000E-03 0. -1.
    9900012    2    1    2    0    0 -0.64882237725E+00 -0.54679067533E+01 -0.31407022826E+02  0.59301951993E+02  0.50000014526E+02 0.  0.
        -12    1    1    2    0    0  0.64882237725E+00  0.54679067533E+01  0.31407022826E+02  0.31886048007E+02  0.00000000000E+00 0.  1.
         11    1    3    3    0    0 -0.11941218411E+02  0.39227579898E+01 -0.13741266750E+02  0.18622651249E+02  0.51100000000E-03 0. -1.
        -11    1    3    3    0    0  0.59574203230E+01 -0.18986652752E+02 -0.21266442019E+02  0.29124652719E+02  0.51100000000E-03 0.  1.
        -12    1    3    3    0    0  0.53349757109E+01  0.95959880092E+01  0.36006859424E+01  0.11554648024E+02  0.00000000000E+00 0.  1.
</event>
<event>
 7    1  0.1335379E-011  0.5930193E+02  0.7816164E-02  0.1266605E+00
        -11   -1    0    0    0    0  0.00000000000E+00  0.00000000000E+00  0.45593999997E+02  0.45594000000E+02  0.51100000000E-03 0.  1.
         11   -1    0    0    0    0 -0.00000000000E+00 -0.00000000000E+00 -0.45593999997E+02  0.45594000000E+02  0.51100000000E-03 0. -1.
    9900012    2    1    2    0    0 -0.58606065704E+01  0.40324297827E+01 -0.31082377853E+02  0.59301930749E+02  0.49999975782E+02 0.  0.
        -12    1    1    2    0    0  0.58606065704E+01 -0.40324297827E+01  0.31082377853E+02  0.31886069251E+02  0.00000000000E+00 0.  1.
         11    1    3    3    0    0 -0.19604470578E+01  0.18367407592E+01 -0.27195195977E+02  0.27327562163E+02  0.51100000000E-03 0. -1.
        -11    1    3    3    0    0 -0.46478593712E+01  0.77183651955E+01 -0.16156371966E+02  0.18498759780E+02  0.51100000000E-03 0.  1.
        -12    1    3    3    0    0  0.74769985863E+00 -0.55226761721E+01  0.12269190091E+02  0.13475608805E+02  0.00000000000E+00 0.  1.
</event>
<event>
 7    1  0.1335379E-011  0.5930191E+02  0.7816164E-02  0.1266605E+00
        -11   -1    0    0    0    0  0.00000000000E+00  0.00000000000E+00  0.45593999997E+02  0.45594000000E+02  0.51100000000E-03 0.  1.
         11   -1    0    0    0    0 -0.00000000000E+00 -0.00000000000E+00 -0.45593999997E+02  0.45594000000E+02  0.51100000000E-03 0. -1.
    9900012    2    1    2    0    0 -0.21994088191E+02  0.41864875812E+01 -0.22703652824E+02  0.59301914553E+02  0.49999946245E+02 0.  0.
        -12    1    1    2    0    0  0.21994088191E+02 -0.41864875812E+01  0.22703652824E+02  0.31886085447E+02  0.00000000000E+00 0.  1.
         11    1    3    3    0    0 -0.86888101862E+01 -0.80880974796E+01  0.62349428761E+01  0.13408477028E+02  0.51100000000E-03 0. -1.
        -11    1    3    3    0    0 -0.32248432300E+01 -0.59289003958E+01  0.33078156756E+01  0.75161904291E+01  0.51100000000E-03 0.  1.
         12    1    3    3    0    0 -0.10080434774E+02  0.18203485457E+02 -0.32246411376E+02  0.38377247095E+02  0.00000000000E+00 0. -1.
</event>
<event>
 7    1  0.1335379E-011  0.5930193E+02  0.7816164E-02  0.1266605E+00
        -11   -1    0    0    0    0  0.00000000000E+00  0.00000000000E+00  0.45593999997E+02  0.45594000000E+02  0.51100000000E-03 0.  1.
         11   -1    0    0    0    0 -0.00000000000E+00 -0.00000000000E+00 -0.45593999997E+02  0.45594000000E+02  0.51100000000E-03 0. -1.
    9900012    2    1    2    0    0 -0.94011543054E+01  0.16377841306E+02 -0.25692526071E+02  0.59301932760E+02  0.49999979451E+02 0.  0.
        -12    1    1    2    0    0  0.94011543054E+01 -0.16377841306E+02  0.25692526071E+02  0.31886067240E+02  0.00000000000E+00 0.  1.
         11    1    3    3    0    0 -0.18098537942E+02  0.55855876985E+01 -0.22907145907E+02  0.29723613499E+02  0.51100000000E-03 0. -1.
        -11    1    3    3    0    0  0.52239651283E+01  0.11022599460E+02 -0.13569632205E+02  0.18246162034E+02  0.51100000000E-03 0.  1.
        -12    1    3    3    0    0  0.34734185080E+01 -0.23034585254E+00  0.10784252041E+02  0.11332157228E+02  0.00000000000E+00 0.  1.
</event>
<event>
 7    1  0.1335379E-011  0.5930192E+02  0.7816164E-02  0.1266605E+00
        -11   -1    0    0    0    0  0.00000000000E+00  0.00000000000E+00  0.45593999997E+02  0.45594000000E+02  0.51100000000E-03 0.  1.
         11   -1    0    0    0    0 -0.00000000000E+00 -0.00000000000E+00 -0.45593999997E+02  0.45594000000E+02  0.51100000000E-03 0. -1.
    9900012    2    1    2    0    0 -0.15120642225E+02  0.22325657081E+02  0.17019210852E+02  0.59301916461E+02  0.49999949725E+02 0.  0.
        -12    1    1    2    0    0  0.15120642225E+02 -0.22325657081E+02 -0.17019210852E+02  0.31886083539E+02  0.00000000000E+00 0.  1.
         11    1    3    3    0    0  0.12146124031E+01 -0.49571944403E+01  0.11693580236E+01  0.52360728087E+01  0.51100000000E-03 0. -1.
        -11    1    3    3    0    0 -0.59451415638E+01 -0.95369915634E+01 -0.26852133892E+01  0.11554621911E+02  0.51100000000E-03 0.  1.
         12    1    3    3    0    0 -0.10390113065E+02  0.36819843085E+02  0.18535066217E+02  0.42511221742E+02  0.00000000000E+00 0. -1.
</event>
<event>
 7    1  0.1335379E-011  0.5930193E+02  0.7816164E-02  0.1266605E+00
        -11   -1    0    0    0    0  0.00000000000E+00  0.00000000000E+00  0.45593999997E+02  0.45594000000E+02  0.51100000000E-03 0.  1.
         11   -1    0    0    0    0 -0.00000000000E+00 -0.00000000000E+00 -0.45593999997E+02  0.45594000000E+02  0.51100000000E-03 0. -1.
    9900012    2    1    2    0    0  0.11772357479E+02 -0.22347009926E+02 -0.19461356612E+02  0.59301926952E+02  0.49999968858E+02 0.  0.
        -12    1    1    2    0    0 -0.11772357479E+02  0.22347009926E+02  0.19461356612E+02  0.31886073048E+02  0.00000000000E+00 0.  1.
         11    1    3    3    0    0 -0.38020363971E+01 -0.45329698419E+01 -0.17444605937E+02  0.18420574717E+02  0.51100000000E-03 0. -1.
        -11    1    3    3    0    0  0.23300121533E+02 -0.75625317541E+01 -0.92050159523E+01  0.26169063203E+02  0.51100000000E-03 0.  1.
        -12    1    3    3    0    0 -0.77257276565E+01 -0.10251508330E+02  0.71882652771E+01  0.14712289032E+02  0.00000000000E+00 0.  1.
</event>
<event>
 7    1  0.1335379E-011  0.5930164E+02  0.7816164E-02  0.1266606E+00
        -11   -1    0    0    0    0  0.00000000000E+00  0.00000000000E+00  0.45593999997E+02  0.45594000000E+02  0.51100000000E-03 0. -1.
         11   -1    0    0    0    0 -0.00000000000E+00 -0.00000000000E+00 -0.45593999997E+02  0.45594000000E+02  0.51100000000E-03 0.  1.
    9900012    2    1    2    0    0 -0.12054761850E+02 -0.12079697502E+02  0.26935172188E+02  0.59301641227E+02  0.49999447761E+02 0.  0.
        -12    1    1    2    0    0  0.12054761850E+02  0.12079697502E+02 -0.26935172188E+02  0.31886358773E+02  0.00000000000E+00 0.  1.
         11    1    3    3    0    0  0.26772656261E+01 -0.66817082836E+01  0.40295785052E+01  0.82492714836E+01  0.51100000000E-03 0. -1.
        -11    1    3    3    0    0  0.12214796458E+02 -0.79989944665E+01 -0.14031758967E+01  0.14668131028E+02  0.51100000000E-03 0.  1.
         12    1    3    3    0    0 -0.26946823934E+02  0.26010052485E+01  0.24308769580E+02  0.36384238716E+02  0.00000000000E+00 0. -1.
</event>
<event>
 7    1  0.1335379E-011  0.5930196E+02  0.7816164E-02  0.1266605E+00
        -11   -1    0    0    0    0  0.00000000000E+00  0.00000000000E+00  0.45593999997E+02  0.45594000000E+02  0.51100000000E-03 0.  1.
         11   -1    0    0    0    0 -0.00000000000E+00 -0.00000000000E+00 -0.45593999997E+02  0.45594000000E+02  0.51100000000E-03 0. -1.
    9900012    2    1    2    0    0 -0.19283483436E+02 -0.23387012200E+02 -0.98951886441E+01  0.59301955539E+02  0.50000020994E+02 0.  0.
        -12    1    1    2    0    0  0.19283483436E+02  0.23387012200E+02  0.98951886441E+01  0.31886044461E+02  0.00000000000E+00 0.  1.
         11    1    3    3    0    0 -0.17428709849E+02 -0.25671287235E+02 -0.12487690138E+02  0.33447231882E+02  0.51100000000E-03 0. -1.
        -11    1    3    3    0    0 -0.54994535495E+00  0.63648776556E+01 -0.10382582671E+02  0.12190657515E+02  0.51100000000E-03 0.  1.
        -12    1    3    3    0    0 -0.13048282312E+01 -0.40806026207E+01  0.12975084165E+02  0.13664066142E+02  0.00000000000E+00 0.  1.
</event>
<event>
 7    1  0.1335379E-011  0.5930195E+02  0.7816164E-02  0.1266605E+00
        -11   -1    0    0    0    0  0.00000000000E+00  0.00000000000E+00  0.45593999997E+02  0.45594000000E+02  0.51100000000E-03 0.  1.
         11   -1    0    0    0    0 -0.00000000000E+00 -0.00000000000E+00 -0.45593999997E+02  0.45594000000E+02  0.51100000000E-03 0. -1.
    9900012    2    1    2    0    0  0.30068894276E+02 -0.58971337776E+01  0.88207631160E+01  0.59301945811E+02  0.50000003253E+02 0.  0.
        -12    1    1    2    0    0 -0.30068894276E+02  0.58971337776E+01 -0.88207631160E+01  0.31886054189E+02  0.00000000000E+00 0.  1.
         11    1    3    3    0    0  0.20951429987E+02 -0.18988872621E+02  0.65308308137E+01  0.29020535028E+02  0.51100000000E-03 0. -1.
        -11    1    3    3    0    0  0.10535336022E+02 -0.13821321510E+00  0.10313410276E+02  0.14743772915E+02  0.51100000000E-03 0.  1.
        -12    1    3    3    0    0 -0.14178717336E+01  0.13229952059E+02 -0.80234779735E+01  0.15537637868E+02  0.00000000000E+00 0.  1.
</event>
<event>
 7    1  0.1335379E-011  0.5930195E+02  0.7816164E-02  0.1266605E+00
        -11   -1    0    0    0    0  0.00000000000E+00  0.00000000000E+00  0.45593999997E+02  0.45594000000E+02  0.51100000000E-03 0.  1.
         11   -1    0    0    0    0 -0.00000000000E+00 -0.00000000000E+00 -0.45593999997E+02  0.45594000000E+02  0.51100000000E-03 0. -1.
    9900012    2    1    2    0    0 -0.21802200717E+02 -0.11821576403E+02 -0.20040823972E+02  0.59301948971E+02  0.50000009015E+02 0.  0.
        -12    1    1    2    0    0  0.21802200717E+02  0.11821576403E+02  0.20040823972E+02  0.31886051029E+02  0.00000000000E+00 0.  1.
         11    1    3    3    0    0 -0.15695417738E+02 -0.42658719150E+01 -0.21175231903E+02  0.26700828594E+02  0.51100000000E-03 0. -1.
        -11    1    3    3    0    0  0.74132117011E+01 -0.24210066560E+01 -0.11163101244E+02  0.13617334930E+02  0.51100000000E-03 0.  1.
        -12    1    3    3    0    0 -0.13519994680E+02 -0.51346978325E+01  0.12297509176E+02  0.18983785447E+02  0.00000000000E+00 0.  1.
</event>
<event>
 7    1  0.1335379E-011  0.5930193E+02  0.7816164E-02  0.1266605E+00
        -11   -1    0    0    0    0  0.00000000000E+00  0.00000000000E+00  0.45593999997E+02  0.45594000000E+02  0.51100000000E-03 0. -1.
         11   -1    0    0    0    0 -0.00000000000E+00 -0.00000000000E+00 -0.45593999997E+02  0.45594000000E+02  0.51100000000E-03 0.  1.
    9900012    2    1    2    0    0  0.51022211388E+01  0.31465087851E+02  0.79830733173E+00  0.59301926103E+02  0.49999967309E+02 0.  0.
        -12    1    1    2    0    0 -0.51022211388E+01 -0.31465087851E+02 -0.79830733173E+00  0.31886073897E+02  0.00000000000E+00 0.  1.
         11    1    3    3    0    0 -0.44014519730E+01  0.16849271864E+01 -0.56018314097E+01  0.73206744565E+01  0.51100000000E-03 0. -1.
        -11    1    3    3    0    0  0.37252308479E+01  0.15555214816E+01 -0.15356977757E+02  0.15878720290E+02  0.51100000000E-03 0.  1.
         12    1    3    3    0    0  0.57784422639E+01  0.28224639183E+02  0.21757116499E+02  0.36102531356E+02  0.00000000000E+00 0. -1.
</event>
<event>
 7    1  0.1335379E-011  0.5930196E+02  0.7816164E-02  0.1266605E+00
        -11   -1    0    0    0    0  0.00000000000E+00  0.00000000000E+00  0.45593999997E+02  0.45594000000E+02  0.51100000000E-03 0. -1.
         11   -1    0    0    0    0 -0.00000000000E+00 -0.00000000000E+00 -0.45593999997E+02  0.45594000000E+02  0.51100000000E-03 0.  1.
    9900012    2    1    2    0    0 -0.27346297379E+02 -0.96347185496E+00  0.16369823991E+02  0.59301962368E+02  0.50000033448E+02 0.  0.
        -12    1    1    2    0    0  0.27346297379E+02  0.96347185496E+00 -0.16369823991E+02  0.31886037632E+02  0.00000000000E+00 0.  1.
         11    1    3    3    0    0 -0.62193114117E+01  0.68521696448E+01  0.52835607589E+01  0.10655894042E+02  0.51100000000E-03 0. -1.
        -11    1    3    3    0    0 -0.26896308734E+02  0.23025800817E+01  0.20315668947E+02  0.33785199475E+02  0.51100000000E-03 0.  1.
        -12    1    3    3    0    0  0.57693227669E+01 -0.10118221582E+02 -0.92294057146E+01  0.14860868851E+02  0.00000000000E+00 0.  1.
</event>
