<event>
 7    1  0.2084210E-015  0.9000778E+02  0.7816164E-02  0.1186339E+00
        -11   -1    0    0    0    0  0.00000000000E+00  0.00000000000E+00  0.45593999997E+02  0.45594000000E+02  0.51100000000E-03 0.  1.
         11   -1    0    0    0    0 -0.00000000000E+00 -0.00000000000E+00 -0.45593999997E+02  0.45594000000E+02  0.51100000000E-03 0. -1.
    9900012    2    1    2    0    0 -0.89143565542E+00  0.76469632480E+00 -0.11623337461E+00  0.90007776210E+02  0.90000038056E+02 0.  0.
         12    1    1    2    0    0  0.89143565542E+00 -0.76469632480E+00  0.11623337461E+00  0.11802237899E+01  0.00000000000E+00 0. -1.
         11    1    3    3    0    0  0.16885067899E+02 -0.15070997404E+02  0.33763665505E+02  0.40647577902E+02  0.51100000000E-03 0. -1.
        -11    1    3    3    0    0  0.71236477167E+01  0.28480576131E+01 -0.55464326201E+01  0.94668212210E+01  0.51100000000E-03 0.  1.
        -12    1    3    3    0    0 -0.24900151271E+02  0.12987636115E+02 -0.28333466259E+02  0.39893377087E+02  0.00000000000E+00 0.  1.
</event>
<event>
 7    1  0.2084210E-015  0.9000776E+02  0.7816164E-02  0.1186339E+00
        -11   -1    0    0    0    0  0.00000000000E+00  0.00000000000E+00  0.45593999997E+02  0.45594000000E+02  0.51100000000E-03 0.  1.
         11   -1    0    0    0    0 -0.00000000000E+00 -0.00000000000E+00 -0.45593999997E+02  0.45594000000E+02  0.51100000000E-03 0. -1.
    9900012    2    1    2    0    0  0.47321013244E-01 -0.52195664959E+00  0.10574930520E+01  0.90007758678E+02  0.90000020293E+02 0.  0.
         12    1    1    2    0    0 -0.47321013244E-01  0.52195664959E+00 -0.10574930520E+01  0.11802413217E+01  0.00000000000E+00 0. -1.
         11    1    3    3    0    0 -0.22138959571E+02 -0.13401493215E+02  0.75174747388E+01  0.26948951334E+02  0.51100000000E-03 0. -1.
        -11    1    3    3    0    0 -0.17751711228E+02 -0.46359954908E+00 -0.10709066400E+02  0.20736978553E+02  0.51100000000E-03 0.  1.
        -12    1    3    3    0    0  0.39937991813E+02  0.13343136114E+02  0.42490847134E+01  0.42321828792E+02  0.00000000000E+00 0.  1.
</event>
<event>
 7    1  0.2084210E-015  0.9000776E+02  0.7816164E-02  0.1186339E+00
        -11   -1    0    0    0    0  0.00000000000E+00  0.00000000000E+00  0.45593999997E+02  0.45594000000E+02  0.51100000000E-03 0.  1.
         11   -1    0    0    0    0 -0.00000000000E+00 -0.00000000000E+00 -0.45593999997E+02  0.45594000000E+02  0.51100000000E-03 0. -1.
    9900012    2    1    2    0    0  0.84500972609E+00 -0.41921342096E+00  0.70935534944E+00  0.90007760049E+02  0.90000021682E+02 0.  0.
         12    1    1    2    0    0 -0.84500972609E+00  0.41921342096E+00 -0.70935534944E+00  0.11802399507E+01  0.00000000000E+00 0. -1.
         11    1    3    3    0    0  0.33444664491E+02  0.52787559722E+00 -0.11615228762E+02  0.35408159723E+02  0.51100000000E-03 0. -1.
        -11    1    3    3    0    0  0.53748958796E+01 -0.31085749743E+01 -0.90454312481E+01  0.10971443424E+02  0.51100000000E-03 0.  1.
        -12    1    3    3    0    0 -0.37974550644E+02  0.21614859562E+01  0.21370015359E+02  0.43628156902E+02  0.00000000000E+00 0.  1.
</event>
<event>
 7    1  0.2084210E-015  0.9000775E+02  0.7816164E-02  0.1186339E+00
        -11   -1    0    0    0    0  0.00000000000E+00  0.00000000000E+00  0.45593999997E+02  0.45594000000E+02  0.51100000000E-03 0.  1.
         11   -1    0    0    0    0 -0.00000000000E+00 -0.00000000000E+00 -0.45593999997E+02  0.45594000000E+02  0.51100000000E-03 0. -1.
    9900012    2    1    2    0    0 -0.13140475903E+00 -0.11694146127E+01 -0.90556154797E-01  0.90007746568E+02  0.90000008023E+02 0.  0.
         12    1    1    2    0    0  0.13140475903E+00  0.11694146127E+01  0.90556154797E-01  0.11802534322E+01  0.00000000000E+00 0. -1.
         11    1    3    3    0    0  0.33387952957E+02 -0.17768238913E+01 -0.17942860252E+02  0.37945470614E+02  0.51100000000E-03 0. -1.
        -11    1    3    3    0    0 -0.32826860859E+01  0.32313892333E+01 -0.99109483134E+01  0.10929080522E+02  0.51100000000E-03 0.  1.
        -12    1    3    3    0    0 -0.30236671630E+02 -0.26239799547E+01  0.27763252410E+02  0.41133195433E+02  0.00000000000E+00 0.  1.
</event>
<event>
 7    1  0.2084210E-015  0.9000772E+02  0.7816164E-02  0.1186339E+00
        -11   -1    0    0    0    0  0.00000000000E+00  0.00000000000E+00  0.45593999997E+02  0.45594000000E+02  0.51100000000E-03 0. -1.
         11   -1    0    0    0    0 -0.00000000000E+00 -0.00000000000E+00 -0.45593999997E+02  0.45594000000E+02  0.51100000000E-03 0.  1.
    9900012    2    1    2    0    0  0.78452866443E+00 -0.49472629315E+00 -0.72993908297E+00  0.90007724441E+02  0.89999985604E+02 0.  0.
         12    1    1    2    0    0 -0.78452866443E+00  0.49472629315E+00  0.72993908297E+00  0.11802755591E+01  0.00000000000E+00 0. -1.
         11    1    3    3    0    0  0.20783025401E+02 -0.30670719214E+02  0.86278602410E+01  0.38040335626E+02  0.51100000000E-03 0. -1.
        -11    1    3    3    0    0 -0.72755983793E+01 -0.60395888785E+01  0.53457404184E+01  0.10862223828E+02  0.51100000000E-03 0.  1.
        -12    1    3    3    0    0 -0.12722898357E+02  0.36215581800E+02 -0.14703539742E+02  0.41105164987E+02  0.00000000000E+00 0.  1.
</event>
<event>
 7    1  0.2084210E-015  0.9000796E+02  0.7816164E-02  0.1186339E+00
        -11   -1    0    0    0    0  0.00000000000E+00  0.00000000000E+00  0.45593999997E+02  0.45594000000E+02  0.51100000000E-03 0. -1.
         11   -1    0    0    0    0 -0.00000000000E+00 -0.00000000000E+00 -0.45593999997E+02  0.45594000000E+02  0.51100000000E-03 0.  1.
    9900012    2    1    2    0    0 -0.74729560479E-01  0.26208218298E+00 -0.11481412798E+01  0.90007957638E+02  0.90000221879E+02 0.  0.
         12    1    1    2    0    0  0.74729560479E-01 -0.26208218298E+00  0.11481412798E+01  0.11800423620E+01  0.00000000000E+00 0. -1.
         11    1    3    3    0    0  0.84257200699E+00 -0.13038079288E+02 -0.27240182579E+01  0.13346224741E+02  0.51100000000E-03 0. -1.
        -11    1    3    3    0    0  0.17620286546E+02  0.18826017318E+01 -0.32038514659E+02  0.36612635921E+02  0.51100000000E-03 0.  1.
         12    1    3    3    0    0 -0.18537588114E+02  0.11417559740E+02  0.33614391637E+02  0.40049096976E+02  0.00000000000E+00 0. -1.
</event>
<event>
 7    1  0.2084210E-015  0.9000773E+02  0.7816164E-02  0.1186339E+00
        -11   -1    0    0    0    0  0.00000000000E+00  0.00000000000E+00  0.45593999997E+02  0.45594000000E+02  0.51100000000E-03 0.  1.
         11   -1    0    0    0    0 -0.00000000000E+00 -0.00000000000E+00 -0.45593999997E+02  0.45594000000E+02  0.51100000000E-03 0. -1.
    9900012    2    1    2    0    0 -0.11014646760E+01  0.16812319618E+00  0.38927768537E+00  0.90007734370E+02  0.89999995663E+02 0.  0.
         12    1    1    2    0    0  0.11014646760E+01 -0.16812319618E+00 -0.38927768537E+00  0.11802656302E+01  0.00000000000E+00 0. -1.
         11    1    3    3    0    0 -0.88165270214E+01 -0.17831103401E+01  0.96824959703E+01  0.13215950956E+02  0.51100000000E-03 0. -1.
        -11    1    3    3    0    0  0.39445910221E+02  0.14089165093E+02 -0.13805135820E+01  0.41909309517E+02  0.51100000000E-03 0.  1.
         12    1    3    3    0    0 -0.31730847876E+02 -0.12137931556E+02 -0.79127047030E+01  0.34882473896E+02  0.00000000000E+00 0. -1.
</event>
<event>
 7    1  0.2084210E-015  0.9000755E+02  0.7816164E-02  0.1186339E+00
        -11   -1    0    0    0    0  0.00000000000E+00  0.00000000000E+00  0.45593999997E+02  0.45594000000E+02  0.51100000000E-03 0. -1.
         11   -1    0    0    0    0 -0.00000000000E+00 -0.00000000000E+00 -0.45593999997E+02  0.45594000000E+02  0.51100000000E-03 0.  1.
    9900012    2    1    2    0    0 -0.49209781504E+00  0.26565775132E+00 -0.10395761183E+01  0.90007553980E+02  0.89999812892E+02 0.  0.
         12    1    1    2    0    0  0.49209781504E+00 -0.26565775132E+00  0.10395761183E+01  0.11804460200E+01  0.00000000000E+00 0. -1.
         11    1    3    3    0    0  0.75510057319E+01 -0.25275157251E+01  0.98698314077E+00  0.80237247762E+01  0.51100000000E-03 0. -1.
        -11    1    3    3    0    0  0.29570504851E+02 -0.20568977508E+02 -0.90789734486E+01  0.37147346500E+02  0.51100000000E-03 0.  1.
         12    1    3    3    0    0 -0.37613608398E+02  0.23362150985E+02  0.70524141896E+01  0.44836482704E+02  0.00000000000E+00 0. -1.
</event>
<event>
 7    1  0.2084210E-015  0.9000774E+02  0.7816164E-02  0.1186339E+00
        -11   -1    0    0    0    0  0.00000000000E+00  0.00000000000E+00  0.45593999997E+02  0.45594000000E+02  0.51100000000E-03 0.  1.
         11   -1    0    0    0    0 -0.00000000000E+00 -0.00000000000E+00 -0.45593999997E+02  0.45594000000E+02  0.51100000000E-03 0. -1.
    9900012    2    1    2    0    0  0.51643836711E-01 -0.81766416335E+00  0.84956823046E+00  0.90007742423E+02  0.90000003823E+02 0.  0.
         12    1    1    2    0    0 -0.51643836711E-01  0.81766416335E+00 -0.84956823046E+00  0.11802575770E+01  0.00000000000E+00 0. -1.
         11    1    3    3    0    0 -0.15860709001E+02 -0.34409994425E+02  0.10801876378E+02  0.39399115979E+02  0.51100000000E-03 0. -1.
        -11    1    3    3    0    0 -0.88676246311E+01  0.72696125224E+01 -0.87732751318E+01  0.14437880372E+02  0.51100000000E-03 0.  1.
        -12    1    3    3    0    0  0.24779977469E+02  0.26322717740E+02 -0.11790330161E+01  0.36170746072E+02  0.00000000000E+00 0.  1.
</event>
<event>
 7    1  0.2121233E-015  0.9000781E+02  0.7816164E-02  0.1186339E+00
        -11   -1    0    0    0    0  0.00000000000E+00  0.00000000000E+00  0.45593999997E+02  0.45594000000E+02  0.51100000000E-03 0. -1.
         11   -1    0    0    0    0 -0.00000000000E+00 -0.00000000000E+00 -0.45593999997E+02  0.45594000000E+02  0.51100000000E-03 0.  1.
    9900012    2    1    2    0    0 -0.10545313983E+01  0.90310027169E-01  0.52215830663E+00  0.90007812867E+02  0.90000075197E+02 0.  0.
         12    1    1    2    0    0  0.10545313983E+01 -0.90310027169E-01 -0.52215830663E+00  0.11801871327E+01  0.00000000000E+00 0. -1.
         11    1    3    3    0    0 -0.38633347256E+02  0.56950589827E+01 -0.13121360291E+01  0.39072892371E+02  0.51100000000E-03 0. -1.
        -11    1    3    3    0    0 -0.20146254787E+01  0.20029380372E+01  0.94818842717E+01  0.98983133009E+01  0.51100000000E-03 0.  1.
        -12    1    3    3    0    0  0.39593441337E+02 -0.76076869927E+01 -0.76475899360E+01  0.41036607195E+02  0.00000000000E+00 0.  1.
</event>
<event>
 7    1  0.2084210E-015  0.9000768E+02  0.7816164E-02  0.1186339E+00
        -11   -1    0    0    0    0  0.00000000000E+00  0.00000000000E+00  0.45593999997E+02  0.45594000000E+02  0.51100000000E-03 0. -1.
         11   -1    0    0    0    0 -0.00000000000E+00 -0.00000000000E+00 -0.45593999997E+02  0.45594000000E+02  0.51100000000E-03 0.  1.
    9900012    2    1    2    0    0  0.85974927646E+00 -0.74439870131E+00 -0.31600948119E+00  0.90007677910E+02  0.89999938458E+02 0.  0.
         12    1    1    2    0    0 -0.85974927646E+00  0.74439870131E+00  0.31600948119E+00  0.11803220904E+01  0.00000000000E+00 0. -1.
         11    1    3    3    0    0  0.34984629895E+01 -0.30242635242E+01  0.56795755637E+01  0.73241376283E+01  0.51100000000E-03 0. -1.
        -11    1    3    3    0    0  0.28746661586E+02  0.19961882569E+02  0.18043835955E+02  0.39375466020E+02  0.51100000000E-03 0.  1.
         12    1    3    3    0    0 -0.31385375299E+02 -0.17682017746E+02 -0.24039421000E+02  0.43308074262E+02  0.00000000000E+00 0. -1.
</event>
<event>
 7    1  0.2084210E-015  0.9000764E+02  0.7816164E-02  0.1186339E+00
        -11   -1    0    0    0    0  0.00000000000E+00  0.00000000000E+00  0.45593999997E+02  0.45594000000E+02  0.51100000000E-03 0. -1.
         11   -1    0    0    0    0 -0.00000000000E+00 -0.00000000000E+00 -0.45593999997E+02  0.45594000000E+02  0.51100000000E-03 0.  1.
    9900012    2    1    2    0    0 -0.92130303400E+00  0.50424477613E-01 -0.73614428305E+00  0.90007639753E+02  0.89999899797E+02 0.  0.
         12    1    1    2    0    0  0.92130303400E+00 -0.50424477613E-01  0.73614428305E+00  0.11803602475E+01  0.00000000000E+00 0. -1.
         11    1    3    3    0    0 -0.75639008644E+01  0.12388553001E+01  0.75452981625E+01  0.10755411817E+02  0.51100000000E-03 0. -1.
        -11    1    3    3    0    0 -0.45394719171E+00 -0.27171307206E+02  0.24663388554E+02  0.36698347900E+02  0.51100000000E-03 0.  1.
         12    1    3    3    0    0  0.70965450221E+01  0.25982876384E+02 -0.32944831000E+02  0.42553880035E+02  0.00000000000E+00 0. -1.
</event>
<event>
 7    1  0.2084210E-015  0.9000769E+02  0.7816164E-02  0.1186339E+00
        -11   -1    0    0    0    0  0.00000000000E+00  0.00000000000E+00  0.45593999997E+02  0.45594000000E+02  0.51100000000E-03 0.  1.
         11   -1    0    0    0    0 -0.00000000000E+00 -0.00000000000E+00 -0.45593999997E+02  0.45594000000E+02  0.51100000000E-03 0. -1.
    9900012    2    1    2    0    0  0.19326340183E+00  0.11619576064E+01 -0.75017208988E-01  0.90007693344E+02  0.89999954096E+02 0.  0.
         12    1    1    2    0    0 -0.19326340183E+00 -0.11619576064E+01  0.75017208988E-01  0.11803066565E+01  0.00000000000E+00 0. -1.
         11    1    3    3    0    0  0.49753656917E+01  0.98255544558E+01 -0.13748337173E+02  0.17615690716E+02  0.51100000000E-03 0. -1.
        -11    1    3    3    0    0 -0.33058667003E+02 -0.72018931489E+01 -0.10219575565E+02  0.35343775321E+02  0.51100000000E-03 0.  1.
         12    1    3    3    0    0  0.28276564714E+02 -0.14617037004E+01  0.23892895529E+02  0.37048227306E+02  0.00000000000E+00 0. -1.
</event>
<event>
 7    1  0.2084210E-015  0.9000747E+02  0.7816164E-02  0.1186340E+00
        -11   -1    0    0    0    0  0.00000000000E+00  0.00000000000E+00  0.45593999997E+02  0.45594000000E+02  0.51100000000E-03 0. -1.
         11   -1    0    0    0    0 -0.00000000000E+00 -0.00000000000E+00 -0.45593999997E+02  0.45594000000E+02  0.51100000000E-03 0.  1.
    9900012    2    1    2    0    0  0.10181481079E+01  0.57359702753E+00  0.16736642374E+00  0.90007470187E+02  0.89999727993E+02 0.  0.
         12    1    1    2    0    0 -0.10181481079E+01 -0.57359702753E+00 -0.16736642374E+00  0.11805298130E+01  0.00000000000E+00 0. -1.
         11    1    3    3    0    0  0.81713842675E+01 -0.31531130511E+02 -0.19072328754E+02  0.37745694278E+02  0.51100000000E-03 0. -1.
        -11    1    3    3    0    0  0.87559897187E+01  0.10215356024E+01 -0.46373260321E+01  0.99607069995E+01  0.51100000000E-03 0.  1.
        -12    1    3    3    0    0 -0.15909225878E+02  0.31083191936E+02  0.23877021210E+02  0.42301068909E+02  0.00000000000E+00 0.  1.
</event>
<event>
 7    1  0.2084210E-015  0.9000774E+02  0.7816164E-02  0.1186339E+00
        -11   -1    0    0    0    0  0.00000000000E+00  0.00000000000E+00  0.45593999997E+02  0.45594000000E+02  0.51100000000E-03 0. -1.
         11   -1    0    0    0    0 -0.00000000000E+00 -0.00000000000E+00 -0.45593999997E+02  0.45594000000E+02  0.51100000000E-03 0.  1.
    9900012    2    1    2    0    0 -0.10627130530E+01 -0.48477533832E+00 -0.16924702604E+00  0.90007741250E+02  0.90000002634E+02 0.  0.
         12    1    1    2    0    0  0.10627130530E+01  0.48477533832E+00  0.16924702604E+00  0.11802587502E+01  0.00000000000E+00 0. -1.
         11    1    3    3    0    0  0.14405749423E+01 -0.12815022432E+01  0.10843433547E+02  0.11013516945E+02  0.51100000000E-03 0. -1.
        -11    1    3    3    0    0 -0.21864579655E+02 -0.32534879590E+02 -0.11978204736E+01  0.39217508942E+02  0.51100000000E-03 0.  1.
         12    1    3    3    0    0  0.19361291660E+02  0.33331606495E+02 -0.98148600990E+01  0.39776715363E+02  0.00000000000E+00 0. -1.
</event>
<event>
 7    1  0.2084210E-015  0.9000777E+02  0.7816164E-02  0.1186339E+00
        -11   -1    0    0    0    0  0.00000000000E+00  0.00000000000E+00  0.45593999997E+02  0.45594000000E+02  0.51100000000E-03 0.  1.
         11   -1    0    0    0    0 -0.00000000000E+00 -0.00000000000E+00 -0.45593999997E+02  0.45594000000E+02  0.51100000000E-03 0. -1.
    9900012    2    1    2    0    0  0.11441474254E+01 -0.22962878627E+00 -0.17649175454E+00  0.90007766104E+02  0.90000027816E+02 0.  0.
         12    1    1    2    0    0 -0.11441474254E+01  0.22962878627E+00  0.17649175454E+00  0.11802338963E+01  0.00000000000E+00 0. -1.
         11    1    3    3    0    0 -0.13733932873E+02 -0.99483502077E+01  0.65100776699E+01  0.18165123053E+02  0.51100000000E-03 0. -1.
        -11    1    3    3    0    0  0.39394305394E+02  0.11768172638E+02  0.97507996399E+01  0.42254932003E+02  0.51100000000E-03 0.  1.
         12    1    3    3    0    0 -0.24516225096E+02 -0.20494512165E+01 -0.16437369064E+02  0.29587711047E+02  0.00000000000E+00 0. -1.
</event>
<event>
 7    1  0.2084210E-015  0.9000754E+02  0.7816164E-02  0.1186339E+00
        -11   -1    0    0    0    0  0.00000000000E+00  0.00000000000E+00  0.45593999997E+02  0.45594000000E+02  0.51100000000E-03 0.  1.
         11   -1    0    0    0    0 -0.00000000000E+00 -0.00000000000E+00 -0.45593999997E+02  0.45594000000E+02  0.51100000000E-03 0. -1.
    9900012    2    1    2    0    0 -0.18538658474E+00  0.98778965695E+00 -0.61917534154E+00  0.90007544708E+02  0.89999803498E+02 0.  0.
         12    1    1    2    0    0  0.18538658474E+00 -0.98778965695E+00  0.61917534154E+00  0.11804552917E+01  0.00000000000E+00 0. -1.
         11    1    3    3    0    0  0.14778856927E+02  0.20454613747E+02 -0.32262680617E+02  0.40959570267E+02  0.51100000000E-03 0. -1.
        -11    1    3    3    0    0  0.12319499026E+01 -0.69510852430E+01 -0.38755682641E+01  0.80532798441E+01  0.51100000000E-03 0.  1.
        -12    1    3    3    0    0 -0.16196193414E+02 -0.12515738847E+02  0.35519073540E+02  0.40994694597E+02  0.00000000000E+00 0.  1.
</event>
<event>
 7    1  0.3688470E-015  0.9000767E+02  0.7816164E-02  0.1186339E+00
        -11   -1    0    0    0    0  0.00000000000E+00  0.00000000000E+00  0.45593999997E+02  0.45594000000E+02  0.51100000000E-03 0. -1.
         11   -1    0    0    0    0 -0.00000000000E+00 -0.00000000000E+00 -0.45593999997E+02  0.45594000000E+02  0.51100000000E-03 0.  1.
    9900012    2    1    2    0    0  0.30031776571E+00 -0.19809190142E+00 -0.11241667091E+01  0.90007668711E+02  0.89999929138E+02 0.  0.
         12    1    1    2    0    0 -0.30031776571E+00  0.19809190142E+00  0.11241667091E+01  0.11803312890E+01  0.00000000000E+00 0. -1.
         11    1    3    3    0    0  0.76208798947E+01  0.34525669969E+02  0.12723885779E+02  0.37576548095E+02  0.51100000000E-03 0. -1.
        -11    1    3    3    0    0  0.94647601893E+01  0.23800641436E+01 -0.14838861028E+01  0.98715910063E+01  0.51100000000E-03 0.  1.
        -12    1    3    3    0    0 -0.16785322318E+02 -0.37103826014E+02 -0.12364166385E+02  0.42559529610E+02  0.00000000000E+00 0.  1.
</event>
<event>
 7    1  0.2084210E-015  0.9000720E+02  0.7816164E-02  0.1186340E+00
        -11   -1    0    0    0    0  0.00000000000E+00  0.00000000000E+00  0.45593999997E+02  0.45594000000E+02  0.51100000000E-03 0. -1.
         11   -1    0    0    0    0 -0.00000000000E+00 -0.00000000000E+00 -0.45593999997E+02  0.45594000000E+02  0.51100000000E-03 0.  1.
    9900012    2    1    2    0    0  0.35213976956E-01  0.33879994030E+00 -0.11306034965E+01  0.90007199555E+02  0.89999453788E+02 0.  0.
         12    1    1    2    0    0 -0.35213976956E-01 -0.33879994030E+00  0.11306034965E+01  0.11808004446E+01  0.00000000000E+00 0. -1.
         11    1    3    3    0    0 -0.55897042564E+01 -0.12772201395E+02 -0.67169496937E+01  0.15475507604E+02  0.51100000000E-03 0. -1.
        -11    1    3    3    0    0  0.12957247068E+01 -0.30435138938E+02  0.41813328302E+01  0.30748335389E+02  0.51100000000E-03 0.  1.
         12    1    3    3    0    0  0.43291935266E+01  0.43546140273E+02  0.14050133669E+01  0.43783356562E+02  0.00000000000E+00 0. -1.
</event>
<event>
 7    1  0.2084210E-015  0.9000777E+02  0.7816164E-02  0.1186339E+00
        -11   -1    0    0    0    0  0.00000000000E+00  0.00000000000E+00  0.45593999997E+02  0.45594000000E+02  0.51100000000E-03 0.  1.
         11   -1    0    0    0    0 -0.00000000000E+00 -0.00000000000E+00 -0.45593999997E+02  0.45594000000E+02  0.51100000000E-03 0. -1.
    9900012    2    1    2    0    0 -0.82108946848E+00 -0.81913066544E+00  0.21859703110E+00  0.90007767979E+02  0.90000029716E+02 0.  0.
         12    1    1    2    0    0  0.82108946848E+00  0.81913066544E+00 -0.21859703110E+00  0.11802320214E+01  0.00000000000E+00 0. -1.
         11    1    3    3    0    0 -0.54464426953E+01 -0.32497771529E+01  0.62797002747E+01  0.89252129038E+01  0.51100000000E-03 0. -1.
        -11    1    3    3    0    0  0.12856481700E+02 -0.36438221952E+02  0.69820253961E+01  0.39265529662E+02  0.51100000000E-03 0.  1.
         12    1    3    3    0    0 -0.82311284735E+01  0.38868868439E+02 -0.13043128640E+02  0.41817025413E+02  0.00000000000E+00 0. -1.
</event>
<event>
 7    1  0.2084210E-015  0.9000787E+02  0.7816164E-02  0.1186339E+00
        -11   -1    0    0    0    0  0.00000000000E+00  0.00000000000E+00  0.45593999997E+02  0.45594000000E+02  0.51100000000E-03 0.  1.
         11   -1    0    0    0    0 -0.00000000000E+00 -0.00000000000E+00 -0.45593999997E+02  0.45594000000E+02  0.51100000000E-03 0. -1.
    9900012    2    1    2    0    0 -0.82223741064E+00 -0.61659060120E-01  0.84429982839E+00  0.90007865093E+02  0.90000128112E+02 0.  0.
         12    1    1    2    0    0  0.82223741064E+00  0.61659060120E-01 -0.84429982839E+00  0.11801349073E+01  0.00000000000E+00 0. -1.
         11    1    3    3    0    0  0.14085251188E+02  0.29827108313E+02 -0.27817880259E+02  0.43149567248E+02  0.51100000000E-03 0. -1.
        -11    1    3    3    0    0 -0.15855736637E+00 -0.33783201829E+01  0.11534733273E+02  0.12020326936E+02  0.51100000000E-03 0.  1.
        -12    1    3    3    0    0 -0.14748931232E+02 -0.26510447190E+02  0.17127446814E+02  0.34837970909E+02  0.00000000000E+00 0.  1.
</event>
<event>
 7    1  0.2084210E-015  0.9000777E+02  0.7816164E-02  0.1186339E+00
        -11   -1    0    0    0    0  0.00000000000E+00  0.00000000000E+00  0.45593999997E+02  0.45594000000E+02  0.51100000000E-03 0.  1.
         11   -1    0    0    0    0 -0.00000000000E+00 -0.00000000000E+00 -0.45593999997E+02  0.45594000000E+02  0.51100000000E-03 0. -1.
    9900012    2    1    2    0    0  0.97566157485E+00 -0.50484625932E+00  0.43147194590E+00  0.90007765577E+02  0.90000027282E+02 0.  0.
         12    1    1    2    0    0 -0.97566157485E+00  0.50484625932E+00 -0.43147194590E+00  0.11802344234E+01  0.00000000000E+00 0. -1.
         11    1    3    3    0    0  0.18097747390E+01  0.12171170854E+02  0.51222669447E+01  0.13328552189E+02  0.51100000000E-03 0. -1.
        -11    1    3    3    0    0 -0.24750425185E+02 -0.63408260272E+01  0.26537514658E+02  0.36837878685E+02  0.51100000000E-03 0.  1.
         12    1    3    3    0    0  0.23916312021E+02 -0.63351910857E+01 -0.31228309657E+02  0.39841334702E+02  0.00000000000E+00 0. -1.
</event>
<event>
 7    1  0.2084210E-015  0.9000776E+02  0.7816164E-02  0.1186339E+00
        -11   -1    0    0    0    0  0.00000000000E+00  0.00000000000E+00  0.45593999997E+02  0.45594000000E+02  0.51100000000E-03 0. -1.
         11   -1    0    0    0    0 -0.00000000000E+00 -0.00000000000E+00 -0.45593999997E+02  0.45594000000E+02  0.51100000000E-03 0.  1.
    9900012    2    1    2    0    0  0.96325433480E+00 -0.38190011873E+00  0.56503885966E+00  0.90007756158E+02  0.90000017739E+02 0.  0.
         12    1    1    2    0    0 -0.96325433480E+00  0.38190011873E+00 -0.56503885966E+00  0.11802438422E+01  0.00000000000E+00 0. -1.
         11    1    3    3    0    0 -0.99228019740E+01 -0.35492035955E+02  0.29858786849E+01  0.36973802713E+02  0.51100000000E-03 0. -1.
        -11    1    3    3    0    0  0.19819730521E+01 -0.67407407395E+01 -0.71030260491E+01  0.99909350019E+01  0.51100000000E-03 0.  1.
        -12    1    3    3    0    0  0.89040832568E+01  0.41850876576E+02  0.46821862239E+01  0.43043018443E+02  0.00000000000E+00 0.  1.
</event>
<event>
 7    1  0.2084210E-015  0.9000777E+02  0.7816164E-02  0.1186339E+00
        -11   -1    0    0    0    0  0.00000000000E+00  0.00000000000E+00  0.45593999997E+02  0.45594000000E+02  0.51100000000E-03 0.  1.
         11   -1    0    0    0    0 -0.00000000000E+00 -0.00000000000E+00 -0.45593999997E+02  0.45594000000E+02  0.51100000000E-03 0. -1.
    9900012    2    1    2    0    0  0.11392232907E+01  0.30804467575E+00  0.14758149859E-01  0.90007771619E+02  0.90000033404E+02 0.  0.
         12    1    1    2    0    0 -0.11392232907E+01 -0.30804467575E+00 -0.14758149859E-01  0.11802283810E+01  0.00000000000E+00 0. -1.
         11    1    3    3    0    0  0.29272513417E+02  0.21321256420E+02 -0.11602729060E+02  0.38027612849E+02  0.51100000000E-03 0. -1.
        -11    1    3    3    0    0  0.41943467593E+01 -0.27842352979E+01 -0.84149226778E+01  0.98058877654E+01  0.51100000000E-03 0.  1.
        -12    1    3    3    0    0 -0.32327636886E+02 -0.18228976446E+02  0.20032409887E+02  0.42174271005E+02  0.00000000000E+00 0.  1.
</event>
<event>
 7    1  0.2084210E-015  0.9000779E+02  0.7816164E-02  0.1186339E+00
        -11   -1    0    0    0    0  0.00000000000E+00  0.00000000000E+00  0.45593999997E+02  0.45594000000E+02  0.51100000000E-03 0.  1.
         11   -1    0    0    0    0 -0.00000000000E+00 -0.00000000000E+00 -0.45593999997E+02  0.45594000000E+02  0.51100000000E-03 0. -1.
    9900012    2    1    2    0    0  0.11720350305E+01  0.12219055566E+00 -0.65648963806E-01  0.90007785430E+02  0.90000047398E+02 0.  0.
         12    1    1    2    0    0 -0.11720350305E+01 -0.12219055566E+00  0.65648963806E-01  0.11802145699E+01  0.00000000000E+00 0. -1.
         11    1    3    3    0    0  0.31569929026E+02 -0.79164616164E+01 -0.80144164300E+00  0.32557227957E+02  0.51100000000E-03 0. -1.
        -11    1    3    3    0    0 -0.55160381766E+01 -0.10228602519E+02  0.18491977536E+02  0.21840426280E+02  0.51100000000E-03 0.  1.
         12    1    3    3    0    0 -0.24881855819E+02  0.18267254691E+02 -0.17756184857E+02  0.35610131193E+02  0.00000000000E+00 0. -1.
</event>
<event>
 7    1  0.2084210E-015  0.9000781E+02  0.7816164E-02  0.1186339E+00
        -11   -1    0    0    0    0  0.00000000000E+00  0.00000000000E+00  0.45593999997E+02  0.45594000000E+02  0.51100000000E-03 0.  1.
         11   -1    0    0    0    0 -0.00000000000E+00 -0.00000000000E+00 -0.45593999997E+02  0.45594000000E+02  0.51100000000E-03 0. -1.
    9900012    2    1    2    0    0  0.14778344744E+00  0.96606270208E+00  0.66161461928E+00  0.90007808915E+02  0.90000071193E+02 0.  0.
         12    1    1    2    0    0 -0.14778344744E+00 -0.96606270208E+00 -0.66161461928E+00  0.11801910846E+01  0.00000000000E+00 0. -1.
         11    1    3    3    0    0  0.17010498852E+02 -0.17688006409E+01 -0.18324218488E+02  0.25065169267E+02  0.51100000000E-03 0. -1.
        -11    1    3    3    0    0  0.10968475005E+01  0.89179698312E+01 -0.19806790889E+02  0.21749533924E+02  0.51100000000E-03 0.  1.
        -12    1    3    3    0    0 -0.17959562905E+02 -0.61831064881E+01  0.38792623997E+02  0.43193105724E+02  0.00000000000E+00 0.  1.
</event>
<event>
 7    1  0.2084210E-015  0.9000771E+02  0.7816164E-02  0.1186339E+00
        -11   -1    0    0    0    0  0.00000000000E+00  0.00000000000E+00  0.45593999997E+02  0.45594000000E+02  0.51100000000E-03 0.  1.
         11   -1    0    0    0    0 -0.00000000000E+00 -0.00000000000E+00 -0.45593999997E+02  0.45594000000E+02  0.51100000000E-03 0. -1.
    9900012    2    1    2    0    0 -0.14461516159E+00 -0.95716294292E+00  0.67528013529E+00  0.90007712872E+02  0.89999973882E+02 0.  0.
         12    1    1    2    0    0  0.14461516159E+00  0.95716294292E+00 -0.67528013529E+00  0.11802871284E+01  0.00000000000E+00 0. -1.
         11    1    3    3    0    0 -0.48735937574E+01 -0.34569041719E+01  0.59312310776E+01  0.84191213867E+01  0.51100000000E-03 0. -1.
        -11    1    3    3    0    0  0.37165227342E+02 -0.70669854189E+01  0.16610717485E+02  0.41317216048E+02  0.51100000000E-03 0.  1.
         12    1    3    3    0    0 -0.32436248746E+02  0.95667266479E+01 -0.21866668427E+02  0.40271375437E+02  0.00000000000E+00 0. -1.
</event>
<event>
 7    1  0.2084210E-015  0.9000770E+02  0.7816164E-02  0.1186339E+00
        -11   -1    0    0    0    0  0.00000000000E+00  0.00000000000E+00  0.45593999997E+02  0.45594000000E+02  0.51100000000E-03 0. -1.
         11   -1    0    0    0    0 -0.00000000000E+00 -0.00000000000E+00 -0.45593999997E+02  0.45594000000E+02  0.51100000000E-03 0.  1.
    9900012    2    1    2    0    0  0.75502442212E+00 -0.90152184186E+00 -0.10153750957E+00  0.90007697761E+02  0.89999958572E+02 0.  0.
         12    1    1    2    0    0 -0.75502442212E+00  0.90152184186E+00  0.10153750957E+00  0.11803022389E+01  0.00000000000E+00 0. -1.
         11    1    3    3    0    0  0.84545716202E+01  0.12333829740E+01 -0.10131019426E+02  0.13252870245E+02  0.51100000000E-03 0. -1.
        -11    1    3    3    0    0  0.29215620207E+02 -0.37030415734E+01 -0.14073863356E+02  0.32639525287E+02  0.51100000000E-03 0.  1.
         12    1    3    3    0    0 -0.36915167405E+02  0.15681367575E+01  0.24103345273E+02  0.44115302229E+02  0.00000000000E+00 0. -1.
</event>
<event>
 7    1  0.2084210E-015  0.9000777E+02  0.7816164E-02  0.1186339E+00
        -11   -1    0    0    0    0  0.00000000000E+00  0.00000000000E+00  0.45593999997E+02  0.45594000000E+02  0.51100000000E-03 0. -1.
         11   -1    0    0    0    0 -0.00000000000E+00 -0.00000000000E+00 -0.45593999997E+02  0.45594000000E+02  0.51100000000E-03 0.  1.
    9900012    2    1    2    0    0 -0.64544385612E+00  0.14176059586E+00 -0.97787784258E+00  0.90007771669E+02  0.90000033455E+02 0.  0.
         12    1    1    2    0    0  0.64544385612E+00 -0.14176059586E+00  0.97787784258E+00  0.11802283309E+01  0.00000000000E+00 0. -1.
         11    1    3    3    0    0 -0.31987352821E+02 -0.25518714601E+01  0.16176786374E+02  0.35935931964E+02  0.51100000000E-03 0. -1.
        -11    1    3    3    0    0 -0.91534801261E+01 -0.42829544459E+01 -0.21953291875E+01  0.10341632739E+02  0.51100000000E-03 0.  1.
        -12    1    3    3    0    0  0.40495389091E+02  0.69765865019E+01 -0.14959335029E+02  0.43730206967E+02  0.00000000000E+00 0.  1.
</event>
<event>
 7    1  0.2084210E-015  0.9000780E+02  0.7816164E-02  0.1186339E+00
        -11   -1    0    0    0    0  0.00000000000E+00  0.00000000000E+00  0.45593999997E+02  0.45594000000E+02  0.51100000000E-03 0. -1.
         11   -1    0    0    0    0 -0.00000000000E+00 -0.00000000000E+00 -0.45593999997E+02  0.45594000000E+02  0.51100000000E-03 0.  1.
    9900012    2    1    2    0    0  0.11168855223E+01  0.61160172528E-01  0.37643894898E+00  0.90007796577E+02  0.90000058692E+02 0.  0.
         12    1    1    2    0    0 -0.11168855223E+01 -0.61160172528E-01 -0.37643894898E+00  0.11802034227E+01  0.00000000000E+00 0. -1.
         11    1    3    3    0    0 -0.21605750688E+02  0.31966159536E+02 -0.16429456836E+01  0.38617911506E+02  0.51100000000E-03 0. -1.
        -11    1    3    3    0    0  0.57078070727E+01 -0.64111590119E+01  0.15646789856E+02  0.17846681891E+02  0.51100000000E-03 0.  1.
        -12    1    3    3    0    0  0.17014829137E+02 -0.25493840352E+02 -0.13627405224E+02  0.33543203180E+02  0.00000000000E+00 0.  1.
</event>
<event>
 7    1  0.2084210E-015  0.9000777E+02  0.7816164E-02  0.1186339E+00
        -11   -1    0    0    0    0  0.00000000000E+00  0.00000000000E+00  0.45593999997E+02  0.45594000000E+02  0.51100000000E-03 0.  1.
         11   -1    0    0    0    0 -0.00000000000E+00 -0.00000000000E+00 -0.45593999997E+02  0.45594000000E+02  0.51100000000E-03 0. -1.
    9900012    2    1    2    0    0 -0.29231478516E+00 -0.55365981937E+00 -0.10004773084E+01  0.90007770372E+02  0.90000032141E+02 0.  0.
         12    1    1    2    0    0  0.29231478516E+00  0.55365981937E+00  0.10004773084E+01  0.11802296276E+01  0.00000000000E+00 0. -1.
         11    1    3    3    0    0 -0.78091517424E+01  0.39451359195E+02 -0.89460382996E+01  0.41199808189E+02  0.51100000000E-03 0. -1.
        -11    1    3    3    0    0  0.10607901978E+02 -0.34318789642E+01  0.41989104662E+01  0.11913699130E+02  0.51100000000E-03 0.  1.
        -12    1    3    3    0    0 -0.30910650210E+01 -0.36573140050E+02  0.37466505250E+01  0.36894263053E+02  0.00000000000E+00 0.  1.
</event>
<event>
 7    1  0.2084210E-015  0.9000785E+02  0.7816164E-02  0.1186339E+00
        -11   -1    0    0    0    0  0.00000000000E+00  0.00000000000E+00  0.45593999997E+02  0.45594000000E+02  0.51100000000E-03 0. -1.
         11   -1    0    0    0    0 -0.00000000000E+00 -0.00000000000E+00 -0.45593999997E+02  0.45594000000E+02  0.51100000000E-03 0.  1.
    9900012    2    1    2    0    0  0.27105080097E+00  0.87720772193E+00  0.74147171863E+00  0.90007854995E+02  0.90000117881E+02 0.  0.
         12    1    1    2    0    0 -0.27105080097E+00 -0.87720772193E+00 -0.74147171863E+00  0.11801450053E+01  0.00000000000E+00 0. -1.
         11    1    3    3    0    0 -0.99389685092E+01  0.34968800691E+00  0.24906832814E+01  0.10252262199E+02  0.51100000000E-03 0. -1.
        -11    1    3    3    0    0  0.19029356128E+02 -0.24376717581E+02  0.26753819467E+02  0.40891412436E+02  0.51100000000E-03 0.  1.
         12    1    3    3    0    0 -0.88193368176E+01  0.24904237296E+02 -0.28503031030E+02  0.38864180360E+02  0.00000000000E+00 0. -1.
</event>
<event>
 7    1  0.2084210E-015  0.9000780E+02  0.7816164E-02  0.1186339E+00
        -11   -1    0    0    0    0  0.00000000000E+00  0.00000000000E+00  0.45593999997E+02  0.45594000000E+02  0.51100000000E-03 0.  1.
         11   -1    0    0    0    0 -0.00000000000E+00 -0.00000000000E+00 -0.45593999997E+02  0.45594000000E+02  0.51100000000E-03 0. -1.
    9900012    2    1    2    0    0 -0.11655653419E+01 -0.15389216803E+00  0.10321605224E+00  0.90007797086E+02  0.90000059207E+02 0.  0.
         12    1    1    2    0    0  0.11655653419E+01  0.15389216803E+00 -0.10321605224E+00  0.11802029144E+01  0.00000000000E+00 0. -1.
         11    1    3    3    0    0  0.31717897052E+02 -0.22488411570E+01  0.91839499736E+01  0.33097238817E+02  0.51100000000E-03 0. -1.
        -11    1    3    3    0    0  0.88119701441E+01  0.14856000408E+01  0.78597617246E+01  0.11900994913E+02  0.51100000000E-03 0.  1.
        -12    1    3    3    0    0 -0.41695432538E+02  0.60934894811E+00 -0.16940495646E+02  0.45009563355E+02  0.00000000000E+00 0.  1.
</event>
<event>
 7    1  0.2084210E-015  0.9000774E+02  0.7816164E-02  0.1186339E+00
        -11   -1    0    0    0    0  0.00000000000E+00  0.00000000000E+00  0.45593999997E+02  0.45594000000E+02  0.51100000000E-03 0. -1.
         11   -1    0    0    0    0 -0.00000000000E+00 -0.00000000000E+00 -0.45593999997E+02  0.45594000000E+02  0.51100000000E-03 0.  1.
    9900012    2    1    2    0    0 -0.55148639752E+00 -0.10364652746E+01 -0.12090677758E+00  0.90007739028E+02  0.90000000384E+02 0.  0.
         12    1    1    2    0    0  0.55148639752E+00  0.10364652746E+01  0.12090677758E+00  0.11802609716E+01  0.00000000000E+00 0. -1.
         11    1    3    3    0    0  0.12713952090E+02 -0.29028150321E+02  0.23464001359E+02  0.39431427173E+02  0.51100000000E-03 0. -1.
        -11    1    3    3    0    0 -0.90213895854E+01 -0.46199449841E+01 -0.49506646945E-01  0.10135670322E+02  0.51100000000E-03 0.  1.
        -12    1    3    3    0    0 -0.42440489024E+01  0.32611630031E+02 -0.23535401490E+02  0.40440641534E+02  0.00000000000E+00 0.  1.
</event>
<event>
 7    1  0.2084210E-015  0.9000820E+02  0.7816164E-02  0.1186338E+00
        -11   -1    0    0    0    0  0.00000000000E+00  0.00000000000E+00  0.45593999997E+02  0.45594000000E+02  0.51100000000E-03 0.  1.
         11   -1    0    0    0    0 -0.00000000000E+00 -0.00000000000E+00 -0.45593999997E+02  0.45594000000E+02  0.51100000000E-03 0. -1.
    9900012    2    1    2    0    0 -0.53527423094E+00  0.10221988761E+01  0.24598443411E+00  0.90008204515E+02  0.90000472013E+02 0.  0.
         12    1    1    2    0    0  0.53527423094E+00 -0.10221988761E+01 -0.24598443411E+00  0.11797954850E+01  0.00000000000E+00 0. -1.
         11    1    3    3    0    0  0.82748463745E+01 -0.38445904415E+02 -0.64804656621E+01  0.39856706892E+02  0.51100000000E-03 0. -1.
        -11    1    3    3    0    0  0.78632648793E+01  0.21728282828E+01  0.43123121644E+01  0.92275757257E+01  0.51100000000E-03 0.  1.
        -12    1    3    3    0    0 -0.16673385485E+02  0.37295275009E+02  0.24141379317E+01  0.40923921897E+02  0.00000000000E+00 0.  1.
</event>
<event>
 7    1  0.2084210E-015  0.9000777E+02  0.7816164E-02  0.1186339E+00
        -11   -1    0    0    0    0  0.00000000000E+00  0.00000000000E+00  0.45593999997E+02  0.45594000000E+02  0.51100000000E-03 0. -1.
         11   -1    0    0    0    0 -0.00000000000E+00 -0.00000000000E+00 -0.45593999997E+02  0.45594000000E+02  0.51100000000E-03 0.  1.
    9900012    2    1    2    0    0 -0.20017880072E-01 -0.10107995530E+01 -0.60896294922E+00  0.90007765987E+02  0.90000027698E+02 0.  0.
         12    1    1    2    0    0  0.20017880072E-01  0.10107995530E+01  0.60896294922E+00  0.11802340130E+01  0.00000000000E+00 0. -1.
         11    1    3    3    0    0 -0.84617535493E+01  0.27844759861E+01  0.36759195819E+01  0.96367507325E+01  0.51100000000E-03 0. -1.
        -11    1    3    3    0    0  0.18020782190E+02  0.28317521624E+02  0.19921230793E+02  0.39031859528E+02  0.51100000000E-03 0.  1.
         12    1    3    3    0    0 -0.95790465209E+01 -0.32112797163E+02 -0.24206113324E+02  0.41339155726E+02  0.00000000000E+00 0. -1.
</event>
<event>
 7    1  0.2084210E-015  0.9000771E+02  0.7816164E-02  0.1186339E+00
        -11   -1    0    0    0    0  0.00000000000E+00  0.00000000000E+00  0.45593999997E+02  0.45594000000E+02  0.51100000000E-03 0. -1.
         11   -1    0    0    0    0 -0.00000000000E+00 -0.00000000000E+00 -0.45593999997E+02  0.45594000000E+02  0.51100000000E-03 0.  1.
    9900012    2    1    2    0    0  0.88836837674E+00 -0.13570044335E+00 -0.76516355059E+00  0.90007708408E+02  0.89999969359E+02 0.  0.
         12    1    1    2    0    0 -0.88836837674E+00  0.13570044335E+00  0.76516355059E+00  0.11802915920E+01  0.00000000000E+00 0. -1.
         11    1    3    3    0    0 -0.54777223606E+01 -0.88372358457E+00  0.64622177268E+01  0.85174331722E+01  0.51100000000E-03 0. -1.
        -11    1    3    3    0    0 -0.26894339863E+02 -0.16987898911E+02 -0.24378953915E+02  0.40077769652E+02  0.51100000000E-03 0.  1.
         12    1    3    3    0    0  0.33260430600E+02  0.17735922052E+02  0.17151572638E+02  0.41412505583E+02  0.00000000000E+00 0. -1.
</event>
<event>
 7    1  0.2084210E-015  0.9000777E+02  0.7816164E-02  0.1186339E+00
        -11   -1    0    0    0    0  0.00000000000E+00  0.00000000000E+00  0.45593999997E+02  0.45594000000E+02  0.51100000000E-03 0. -1.
         11   -1    0    0    0    0 -0.00000000000E+00 -0.00000000000E+00 -0.45593999997E+02  0.45594000000E+02  0.51100000000E-03 0.  1.
    9900012    2    1    2    0    0 -0.89165873851E+00 -0.73373603143E+00 -0.24396584041E+00  0.90007769853E+02  0.90000031615E+02 0.  0.
         12    1    1    2    0    0  0.89165873851E+00  0.73373603143E+00  0.24396584041E+00  0.11802301475E+01  0.00000000000E+00 0. -1.
         11    1    3    3    0    0  0.59990012510E+01  0.17668241734E+01 -0.52547663822E+01  0.81683690944E+01  0.51100000000E-03 0. -1.
        -11    1    3    3    0    0  0.25850481748E+02  0.16241172459E+02 -0.20071803892E+02  0.36536288826E+02  0.51100000000E-03 0.  1.
         12    1    3    3    0    0 -0.32741141738E+02 -0.18741732664E+02  0.25082604434E+02  0.45303111932E+02  0.00000000000E+00 0. -1.
</event>
<event>
 7    1  0.2084210E-015  0.9000774E+02  0.7816164E-02  0.1186339E+00
        -11   -1    0    0    0    0  0.00000000000E+00  0.00000000000E+00  0.45593999997E+02  0.45594000000E+02  0.51100000000E-03 0. -1.
         11   -1    0    0    0    0 -0.00000000000E+00 -0.00000000000E+00 -0.45593999997E+02  0.45594000000E+02  0.51100000000E-03 0.  1.
    9900012    2    1    2    0    0 -0.56575801837E+00  0.33471950587E+00 -0.98024987823E+00  0.90007741932E+02  0.90000003326E+02 0.  0.
         12    1    1    2    0    0  0.56575801837E+00 -0.33471950587E+00  0.98024987823E+00  0.11802580678E+01  0.00000000000E+00 0. -1.
         11    1    3    3    0    0  0.79204314566E+01 -0.37749044942E+02 -0.47410340570E+01  0.38861305082E+02  0.51100000000E-03 0. -1.
        -11    1    3    3    0    0  0.57244553834E+01 -0.17186395252E+01  0.64554163608E+01  0.87974719043E+01  0.51100000000E-03 0.  1.
        -12    1    3    3    0    0 -0.14210644858E+02  0.39802403973E+02 -0.26946321821E+01  0.42348964945E+02  0.00000000000E+00 0.  1.
</event>
<event>
 7    1  0.2084210E-015  0.9000770E+02  0.7816164E-02  0.1186339E+00
        -11   -1    0    0    0    0  0.00000000000E+00  0.00000000000E+00  0.45593999997E+02  0.45594000000E+02  0.51100000000E-03 0.  1.
         11   -1    0    0    0    0 -0.00000000000E+00 -0.00000000000E+00 -0.45593999997E+02  0.45594000000E+02  0.51100000000E-03 0. -1.
    9900012    2    1    2    0    0 -0.43871930572E+00 -0.10925198236E+01 -0.83811598917E-01  0.90007704029E+02  0.89999964923E+02 0.  0.
         12    1    1    2    0    0  0.43871930572E+00  0.10925198236E+01  0.83811598917E-01  0.11802959706E+01  0.00000000000E+00 0. -1.
         11    1    3    3    0    0  0.41253363584E+02  0.91796191411E+01 -0.12435376154E+02  0.44053876049E+02  0.51100000000E-03 0. -1.
        -11    1    3    3    0    0 -0.90445295192E+01 -0.21781093110E+01 -0.17765927190E+01  0.94712172578E+01  0.51100000000E-03 0.  1.
        -12    1    3    3    0    0 -0.32647553371E+02 -0.80940296537E+01  0.14128157274E+02  0.36482610722E+02  0.00000000000E+00 0.  1.
</event>
<event>
 7    1  0.2084210E-015  0.9000769E+02  0.7816164E-02  0.1186339E+00
        -11   -1    0    0    0    0  0.00000000000E+00  0.00000000000E+00  0.45593999997E+02  0.45594000000E+02  0.51100000000E-03 0.  1.
         11   -1    0    0    0    0 -0.00000000000E+00 -0.00000000000E+00 -0.45593999997E+02  0.45594000000E+02  0.51100000000E-03 0. -1.
    9900012    2    1    2    0    0 -0.54770995693E+00 -0.22563824226E+00  0.10208940338E+01  0.90007693497E+02  0.89999954251E+02 0.  0.
         12    1    1    2    0    0  0.54770995693E+00  0.22563824226E+00 -0.10208940338E+01  0.11803065033E+01  0.00000000000E+00 0. -1.
         11    1    3    3    0    0  0.71800186908E+01  0.31612863175E+01  0.22216530888E+01  0.81536582152E+01  0.51100000000E-03 0. -1.
        -11    1    3    3    0    0  0.33893918021E+02 -0.83791844463E+01 -0.14600976499E+02  0.37844377730E+02  0.51100000000E-03 0.  1.
         12    1    3    3    0    0 -0.41621646669E+02  0.49922598865E+01  0.13400217444E+02  0.44009657551E+02  0.00000000000E+00 0. -1.
</event>
<event>
 7    1  0.2084210E-015  0.9000779E+02  0.7816164E-02  0.1186339E+00
        -11   -1    0    0    0    0  0.00000000000E+00  0.00000000000E+00  0.45593999997E+02  0.45594000000E+02  0.51100000000E-03 0.  1.
         11   -1    0    0    0    0 -0.00000000000E+00 -0.00000000000E+00 -0.45593999997E+02  0.45594000000E+02  0.51100000000E-03 0. -1.
    9900012    2    1    2    0    0 -0.93498976962E+00 -0.59297941661E+00 -0.40873404634E+00  0.90007790706E+02  0.90000052743E+02 0.  0.
         12    1    1    2    0    0  0.93498976962E+00  0.59297941661E+00  0.40873404634E+00  0.11802092943E+01  0.00000000000E+00 0. -1.
         11    1    3    3    0    0 -0.56928107733E+01 -0.37893221634E+01  0.68182515793E+01  0.96568945225E+01  0.51100000000E-03 0. -1.
        -11    1    3    3    0    0 -0.14232275847E+02 -0.88475371381E+01  0.31436021668E+02  0.35623869074E+02  0.51100000000E-03 0.  1.
         12    1    3    3    0    0  0.18990096851E+02  0.12043879885E+02 -0.38663007293E+02  0.44727027110E+02  0.00000000000E+00 0. -1.
</event>
<event>
 7    1  0.2084210E-015  0.9000776E+02  0.7816164E-02  0.1186339E+00
        -11   -1    0    0    0    0  0.00000000000E+00  0.00000000000E+00  0.45593999997E+02  0.45594000000E+02  0.51100000000E-03 0.  1.
         11   -1    0    0    0    0 -0.00000000000E+00 -0.00000000000E+00 -0.45593999997E+02  0.45594000000E+02  0.51100000000E-03 0. -1.
    9900012    2    1    2    0    0 -0.78921058944E+00  0.83544237394E+00 -0.26859356953E+00  0.90007762812E+02  0.90000024481E+02 0.  0.
         12    1    1    2    0    0  0.78921058944E+00 -0.83544237394E+00  0.26859356953E+00  0.11802371881E+01  0.00000000000E+00 0. -1.
         11    1    3    3    0    0 -0.73073805006E+00 -0.13733912736E+01 -0.10158637182E+02  0.10277066281E+02  0.51100000000E-03 0. -1.
        -11    1    3    3    0    0  0.25599735767E+02  0.30378874416E+02  0.12197354401E+02  0.41557164686E+02  0.51100000000E-03 0.  1.
         12    1    3    3    0    0 -0.25658208306E+02 -0.28170040768E+02 -0.23073107879E+01  0.38173531844E+02  0.00000000000E+00 0. -1.
</event>
<event>
 7    1  0.2084210E-015  0.9000782E+02  0.7816164E-02  0.1186339E+00
        -11   -1    0    0    0    0  0.00000000000E+00  0.00000000000E+00  0.45593999997E+02  0.45594000000E+02  0.51100000000E-03 0.  1.
         11   -1    0    0    0    0 -0.00000000000E+00 -0.00000000000E+00 -0.45593999997E+02  0.45594000000E+02  0.51100000000E-03 0. -1.
    9900012    2    1    2    0    0 -0.44974490799E+00 -0.97464231676E+00 -0.49054189163E+00  0.90007818033E+02  0.90000080431E+02 0.  0.
         12    1    1    2    0    0  0.44974490799E+00  0.97464231676E+00  0.49054189163E+00  0.11801819670E+01  0.00000000000E+00 0. -1.
         11    1    3    3    0    0 -0.13497055201E+01  0.65708045020E+01  0.65783083174E+01  0.93952816549E+01  0.51100000000E-03 0. -1.
        -11    1    3    3    0    0  0.31618522040E+02 -0.36104468388E+01  0.21558417543E+02  0.38438673619E+02  0.51100000000E-03 0.  1.
         12    1    3    3    0    0 -0.30718561428E+02 -0.39349999800E+01 -0.28627267752E+02  0.42173862759E+02  0.00000000000E+00 0. -1.
</event>
<event>
 7    1  0.2084210E-015  0.9000760E+02  0.7816164E-02  0.1186339E+00
        -11   -1    0    0    0    0  0.00000000000E+00  0.00000000000E+00  0.45593999997E+02  0.45594000000E+02  0.51100000000E-03 0.  1.
         11   -1    0    0    0    0 -0.00000000000E+00 -0.00000000000E+00 -0.45593999997E+02  0.45594000000E+02  0.51100000000E-03 0. -1.
    9900012    2    1    2    0    0  0.11689478570E+01 -0.13325054178E+00  0.95696700527E-01  0.90007596401E+02  0.89999855873E+02 0.  0.
         12    1    1    2    0    0 -0.11689478570E+01  0.13325054178E+00 -0.95696700527E-01  0.11804035995E+01  0.00000000000E+00 0. -1.
         11    1    3    3    0    0 -0.53712947034E+01 -0.10868467959E+01 -0.43910919257E+01  0.70223736236E+01  0.51100000000E-03 0. -1.
        -11    1    3    3    0    0 -0.27662205886E+02  0.27793012902E+02 -0.56325678206E+00  0.39216915472E+02  0.51100000000E-03 0.  1.
         12    1    3    3    0    0  0.34202448447E+02 -0.26839416648E+02  0.50500454083E+01  0.43768307305E+02  0.00000000000E+00 0. -1.
</event>
<event>
 7    1  0.2084210E-015  0.9000776E+02  0.7816164E-02  0.1186339E+00
        -11   -1    0    0    0    0  0.00000000000E+00  0.00000000000E+00  0.45593999997E+02  0.45594000000E+02  0.51100000000E-03 0.  1.
         11   -1    0    0    0    0 -0.00000000000E+00 -0.00000000000E+00 -0.45593999997E+02  0.45594000000E+02  0.51100000000E-03 0. -1.
    9900012    2    1    2    0    0  0.19299310753E+00  0.11222451641E+01  0.31029770336E+00  0.90007760527E+02  0.90000022166E+02 0.  0.
         12    1    1    2    0    0 -0.19299310753E+00 -0.11222451641E+01 -0.31029770336E+00  0.11802394726E+01  0.00000000000E+00 0. -1.
         11    1    3    3    0    0  0.12985385844E+01  0.30871575053E+01 -0.91517657010E+01  0.97453352751E+01  0.51100000000E-03 0. -1.
        -11    1    3    3    0    0  0.26925678368E+02  0.10058107215E+02  0.31492610782E+02  0.42637333529E+02  0.51100000000E-03 0.  1.
         12    1    3    3    0    0 -0.28031223845E+02 -0.12023019556E+02 -0.22030547377E+02  0.37625091724E+02  0.00000000000E+00 0. -1.
</event>
<event>
 7    1  0.2084210E-015  0.9000773E+02  0.7816164E-02  0.1186339E+00
        -11   -1    0    0    0    0  0.00000000000E+00  0.00000000000E+00  0.45593999997E+02  0.45594000000E+02  0.51100000000E-03 0.  1.
         11   -1    0    0    0    0 -0.00000000000E+00 -0.00000000000E+00 -0.45593999997E+02  0.45594000000E+02  0.51100000000E-03 0. -1.
    9900012    2    1    2    0    0 -0.41157271307E+00  0.83510539259E+00  0.72542764098E+00  0.90007729532E+02  0.89999990762E+02 0.  0.
         12    1    1    2    0    0  0.41157271307E+00 -0.83510539259E+00 -0.72542764098E+00  0.11802704678E+01  0.00000000000E+00 0. -1.
         11    1    3    3    0    0  0.26518954722E+01 -0.50711939984E+01  0.78486716256E+01  0.97134548289E+01  0.51100000000E-03 0. -1.
        -11    1    3    3    0    0  0.51420522804E+01 -0.34877743693E+02  0.77819231154E+01  0.36103407517E+02  0.51100000000E-03 0.  1.
         12    1    3    3    0    0 -0.82055204657E+01  0.40784043084E+02 -0.14905167100E+02  0.44190867186E+02  0.00000000000E+00 0. -1.
</event>
<event>
 7    1  0.2084210E-015  0.9000761E+02  0.7816164E-02  0.1186339E+00
        -11   -1    0    0    0    0  0.00000000000E+00  0.00000000000E+00  0.45593999997E+02  0.45594000000E+02  0.51100000000E-03 0.  1.
         11   -1    0    0    0    0 -0.00000000000E+00 -0.00000000000E+00 -0.45593999997E+02  0.45594000000E+02  0.51100000000E-03 0. -1.
    9900012    2    1    2    0    0  0.18389416477E+00  0.44970210929E+00  0.10757615113E+01  0.90007613673E+02  0.89999873374E+02 0.  0.
         12    1    1    2    0    0 -0.18389416477E+00 -0.44970210929E+00 -0.10757615113E+01  0.11803863266E+01  0.00000000000E+00 0. -1.
         11    1    3    3    0    0 -0.71302945874E+00  0.24260603380E+01 -0.21971392290E+02  0.22116425099E+02  0.51100000000E-03 0. -1.
        -11    1    3    3    0    0 -0.29161050152E+01 -0.15672798498E+02 -0.18239988289E+02  0.24224728157E+02  0.51100000000E-03 0.  1.
         12    1    3    3    0    0  0.38130286387E+01  0.13696440269E+02  0.41287142090E+02  0.43666460417E+02  0.00000000000E+00 0. -1.
</event>
<event>
 7    1  0.2084210E-015  0.9000773E+02  0.7816164E-02  0.1186339E+00
        -11   -1    0    0    0    0  0.00000000000E+00  0.00000000000E+00  0.45593999997E+02  0.45594000000E+02  0.51100000000E-03 0.  1.
         11   -1    0    0    0    0 -0.00000000000E+00 -0.00000000000E+00 -0.45593999997E+02  0.45594000000E+02  0.51100000000E-03 0. -1.
    9900012    2    1    2    0    0 -0.51727418576E+00 -0.67903903131E+00  0.81509645886E+00  0.90007725106E+02  0.89999986277E+02 0.  0.
         12    1    1    2    0    0  0.51727418576E+00  0.67903903131E+00 -0.81509645886E+00  0.11802748945E+01  0.00000000000E+00 0. -1.
         11    1    3    3    0    0  0.28898235089E+01 -0.62229909069E+01  0.42053472925E+01  0.80474618266E+01  0.51100000000E-03 0. -1.
        -11    1    3    3    0    0  0.21295115402E+02 -0.30973400556E+02  0.13962100162E+01  0.37613599730E+02  0.51100000000E-03 0.  1.
         12    1    3    3    0    0 -0.24702213097E+02  0.36517352431E+02 -0.47864608499E+01  0.44346663549E+02  0.00000000000E+00 0. -1.
</event>
<event>
 7    1  0.2084210E-015  0.9000772E+02  0.7816164E-02  0.1186339E+00
        -11   -1    0    0    0    0  0.00000000000E+00  0.00000000000E+00  0.45593999997E+02  0.45594000000E+02  0.51100000000E-03 0.  1.
         11   -1    0    0    0    0 -0.00000000000E+00 -0.00000000000E+00 -0.45593999997E+02  0.45594000000E+02  0.51100000000E-03 0. -1.
    9900012    2    1    2    0    0  0.67418550513E+00 -0.42029512126E+00  0.87285727251E+00  0.90007722955E+02  0.89999984098E+02 0.  0.
         12    1    1    2    0    0 -0.67418550513E+00  0.42029512126E+00 -0.87285727251E+00  0.11802770448E+01  0.00000000000E+00 0. -1.
         11    1    3    3    0    0  0.23478804177E+02 -0.26184000311E+02 -0.12302727026E+02  0.37258733344E+02  0.51100000000E-03 0. -1.
        -11    1    3    3    0    0  0.67429357004E+00 -0.86645020513E+01  0.57495267163E+01  0.10420428270E+02  0.51100000000E-03 0.  1.
        -12    1    3    3    0    0 -0.23478912242E+02  0.34428207241E+02  0.74260575822E+01  0.42328561340E+02  0.00000000000E+00 0.  1.
</event>
<event>
 7    1  0.2084210E-015  0.9000772E+02  0.7816164E-02  0.1186339E+00
        -11   -1    0    0    0    0  0.00000000000E+00  0.00000000000E+00  0.45593999997E+02  0.45594000000E+02  0.51100000000E-03 0.  1.
         11   -1    0    0    0    0 -0.00000000000E+00 -0.00000000000E+00 -0.45593999997E+02  0.45594000000E+02  0.51100000000E-03 0. -1.
    9900012    2    1    2    0    0  0.58821184195E+00  0.79723183589E+00  0.64147150410E+00  0.90007721447E+02  0.89999982570E+02 0.  0.
         12    1    1    2    0    0 -0.58821184195E+00 -0.79723183589E+00 -0.64147150410E+00  0.11802785526E+01  0.00000000000E+00 0. -1.
         11    1    3    3    0    0 -0.23449624242E+02  0.36198839920E+02 -0.29793028387E+01  0.43233287341E+02  0.51100000000E-03 0. -1.
        -11    1    3    3    0    0  0.45883924411E+01 -0.56032014930E+01 -0.65505855080E+01  0.97652128970E+01  0.51100000000E-03 0.  1.
        -12    1    3    3    0    0  0.19449443643E+02 -0.29798406591E+02  0.10171359851E+02  0.37009221210E+02  0.00000000000E+00 0.  1.
</event>
<event>
 7    1  0.2084210E-015  0.9000778E+02  0.7816164E-02  0.1186339E+00
        -11   -1    0    0    0    0  0.00000000000E+00  0.00000000000E+00  0.45593999997E+02  0.45594000000E+02  0.51100000000E-03 0.  1.
         11   -1    0    0    0    0 -0.00000000000E+00 -0.00000000000E+00 -0.45593999997E+02  0.45594000000E+02  0.51100000000E-03 0. -1.
    9900012    2    1    2    0    0  0.11486680732E+01 -0.14419705145E+00  0.22952186207E+00  0.90007783318E+02  0.90000045257E+02 0.  0.
         12    1    1    2    0    0 -0.11486680732E+01  0.14419705145E+00 -0.22952186207E+00  0.11802166823E+01  0.00000000000E+00 0. -1.
         11    1    3    3    0    0  0.76959755125E+01 -0.27976413282E+02 -0.22088239058E+02  0.36466396095E+02  0.51100000000E-03 0. -1.
        -11    1    3    3    0    0  0.64263032311E+01 -0.73504004328E+01 -0.26662346962E+00  0.97671310054E+01  0.51100000000E-03 0.  1.
        -12    1    3    3    0    0 -0.12973610670E+02  0.35182616664E+02  0.22584384389E+02  0.43774256217E+02  0.00000000000E+00 0.  1.
</event>
<event>
 7    1  0.2084210E-015  0.9000781E+02  0.7816164E-02  0.1186339E+00
        -11   -1    0    0    0    0  0.00000000000E+00  0.00000000000E+00  0.45593999997E+02  0.45594000000E+02  0.51100000000E-03 0.  1.
         11   -1    0    0    0    0 -0.00000000000E+00 -0.00000000000E+00 -0.45593999997E+02  0.45594000000E+02  0.51100000000E-03 0. -1.
    9900012    2    1    2    0    0  0.10348601470E+01 -0.17274793799E+00  0.54044203446E+00  0.90007807233E+02  0.90000069489E+02 0.  0.
         12    1    1    2    0    0 -0.10348601470E+01  0.17274793799E+00 -0.54044203446E+00  0.11801927667E+01  0.00000000000E+00 0. -1.
         11    1    3    3    0    0 -0.43619997952E+01  0.11821879170E+02 -0.36759577036E+02  0.38859366611E+02  0.51100000000E-03 0. -1.
        -11    1    3    3    0    0  0.95946363731E+01  0.18952313348E+01 -0.13421861315E+01  0.98716975651E+01  0.51100000000E-03 0.  1.
        -12    1    3    3    0    0 -0.41977764309E+01 -0.13889858443E+02  0.38642205202E+02  0.41276743057E+02  0.00000000000E+00 0.  1.
</event>
<event>
 7    1  0.2084210E-015  0.9000767E+02  0.7816164E-02  0.1186339E+00
        -11   -1    0    0    0    0  0.00000000000E+00  0.00000000000E+00  0.45593999997E+02  0.45594000000E+02  0.51100000000E-03 0. -1.
         11   -1    0    0    0    0 -0.00000000000E+00 -0.00000000000E+00 -0.45593999997E+02  0.45594000000E+02  0.51100000000E-03 0.  1.
    9900012    2    1    2    0    0 -0.46884223921E-01  0.25323772464E-01 -0.11791264811E+01  0.90007670096E+02  0.89999930541E+02 0.  0.
         12    1    1    2    0    0  0.46884223921E-01 -0.25323772464E-01  0.11791264811E+01  0.11803299040E+01  0.00000000000E+00 0. -1.
         11    1    3    3    0    0  0.77031772603E+01  0.40423114831E+01 -0.43573136908E+01  0.97296148377E+01  0.51100000000E-03 0. -1.
        -11    1    3    3    0    0  0.14348158520E+02  0.27838723856E+02 -0.17977341904E+02  0.36111618920E+02  0.51100000000E-03 0.  1.
         12    1    3    3    0    0 -0.22098220004E+02 -0.31855711566E+02  0.21155529114E+02  0.44166436338E+02  0.00000000000E+00 0. -1.
</event>
<event>
 7    1  0.2084210E-015  0.9000800E+02  0.7816164E-02  0.1186339E+00
        -11   -1    0    0    0    0  0.00000000000E+00  0.00000000000E+00  0.45593999997E+02  0.45594000000E+02  0.51100000000E-03 0.  1.
         11   -1    0    0    0    0 -0.00000000000E+00 -0.00000000000E+00 -0.45593999997E+02  0.45594000000E+02  0.51100000000E-03 0. -1.
    9900012    2    1    2    0    0  0.10766312304E+01  0.41205598823E+00 -0.25196512608E+00  0.90007995183E+02  0.90000259919E+02 0.  0.
         12    1    1    2    0    0 -0.10766312304E+01 -0.41205598823E+00  0.25196512608E+00  0.11800048172E+01  0.00000000000E+00 0. -1.
         11    1    3    3    0    0 -0.29191490909E+02  0.18036888232E+02 -0.12703039248E+02  0.36590158307E+02  0.51100000000E-03 0. -1.
        -11    1    3    3    0    0 -0.70564849381E+01  0.43827773249E+01  0.42050608605E+01  0.93104916016E+01  0.51100000000E-03 0.  1.
        -12    1    3    3    0    0  0.37324607077E+02 -0.22007609569E+02  0.82460132610E+01  0.44107345274E+02  0.00000000000E+00 0.  1.
</event>
<event>
 7    1  0.2581610E-015  0.9000749E+02  0.7816164E-02  0.1186340E+00
        -11   -1    0    0    0    0  0.00000000000E+00  0.00000000000E+00  0.45593999997E+02  0.45594000000E+02  0.51100000000E-03 0. -1.
         11   -1    0    0    0    0 -0.00000000000E+00 -0.00000000000E+00 -0.45593999997E+02  0.45594000000E+02  0.51100000000E-03 0.  1.
    9900012    2    1    2    0    0  0.90689261784E+00 -0.63217975302E+00 -0.41411738943E+00  0.90007492197E+02  0.89999750294E+02 0.  0.
         12    1    1    2    0    0 -0.90689261784E+00  0.63217975302E+00  0.41411738943E+00  0.11805078029E+01  0.00000000000E+00 0. -1.
         11    1    3    3    0    0 -0.13504727310E+02 -0.19533184733E+02  0.30737042985E+02  0.38841843124E+02  0.51100000000E-03 0. -1.
        -11    1    3    3    0    0  0.41426606916E-01 -0.87270057650E+01 -0.31252665553E+01  0.92698240053E+01  0.51100000000E-03 0.  1.
        -12    1    3    3    0    0  0.14370193321E+02  0.27628010745E+02 -0.28025893819E+02  0.41895825068E+02  0.00000000000E+00 0.  1.
</event>
<event>
 7    1  0.2084210E-015  0.9000739E+02  0.7816164E-02  0.1186340E+00
        -11   -1    0    0    0    0  0.00000000000E+00  0.00000000000E+00  0.45593999997E+02  0.45594000000E+02  0.51100000000E-03 0. -1.
         11   -1    0    0    0    0 -0.00000000000E+00 -0.00000000000E+00 -0.45593999997E+02  0.45594000000E+02  0.51100000000E-03 0.  1.
    9900012    2    1    2    0    0 -0.10976462425E+01  0.37127028064E-02 -0.43474158459E+00  0.90007389436E+02  0.89999646176E+02 0.  0.
         12    1    1    2    0    0  0.10976462425E+01 -0.37127028064E-02  0.43474158459E+00  0.11806105637E+01  0.00000000000E+00 0. -1.
         11    1    3    3    0    0 -0.45963116501E+01 -0.39741867791E+02  0.13769565749E+02  0.42310082456E+02  0.51100000000E-03 0. -1.
        -11    1    3    3    0    0  0.91500044291E+01  0.61132402234E+01 -0.63344020526E+01  0.12697201924E+02  0.51100000000E-03 0.  1.
        -12    1    3    3    0    0 -0.56513390214E+01  0.33632340270E+02 -0.78699052809E+01  0.35000105056E+02  0.00000000000E+00 0.  1.
</event>
<event>
 7    1  0.2198194E-015  0.9000768E+02  0.7816164E-02  0.1186339E+00
        -11   -1    0    0    0    0  0.00000000000E+00  0.00000000000E+00  0.45593999997E+02  0.45594000000E+02  0.51100000000E-03 0. -1.
         11   -1    0    0    0    0 -0.00000000000E+00 -0.00000000000E+00 -0.45593999997E+02  0.45594000000E+02  0.51100000000E-03 0.  1.
    9900012    2    1    2    0    0 -0.10530711903E+01  0.15434680374E-02 -0.53309920249E+00  0.90007679673E+02  0.89999940245E+02 0.  0.
         12    1    1    2    0    0  0.10530711903E+01 -0.15434680374E-02  0.53309920249E+00  0.11803203268E+01  0.00000000000E+00 0. -1.
         11    1    3    3    0    0  0.26266089642E+02 -0.24202754323E+02 -0.16368424999E+02  0.39288753087E+02  0.51100000000E-03 0. -1.
        -11    1    3    3    0    0  0.64052070867E+01  0.67946488262E+01 -0.60675288987E+00  0.93574611849E+01  0.51100000000E-03 0.  1.
        -12    1    3    3    0    0 -0.33724367919E+02  0.17409648965E+02  0.16442078686E+02  0.41361465402E+02  0.00000000000E+00 0.  1.
</event>
<event>
 7    1  0.2084210E-015  0.9000773E+02  0.7816164E-02  0.1186339E+00
        -11   -1    0    0    0    0  0.00000000000E+00  0.00000000000E+00  0.45593999997E+02  0.45594000000E+02  0.51100000000E-03 0. -1.
         11   -1    0    0    0    0 -0.00000000000E+00 -0.00000000000E+00 -0.45593999997E+02  0.45594000000E+02  0.51100000000E-03 0.  1.
    9900012    2    1    2    0    0 -0.29201273863E+00  0.10225577977E+01 -0.51198913292E+00  0.90007733606E+02  0.89999994889E+02 0.  0.
         12    1    1    2    0    0  0.29201273863E+00 -0.10225577977E+01  0.51198913292E+00  0.11802663942E+01  0.00000000000E+00 0. -1.
         11    1    3    3    0    0 -0.32644573226E+02  0.93715232142E+01 -0.85879001825E+01  0.35032065858E+02  0.51100000000E-03 0. -1.
        -11    1    3    3    0    0 -0.99318286954E+01  0.32799193902E+01  0.26260146900E+01  0.10784018076E+02  0.51100000000E-03 0.  1.
        -12    1    3    3    0    0  0.42284389183E+02 -0.11628884807E+02  0.54498963596E+01  0.44191649672E+02  0.00000000000E+00 0.  1.
</event>
<event>
 7    1  0.2084210E-015  0.9000769E+02  0.7816164E-02  0.1186339E+00
        -11   -1    0    0    0    0  0.00000000000E+00  0.00000000000E+00  0.45593999997E+02  0.45594000000E+02  0.51100000000E-03 0. -1.
         11   -1    0    0    0    0 -0.00000000000E+00 -0.00000000000E+00 -0.45593999997E+02  0.45594000000E+02  0.51100000000E-03 0.  1.
    9900012    2    1    2    0    0 -0.76844815785E+00  0.15385927057E+00  0.88258432647E+00  0.90007686338E+02  0.89999946998E+02 0.  0.
         12    1    1    2    0    0  0.76844815785E+00 -0.15385927057E+00 -0.88258432647E+00  0.11803136616E+01  0.00000000000E+00 0. -1.
         11    1    3    3    0    0 -0.22455710701E+02 -0.38022057481E+02 -0.22245123009E+00  0.44158637694E+02  0.51100000000E-03 0. -1.
        -11    1    3    3    0    0  0.96353096984E+01  0.86698097391E+01  0.46709998989E+01  0.13777628033E+02  0.51100000000E-03 0.  1.
        -12    1    3    3    0    0  0.12051952844E+02  0.29506107012E+02 -0.35659643424E+01  0.32071420612E+02  0.00000000000E+00 0.  1.
</event>
<event>
 7    1  0.2084210E-015  0.9000786E+02  0.7816164E-02  0.1186339E+00
        -11   -1    0    0    0    0  0.00000000000E+00  0.00000000000E+00  0.45593999997E+02  0.45594000000E+02  0.51100000000E-03 0. -1.
         11   -1    0    0    0    0 -0.00000000000E+00 -0.00000000000E+00 -0.45593999997E+02  0.45594000000E+02  0.51100000000E-03 0.  1.
    9900012    2    1    2    0    0 -0.12057308984E+00  0.91598883103E-01 -0.11703895044E+01  0.90007856018E+02  0.90000118918E+02 0.  0.
         12    1    1    2    0    0  0.12057308984E+00 -0.91598883103E-01  0.11703895044E+01  0.11801439816E+01  0.00000000000E+00 0. -1.
         11    1    3    3    0    0 -0.15596050212E+01  0.40054633860E+01 -0.53854666530E+01  0.68905265466E+01  0.51100000000E-03 0. -1.
        -11    1    3    3    0    0  0.14551341600E+02  0.36588364660E+02 -0.45964590708E+01  0.39643125597E+02  0.51100000000E-03 0.  1.
         12    1    3    3    0    0 -0.13112309668E+02 -0.40502229163E+02  0.88115362194E+01  0.43474203875E+02  0.00000000000E+00 0. -1.
</event>
<event>
 7    1  0.2084210E-015  0.9000768E+02  0.7816164E-02  0.1186339E+00
        -11   -1    0    0    0    0  0.00000000000E+00  0.00000000000E+00  0.45593999997E+02  0.45594000000E+02  0.51100000000E-03 0.  1.
         11   -1    0    0    0    0 -0.00000000000E+00 -0.00000000000E+00 -0.45593999997E+02  0.45594000000E+02  0.51100000000E-03 0. -1.
    9900012    2    1    2    0    0 -0.51353300807E+00 -0.93802859802E+00  0.49955152167E+00  0.90007675670E+02  0.89999936189E+02 0.  0.
         12    1    1    2    0    0  0.51353300807E+00  0.93802859802E+00 -0.49955152167E+00  0.11803243300E+01  0.00000000000E+00 0. -1.
         11    1    3    3    0    0 -0.15013517650E+01 -0.74643012322E+00 -0.69780228550E+01  0.71766300083E+01  0.51100000000E-03 0. -1.
        -11    1    3    3    0    0 -0.15566889407E+02 -0.15750921368E+02  0.38478780213E+02  0.44396352290E+02  0.51100000000E-03 0.  1.
         12    1    3    3    0    0  0.16554708164E+02  0.15559322893E+02 -0.31001205836E+02  0.38434693372E+02  0.00000000000E+00 0. -1.
</event>
<event>
 7    1  0.2084210E-015  0.9000766E+02  0.7816164E-02  0.1186339E+00
        -11   -1    0    0    0    0  0.00000000000E+00  0.00000000000E+00  0.45593999997E+02  0.45594000000E+02  0.51100000000E-03 0. -1.
         11   -1    0    0    0    0 -0.00000000000E+00 -0.00000000000E+00 -0.45593999997E+02  0.45594000000E+02  0.51100000000E-03 0.  1.
    9900012    2    1    2    0    0 -0.27438433538E+00 -0.97278182582E+00 -0.60960414668E+00  0.90007657482E+02  0.89999917761E+02 0.  0.
         12    1    1    2    0    0  0.27438433538E+00  0.97278182582E+00  0.60960414668E+00  0.11803425180E+01  0.00000000000E+00 0. -1.
         11    1    3    3    0    0  0.82579551364E+01  0.44113572788E+01 -0.61512459538E+01  0.11202308830E+02  0.51100000000E-03 0. -1.
        -11    1    3    3    0    0 -0.30200086838E+02 -0.24014819247E+02 -0.17238779878E+02  0.42260292479E+02  0.51100000000E-03 0.  1.
         12    1    3    3    0    0  0.21667747366E+02  0.18630680143E+02  0.22780421685E+02  0.36545056173E+02  0.00000000000E+00 0. -1.
</event>
<event>
 7    1  0.2084210E-015  0.9000726E+02  0.7816164E-02  0.1186340E+00
        -11   -1    0    0    0    0  0.00000000000E+00  0.00000000000E+00  0.45593999997E+02  0.45594000000E+02  0.51100000000E-03 0. -1.
         11   -1    0    0    0    0 -0.00000000000E+00 -0.00000000000E+00 -0.45593999997E+02  0.45594000000E+02  0.51100000000E-03 0.  1.
    9900012    2    1    2    0    0  0.29510237752E-01 -0.11105441051E+01 -0.39996864922E+00  0.90007257020E+02  0.89999512012E+02 0.  0.
         12    1    1    2    0    0 -0.29510237752E-01  0.11105441051E+01  0.39996864922E+00  0.11807429796E+01  0.00000000000E+00 0. -1.
         11    1    3    3    0    0  0.13123417538E+01  0.35514785000E+02  0.12397442011E+02  0.37639324691E+02  0.51100000000E-03 0. -1.
        -11    1    3    3    0    0  0.62091274723E+01  0.18154973812E+01  0.60923930213E+01  0.88863123789E+01  0.51100000000E-03 0.  1.
        -12    1    3    3    0    0 -0.74919589884E+01 -0.38440826486E+02 -0.18889803682E+02  0.43481619951E+02  0.00000000000E+00 0.  1.
</event>
<event>
 7    1  0.2084210E-015  0.9000775E+02  0.7816164E-02  0.1186339E+00
        -11   -1    0    0    0    0  0.00000000000E+00  0.00000000000E+00  0.45593999997E+02  0.45594000000E+02  0.51100000000E-03 0. -1.
         11   -1    0    0    0    0 -0.00000000000E+00 -0.00000000000E+00 -0.45593999997E+02  0.45594000000E+02  0.51100000000E-03 0.  1.
    9900012    2    1    2    0    0 -0.92423535850E+00 -0.30754134021E+00 -0.66648941380E+00  0.90007745446E+02  0.90000006886E+02 0.  0.
         12    1    1    2    0    0  0.92423535850E+00  0.30754134021E+00  0.66648941380E+00  0.11802545541E+01  0.00000000000E+00 0. -1.
         11    1    3    3    0    0 -0.23006776918E+02  0.16766934512E+02  0.19866996392E+02  0.34715118075E+02  0.51100000000E-03 0. -1.
        -11    1    3    3    0    0 -0.25372380290E+01  0.11514112634E+02  0.10323338998E+01  0.11835458593E+02  0.51100000000E-03 0.  1.
        -12    1    3    3    0    0  0.24619779588E+02 -0.28588588486E+02 -0.21565819705E+02  0.43457168778E+02  0.00000000000E+00 0.  1.
</event>
<event>
 7    1  0.2084210E-015  0.9000769E+02  0.7816164E-02  0.1186339E+00
        -11   -1    0    0    0    0  0.00000000000E+00  0.00000000000E+00  0.45593999997E+02  0.45594000000E+02  0.51100000000E-03 0.  1.
         11   -1    0    0    0    0 -0.00000000000E+00 -0.00000000000E+00 -0.45593999997E+02  0.45594000000E+02  0.51100000000E-03 0. -1.
    9900012    2    1    2    0    0 -0.57095894113E-01 -0.54465786794E+00  0.10455708156E+01  0.90007690522E+02  0.89999951237E+02 0.  0.
         12    1    1    2    0    0  0.57095894113E-01  0.54465786794E+00 -0.10455708156E+01  0.11803094783E+01  0.00000000000E+00 0. -1.
         11    1    3    3    0    0  0.95414007046E+00 -0.25841928073E+01  0.19526047682E+02  0.19719406028E+02  0.51100000000E-03 0. -1.
        -11    1    3    3    0    0 -0.68667599113E+01 -0.12485677406E+01  0.25172310747E+02  0.26121955166E+02  0.51100000000E-03 0.  1.
         12    1    3    3    0    0  0.58555239468E+01  0.32881026799E+01 -0.43652787613E+02  0.44166329328E+02  0.00000000000E+00 0. -1.
</event>
<event>
 7    1  0.2084210E-015  0.9000775E+02  0.7816164E-02  0.1186339E+00
        -11   -1    0    0    0    0  0.00000000000E+00  0.00000000000E+00  0.45593999997E+02  0.45594000000E+02  0.51100000000E-03 0. -1.
         11   -1    0    0    0    0 -0.00000000000E+00 -0.00000000000E+00 -0.45593999997E+02  0.45594000000E+02  0.51100000000E-03 0.  1.
    9900012    2    1    2    0    0  0.10449787075E+00  0.27342693304E+00 -0.11433737032E+01  0.90007751925E+02  0.90000013451E+02 0.  0.
         12    1    1    2    0    0 -0.10449787075E+00 -0.27342693304E+00  0.11433737032E+01  0.11802480748E+01  0.00000000000E+00 0. -1.
         11    1    3    3    0    0  0.63465522736E+01  0.39739683571E+00 -0.74896064216E+01  0.98250116854E+01  0.51100000000E-03 0. -1.
        -11    1    3    3    0    0  0.10910484240E+02 -0.27824528477E+02 -0.21908166651E+02  0.37056859252E+02  0.51100000000E-03 0.  1.
         12    1    3    3    0    0 -0.17152538643E+02  0.27700558575E+02  0.28254399370E+02  0.43125880988E+02  0.00000000000E+00 0. -1.
</event>
<event>
 7    1  0.2084210E-015  0.9000773E+02  0.7816164E-02  0.1186339E+00
        -11   -1    0    0    0    0  0.00000000000E+00  0.00000000000E+00  0.45593999997E+02  0.45594000000E+02  0.51100000000E-03 0.  1.
         11   -1    0    0    0    0 -0.00000000000E+00 -0.00000000000E+00 -0.45593999997E+02  0.45594000000E+02  0.51100000000E-03 0. -1.
    9900012    2    1    2    0    0 -0.17663542190E+00  0.58858354094E+00  0.10076694486E+01  0.90007733770E+02  0.89999995055E+02 0.  0.
         12    1    1    2    0    0  0.17663542190E+00 -0.58858354094E+00 -0.10076694486E+01  0.11802662304E+01  0.00000000000E+00 0. -1.
         11    1    3    3    0    0  0.54243619867E+01  0.15337056861E+01 -0.68589275998E+01  0.88781103944E+01  0.51100000000E-03 0. -1.
        -11    1    3    3    0    0  0.30000367510E+02 -0.13811251913E+01 -0.19858420513E+02  0.36003977878E+02  0.51100000000E-03 0.  1.
         12    1    3    3    0    0 -0.35601364918E+02  0.43600304622E+00  0.27725017562E+02  0.45125645497E+02  0.00000000000E+00 0. -1.
</event>
<event>
 7    1  0.2084210E-015  0.9000776E+02  0.7816164E-02  0.1186339E+00
        -11   -1    0    0    0    0  0.00000000000E+00  0.00000000000E+00  0.45593999997E+02  0.45594000000E+02  0.51100000000E-03 0. -1.
         11   -1    0    0    0    0 -0.00000000000E+00 -0.00000000000E+00 -0.45593999997E+02  0.45594000000E+02  0.51100000000E-03 0.  1.
    9900012    2    1    2    0    0 -0.11198467867E+01  0.32943014934E+00  0.17431793131E+00  0.90007759435E+02  0.90000021060E+02 0.  0.
         12    1    1    2    0    0  0.11198467867E+01 -0.32943014934E+00 -0.17431793131E+00  0.11802405645E+01  0.00000000000E+00 0. -1.
         11    1    3    3    0    0  0.10309145569E+01 -0.79837342596E+01 -0.46472604373E+00  0.80634216130E+01  0.51100000000E-03 0. -1.
        -11    1    3    3    0    0 -0.17072842700E+02 -0.53400377124E+01 -0.35940112940E+02  0.40145855066E+02  0.51100000000E-03 0.  1.
         12    1    3    3    0    0  0.14922081356E+02  0.13653202121E+02  0.36579156915E+02  0.41798482756E+02  0.00000000000E+00 0. -1.
</event>
<event>
 7    1  0.2084210E-015  0.9000773E+02  0.7816164E-02  0.1186339E+00
        -11   -1    0    0    0    0  0.00000000000E+00  0.00000000000E+00  0.45593999997E+02  0.45594000000E+02  0.51100000000E-03 0. -1.
         11   -1    0    0    0    0 -0.00000000000E+00 -0.00000000000E+00 -0.45593999997E+02  0.45594000000E+02  0.51100000000E-03 0.  1.
    9900012    2    1    2    0    0  0.10672287280E+01 -0.91333441613E-01 -0.49569149796E+00  0.90007733498E+02  0.89999994780E+02 0.  0.
         12    1    1    2    0    0 -0.10672287280E+01  0.91333441613E-01  0.49569149796E+00  0.11802665023E+01  0.00000000000E+00 0. -1.
         11    1    3    3    0    0 -0.31428662203E+00 -0.11100276018E+02  0.15878921251E+02  0.19376662357E+02  0.51100000000E-03 0. -1.
        -11    1    3    3    0    0 -0.33976761936E+01 -0.28532023820E+02 -0.46094602797E+01  0.29100991583E+02  0.51100000000E-03 0.  1.
         12    1    3    3    0    0  0.47791915435E+01  0.39540966397E+02 -0.11765152469E+02  0.41530079557E+02  0.00000000000E+00 0. -1.
</event>
<event>
 7    1  0.2084210E-015  0.9000775E+02  0.7816164E-02  0.1186339E+00
        -11   -1    0    0    0    0  0.00000000000E+00  0.00000000000E+00  0.45593999997E+02  0.45594000000E+02  0.51100000000E-03 0. -1.
         11   -1    0    0    0    0 -0.00000000000E+00 -0.00000000000E+00 -0.45593999997E+02  0.45594000000E+02  0.51100000000E-03 0.  1.
    9900012    2    1    2    0    0 -0.54954919078E+00 -0.82435099869E+00 -0.64141982821E+00  0.90007754992E+02  0.90000016558E+02 0.  0.
         12    1    1    2    0    0  0.54954919078E+00  0.82435099869E+00  0.64141982821E+00  0.11802450077E+01  0.00000000000E+00 0. -1.
         11    1    3    3    0    0  0.72994690203E+01  0.48635153401E+01  0.56811515729E+01  0.10450431230E+02  0.51100000000E-03 0. -1.
        -11    1    3    3    0    0  0.35535034085E+02 -0.27933465296E+00 -0.42354948413E+01  0.35787652788E+02  0.51100000000E-03 0.  1.
         12    1    3    3    0    0 -0.43384052296E+02 -0.54085316858E+01 -0.20870765598E+01  0.43769670974E+02  0.00000000000E+00 0. -1.
</event>
<event>
 7    1  0.2084210E-015  0.9000777E+02  0.7816164E-02  0.1186339E+00
        -11   -1    0    0    0    0  0.00000000000E+00  0.00000000000E+00  0.45593999997E+02  0.45594000000E+02  0.51100000000E-03 0.  1.
         11   -1    0    0    0    0 -0.00000000000E+00 -0.00000000000E+00 -0.45593999997E+02  0.45594000000E+02  0.51100000000E-03 0. -1.
    9900012    2    1    2    0    0 -0.62580238439E-01 -0.69990811694E+00  0.94824405456E+00  0.90007765089E+02  0.90000026788E+02 0.  0.
         12    1    1    2    0    0  0.62580238439E-01  0.69990811694E+00 -0.94824405456E+00  0.11802349111E+01  0.00000000000E+00 0. -1.
         11    1    3    3    0    0  0.11436189480E+02  0.26729127731E+02 -0.18765651548E+02  0.34603213396E+02  0.51100000000E-03 0. -1.
        -11    1    3    3    0    0 -0.13501118271E+01  0.69920950190E+01 -0.75184021711E+01  0.10355605543E+02  0.51100000000E-03 0.  1.
        -12    1    3    3    0    0 -0.10148657891E+02 -0.34421130867E+02  0.27232297774E+02  0.45048946149E+02  0.00000000000E+00 0.  1.
</event>
<event>
 7    1  0.2084210E-015  0.9000779E+02  0.7816164E-02  0.1186339E+00
        -11   -1    0    0    0    0  0.00000000000E+00  0.00000000000E+00  0.45593999997E+02  0.45594000000E+02  0.51100000000E-03 0.  1.
         11   -1    0    0    0    0 -0.00000000000E+00 -0.00000000000E+00 -0.45593999997E+02  0.45594000000E+02  0.51100000000E-03 0. -1.
    9900012    2    1    2    0    0 -0.66342999101E+00 -0.26093929889E+00  0.94056843306E+00  0.90007789151E+02  0.90000051168E+02 0.  0.
         12    1    1    2    0    0  0.66342999101E+00  0.26093929889E+00 -0.94056843306E+00  0.11802108489E+01  0.00000000000E+00 0. -1.
         11    1    3    3    0    0 -0.85137558824E+01  0.41594727013E+01 -0.37021375167E+01  0.10173056317E+02  0.51100000000E-03 0. -1.
        -11    1    3    3    0    0  0.32902545477E+02 -0.17874923816E+02 -0.19781927328E+02  0.42348731378E+02  0.51100000000E-03 0.  1.
         12    1    3    3    0    0 -0.25052219586E+02  0.13454511816E+02  0.24424633278E+02  0.37486001455E+02  0.00000000000E+00 0. -1.
</event>
<event>
 7    1  0.2084210E-015  0.9000781E+02  0.7816164E-02  0.1186339E+00
        -11   -1    0    0    0    0  0.00000000000E+00  0.00000000000E+00  0.45593999997E+02  0.45594000000E+02  0.51100000000E-03 0. -1.
         11   -1    0    0    0    0 -0.00000000000E+00 -0.00000000000E+00 -0.45593999997E+02  0.45594000000E+02  0.51100000000E-03 0.  1.
    9900012    2    1    2    0    0 -0.97826250791E+00 -0.25356031029E+00 -0.60956051069E+00  0.90007807481E+02  0.90000069740E+02 0.  0.
         12    1    1    2    0    0  0.97826250791E+00  0.25356031029E+00  0.60956051069E+00  0.11801925188E+01  0.00000000000E+00 0. -1.
         11    1    3    3    0    0  0.71431397376E+01 -0.21500838817E+02  0.25175721952E+02  0.33869270604E+02  0.51100000000E-03 0. -1.
        -11    1    3    3    0    0  0.49561043974E+01 -0.84976271097E+01  0.52972966346E+01  0.11172913192E+02  0.51100000000E-03 0.  1.
        -12    1    3    3    0    0 -0.13077506643E+02  0.29744905616E+02 -0.31082579097E+02  0.44965623686E+02  0.00000000000E+00 0.  1.
</event>
<event>
 7    1  0.2084210E-015  0.9000777E+02  0.7816164E-02  0.1186339E+00
        -11   -1    0    0    0    0  0.00000000000E+00  0.00000000000E+00  0.45593999997E+02  0.45594000000E+02  0.51100000000E-03 0.  1.
         11   -1    0    0    0    0 -0.00000000000E+00 -0.00000000000E+00 -0.45593999997E+02  0.45594000000E+02  0.51100000000E-03 0. -1.
    9900012    2    1    2    0    0 -0.42808878868E-01 -0.90709477661E-01  0.11759630796E+01  0.90007766983E+02  0.90000028707E+02 0.  0.
         12    1    1    2    0    0  0.42808878868E-01  0.90709477661E-01 -0.11759630796E+01  0.11802330168E+01  0.00000000000E+00 0. -1.
         11    1    3    3    0    0 -0.51596670809E+01  0.34176484602E+02 -0.15307888449E+02  0.37801927374E+02  0.51100000000E-03 0. -1.
        -11    1    3    3    0    0  0.18011053714E+01  0.70865399432E+01  0.58874874808E+01  0.93875203341E+01  0.51100000000E-03 0.  1.
        -12    1    3    3    0    0  0.33157528307E+01 -0.41353734023E+02  0.10596364048E+02  0.42818319275E+02  0.00000000000E+00 0.  1.
</event>
<event>
 7    1  0.2084210E-015  0.9000774E+02  0.7816164E-02  0.1186339E+00
        -11   -1    0    0    0    0  0.00000000000E+00  0.00000000000E+00  0.45593999997E+02  0.45594000000E+02  0.51100000000E-03 0. -1.
         11   -1    0    0    0    0 -0.00000000000E+00 -0.00000000000E+00 -0.45593999997E+02  0.45594000000E+02  0.51100000000E-03 0.  1.
    9900012    2    1    2    0    0 -0.10017348201E+01  0.46850572436E+00  0.41237299199E+00  0.90007736577E+02  0.89999997900E+02 0.  0.
         12    1    1    2    0    0  0.10017348201E+01 -0.46850572436E+00 -0.41237299199E+00  0.11802634232E+01  0.00000000000E+00 0. -1.
         11    1    3    3    0    0  0.17623224331E+02  0.70195129262E+01  0.32352020549E+02  0.37503397598E+02  0.51100000000E-03 0. -1.
        -11    1    3    3    0    0  0.21120724435E+01  0.86792981177E+01  0.27210114084E+01  0.93378246486E+01  0.51100000000E-03 0.  1.
        -12    1    3    3    0    0 -0.20737031595E+02 -0.15230305320E+02 -0.34660658965E+02  0.43166514330E+02  0.00000000000E+00 0.  1.
</event>
<event>
 7    1  0.2084210E-015  0.9000769E+02  0.7816164E-02  0.1186339E+00
        -11   -1    0    0    0    0  0.00000000000E+00  0.00000000000E+00  0.45593999997E+02  0.45594000000E+02  0.51100000000E-03 0.  1.
         11   -1    0    0    0    0 -0.00000000000E+00 -0.00000000000E+00 -0.45593999997E+02  0.45594000000E+02  0.51100000000E-03 0. -1.
    9900012    2    1    2    0    0 -0.66697261049E+00 -0.36925511301E+00  0.90107720210E+00  0.90007685667E+02  0.89999946317E+02 0.  0.
         12    1    1    2    0    0  0.66697261049E+00  0.36925511301E+00 -0.90107720210E+00  0.11803143335E+01  0.00000000000E+00 0. -1.
         11    1    3    3    0    0 -0.26084056359E+02 -0.24265368788E+02  0.16843097563E+02  0.39406548369E+02  0.51100000000E-03 0. -1.
        -11    1    3    3    0    0 -0.71613787586E+01  0.45623285725E+01  0.19390953133E+01  0.87097806299E+01  0.51100000000E-03 0.  1.
        -12    1    3    3    0    0  0.32578462507E+02  0.19333785102E+02 -0.17881115674E+02  0.41891356668E+02  0.00000000000E+00 0.  1.
</event>
<event>
 7    1  0.2084210E-015  0.9000769E+02  0.7816164E-02  0.1186339E+00
        -11   -1    0    0    0    0  0.00000000000E+00  0.00000000000E+00  0.45593999997E+02  0.45594000000E+02  0.51100000000E-03 0. -1.
         11   -1    0    0    0    0 -0.00000000000E+00 -0.00000000000E+00 -0.45593999997E+02  0.45594000000E+02  0.51100000000E-03 0.  1.
    9900012    2    1    2    0    0  0.33994221138E+00 -0.78635257436E+00  0.81192919643E+00  0.90007686441E+02  0.89999947102E+02 0.  0.
         12    1    1    2    0    0 -0.33994221138E+00  0.78635257436E+00 -0.81192919643E+00  0.11803135593E+01  0.00000000000E+00 0. -1.
         11    1    3    3    0    0  0.49200803192E+01  0.70242256605E+01 -0.97970415426E+01  0.13020328710E+02  0.51100000000E-03 0. -1.
        -11    1    3    3    0    0  0.71283405115E+00  0.24556475599E+02 -0.20339215918E+02  0.31893766329E+02  0.51100000000E-03 0.  1.
         12    1    3    3    0    0 -0.52929721590E+01 -0.32367053834E+02  0.30948186657E+02  0.45093591402E+02  0.00000000000E+00 0. -1.
</event>
<event>
 7    1  0.2084210E-015  0.9000767E+02  0.7816164E-02  0.1186339E+00
        -11   -1    0    0    0    0  0.00000000000E+00  0.00000000000E+00  0.45593999997E+02  0.45594000000E+02  0.51100000000E-03 0. -1.
         11   -1    0    0    0    0 -0.00000000000E+00 -0.00000000000E+00 -0.45593999997E+02  0.45594000000E+02  0.51100000000E-03 0.  1.
    9900012    2    1    2    0    0 -0.75930154470E+00  0.89385353560E+00  0.13293449426E+00  0.90007667607E+02  0.89999928019E+02 0.  0.
         12    1    1    2    0    0  0.75930154470E+00 -0.89385353560E+00 -0.13293449426E+00  0.11803323933E+01  0.00000000000E+00 0. -1.
         11    1    3    3    0    0  0.69742333206E+01 -0.17469782879E+01  0.72597126274E+01  0.10217401394E+02  0.51100000000E-03 0. -1.
        -11    1    3    3    0    0  0.10106446253E+02  0.36009554254E+02 -0.16390082288E+02  0.40834581559E+02  0.51100000000E-03 0.  1.
         12    1    3    3    0    0 -0.17839981118E+02 -0.33368722431E+02  0.92633041550E+01  0.38955684654E+02  0.00000000000E+00 0. -1.
</event>
<event>
 7    1  0.2084210E-015  0.9000842E+02  0.7816164E-02  0.1186338E+00
        -11   -1    0    0    0    0  0.00000000000E+00  0.00000000000E+00  0.45593999997E+02  0.45594000000E+02  0.51100000000E-03 0. -1.
         11   -1    0    0    0    0 -0.00000000000E+00 -0.00000000000E+00 -0.45593999997E+02  0.45594000000E+02  0.51100000000E-03 0.  1.
    9900012    2    1    2    0    0 -0.34121208896E+00 -0.32416159147E+00 -0.10816193989E+01  0.90008420858E+02  0.90000691211E+02 0.  0.
         12    1    1    2    0    0  0.34121208896E+00  0.32416159147E+00  0.10816193989E+01  0.11795791415E+01  0.00000000000E+00 0. -1.
         11    1    3    3    0    0  0.73485984959E+01 -0.57719917212E+01 -0.46225427511E+01  0.10425242924E+02  0.51100000000E-03 0. -1.
        -11    1    3    3    0    0 -0.16866241101E+02 -0.21608579556E+02 -0.26499322686E+02  0.38126301977E+02  0.51100000000E-03 0.  1.
         12    1    3    3    0    0  0.91764305165E+01  0.27056409686E+02  0.30040246039E+02  0.41456875958E+02  0.00000000000E+00 0. -1.
</event>
<event>
 7    1  0.2084210E-015  0.9000767E+02  0.7816164E-02  0.1186339E+00
        -11   -1    0    0    0    0  0.00000000000E+00  0.00000000000E+00  0.45593999997E+02  0.45594000000E+02  0.51100000000E-03 0.  1.
         11   -1    0    0    0    0 -0.00000000000E+00 -0.00000000000E+00 -0.45593999997E+02  0.45594000000E+02  0.51100000000E-03 0. -1.
    9900012    2    1    2    0    0 -0.60991120391E+00  0.60542612989E+00  0.80910236993E+00  0.90007669910E+02  0.89999930353E+02 0.  0.
         12    1    1    2    0    0  0.60991120391E+00 -0.60542612989E+00 -0.80910236993E+00  0.11803300896E+01  0.00000000000E+00 0. -1.
         11    1    3    3    0    0  0.57691632625E+01  0.66247492591E+01  0.39702069032E+01  0.96401810466E+01  0.51100000000E-03 0. -1.
        -11    1    3    3    0    0  0.49388127936E-01 -0.13411548989E+02  0.36828974438E+02  0.39194967073E+02  0.51100000000E-03 0.  1.
         12    1    3    3    0    0 -0.64284625944E+01  0.73922258603E+01 -0.39990078971E+02  0.41172521791E+02  0.00000000000E+00 0. -1.
</event>
<event>
 7    1  0.2536084E-015  0.9000771E+02  0.7816164E-02  0.1186339E+00
        -11   -1    0    0    0    0  0.00000000000E+00  0.00000000000E+00  0.45593999997E+02  0.45594000000E+02  0.51100000000E-03 0. -1.
         11   -1    0    0    0    0 -0.00000000000E+00 -0.00000000000E+00 -0.45593999997E+02  0.45594000000E+02  0.51100000000E-03 0.  1.
    9900012    2    1    2    0    0 -0.49032856021E+00  0.86527282102E+00 -0.63558043407E+00  0.90007711205E+02  0.89999972193E+02 0.  0.
         12    1    1    2    0    0  0.49032856021E+00 -0.86527282102E+00  0.63558043407E+00  0.11802887951E+01  0.00000000000E+00 0. -1.
         11    1    3    3    0    0 -0.34005981884E+02 -0.18973688024E+02  0.64761064487E+00  0.38946463779E+02  0.51100000000E-03 0. -1.
        -11    1    3    3    0    0  0.33950478479E+01 -0.83952252766E+01  0.30364863768E+01  0.95512515992E+01  0.51100000000E-03 0.  1.
        -12    1    3    3    0    0  0.30120605476E+02  0.28234186122E+02 -0.43196774557E+01  0.41509995826E+02  0.00000000000E+00 0.  1.
</event>
<event>
 7    1  0.2084210E-015  0.9000776E+02  0.7816164E-02  0.1186339E+00
        -11   -1    0    0    0    0  0.00000000000E+00  0.00000000000E+00  0.45593999997E+02  0.45594000000E+02  0.51100000000E-03 0.  1.
         11   -1    0    0    0    0 -0.00000000000E+00 -0.00000000000E+00 -0.45593999997E+02  0.45594000000E+02  0.51100000000E-03 0. -1.
    9900012    2    1    2    0    0  0.44573889466E+00 -0.13778276481E+00  0.10841114639E+01  0.90007760652E+02  0.90000022293E+02 0.  0.
         12    1    1    2    0    0 -0.44573889466E+00  0.13778276481E+00 -0.10841114639E+01  0.11802393481E+01  0.00000000000E+00 0. -1.
         11    1    3    3    0    0  0.58775427961E+01  0.18010566101E+01 -0.83038868358E+01  0.10331691588E+02  0.51100000000E-03 0. -1.
        -11    1    3    3    0    0  0.28383707223E+02 -0.18930231279E+02  0.21034185435E+02  0.40080237639E+02  0.51100000000E-03 0.  1.
         12    1    3    3    0    0 -0.33815511124E+02  0.16991391904E+02 -0.11646187135E+02  0.39595831425E+02  0.00000000000E+00 0. -1.
</event>
<event>
 7    1  0.2084210E-015  0.9000783E+02  0.7816164E-02  0.1186339E+00
        -11   -1    0    0    0    0  0.00000000000E+00  0.00000000000E+00  0.45593999997E+02  0.45594000000E+02  0.51100000000E-03 0.  1.
         11   -1    0    0    0    0 -0.00000000000E+00 -0.00000000000E+00 -0.45593999997E+02  0.45594000000E+02  0.51100000000E-03 0. -1.
    9900012    2    1    2    0    0 -0.61024573946E+00 -0.84513401076E+00  0.55331563940E+00  0.90007826472E+02  0.90000088982E+02 0.  0.
         12    1    1    2    0    0  0.61024573946E+00  0.84513401076E+00 -0.55331563940E+00  0.11801735277E+01  0.00000000000E+00 0. -1.
         11    1    3    3    0    0 -0.92805401440E+01 -0.25589836879E+02 -0.13509164245E+02  0.30388578376E+02  0.51100000000E-03 0. -1.
        -11    1    3    3    0    0 -0.16255883821E+01 -0.13759688380E+02 -0.58799106242E+01  0.15051408941E+02  0.51100000000E-03 0.  1.
        -12    1    3    3    0    0  0.10295882787E+02  0.38504391248E+02  0.19942390508E+02  0.44567839155E+02  0.00000000000E+00 0.  1.
</event>
<event>
 7    1  0.2084210E-015  0.9000768E+02  0.7816164E-02  0.1186339E+00
        -11   -1    0    0    0    0  0.00000000000E+00  0.00000000000E+00  0.45593999997E+02  0.45594000000E+02  0.51100000000E-03 0.  1.
         11   -1    0    0    0    0 -0.00000000000E+00 -0.00000000000E+00 -0.45593999997E+02  0.45594000000E+02  0.51100000000E-03 0. -1.
    9900012    2    1    2    0    0  0.10630184586E+01  0.51259070824E+00 -0.20186704226E-01  0.90007675900E+02  0.89999936422E+02 0.  0.
         12    1    1    2    0    0 -0.10630184586E+01 -0.51259070824E+00  0.20186704226E-01  0.11803240998E+01  0.00000000000E+00 0. -1.
         11    1    3    3    0    0  0.17740762574E+02  0.66924093715E+01 -0.37595127355E+02  0.42106016210E+02  0.51100000000E-03 0. -1.
        -11    1    3    3    0    0 -0.42047342123E+01  0.80683272111E+01  0.54348456782E+01  0.10597888544E+02  0.51100000000E-03 0.  1.
        -12    1    3    3    0    0 -0.12473009904E+02 -0.14248145874E+02  0.32140094973E+02  0.37303771147E+02  0.00000000000E+00 0.  1.
</event>
<event>
 7    1  0.2084210E-015  0.9000784E+02  0.7816164E-02  0.1186339E+00
        -11   -1    0    0    0    0  0.00000000000E+00  0.00000000000E+00  0.45593999997E+02  0.45594000000E+02  0.51100000000E-03 0.  1.
         11   -1    0    0    0    0 -0.00000000000E+00 -0.00000000000E+00 -0.45593999997E+02  0.45594000000E+02  0.51100000000E-03 0. -1.
    9900012    2    1    2    0    0  0.97537701821E+00 -0.14408840509E+00  0.64857822669E+00  0.90007840895E+02  0.90000103595E+02 0.  0.
         12    1    1    2    0    0 -0.97537701821E+00  0.14408840509E+00 -0.64857822669E+00  0.11801591046E+01  0.00000000000E+00 0. -1.
         11    1    3    3    0    0 -0.29106179400E+02  0.28147525553E+02 -0.39806087801E+01  0.40685355112E+02  0.51100000000E-03 0. -1.
        -11    1    3    3    0    0 -0.45355264218E+01 -0.69861806590E+01  0.21317064026E+01  0.85977841664E+01  0.51100000000E-03 0.  1.
        -12    1    3    3    0    0  0.34617082840E+02 -0.21305433299E+02  0.24974806042E+01  0.40724701617E+02  0.00000000000E+00 0.  1.
</event>
<event>
 7    1  0.2084210E-015  0.9000774E+02  0.7816164E-02  0.1186339E+00
        -11   -1    0    0    0    0  0.00000000000E+00  0.00000000000E+00  0.45593999997E+02  0.45594000000E+02  0.51100000000E-03 0.  1.
         11   -1    0    0    0    0 -0.00000000000E+00 -0.00000000000E+00 -0.45593999997E+02  0.45594000000E+02  0.51100000000E-03 0. -1.
    9900012    2    1    2    0    0  0.76063168009E+00  0.39864913391E+00  0.80965227671E+00  0.90007737955E+02  0.89999999296E+02 0.  0.
         12    1    1    2    0    0 -0.76063168009E+00 -0.39864913391E+00 -0.80965227671E+00  0.11802620446E+01  0.00000000000E+00 0. -1.
         11    1    3    3    0    0  0.39240914407E+02 -0.33183972298E+01 -0.84343121491E+01  0.40274045555E+02  0.51100000000E-03 0. -1.
        -11    1    3    3    0    0 -0.34414558963E+01  0.62144372245E+01  0.12580833442E+02  0.14447844789E+02  0.51100000000E-03 0.  1.
        -12    1    3    3    0    0 -0.35038826831E+02 -0.24973908607E+01 -0.33368690158E+01  0.35285847611E+02  0.00000000000E+00 0.  1.
</event>
<event>
 7    1  0.2084210E-015  0.9000772E+02  0.7816164E-02  0.1186339E+00
        -11   -1    0    0    0    0  0.00000000000E+00  0.00000000000E+00  0.45593999997E+02  0.45594000000E+02  0.51100000000E-03 0.  1.
         11   -1    0    0    0    0 -0.00000000000E+00 -0.00000000000E+00 -0.45593999997E+02  0.45594000000E+02  0.51100000000E-03 0. -1.
    9900012    2    1    2    0    0  0.92521812821E+00 -0.51543458441E+00  0.52091545347E+00  0.90007722785E+02  0.89999983925E+02 0.  0.
         12    1    1    2    0    0 -0.92521812821E+00  0.51543458441E+00 -0.52091545347E+00  0.11802772154E+01  0.00000000000E+00 0. -1.
         11    1    3    3    0    0  0.17821786190E+02 -0.14132448676E+02 -0.18783977082E+02  0.29498812923E+02  0.51100000000E-03 0. -1.
        -11    1    3    3    0    0  0.31293717816E+01 -0.11572277538E+02 -0.11026246841E+02  0.16287685373E+02  0.51100000000E-03 0.  1.
        -12    1    3    3    0    0 -0.20025939843E+02  0.25189291630E+02  0.30331139376E+02  0.44221224489E+02  0.00000000000E+00 0.  1.
</event>
<event>
 7    1  0.2084210E-015  0.9000782E+02  0.7816164E-02  0.1186339E+00
        -11   -1    0    0    0    0  0.00000000000E+00  0.00000000000E+00  0.45593999997E+02  0.45594000000E+02  0.51100000000E-03 0.  1.
         11   -1    0    0    0    0 -0.00000000000E+00 -0.00000000000E+00 -0.45593999997E+02  0.45594000000E+02  0.51100000000E-03 0. -1.
    9900012    2    1    2    0    0 -0.43862418396E-01 -0.10981606208E+01  0.43003819809E+00  0.90007824796E+02  0.90000087283E+02 0.  0.
         12    1    1    2    0    0  0.43862418396E-01  0.10981606208E+01 -0.43003819809E+00  0.11801752042E+01  0.00000000000E+00 0. -1.
         11    1    3    3    0    0  0.12098753868E+02  0.12200725420E+02 -0.31333284385E+02  0.35735308261E+02  0.51100000000E-03 0. -1.
        -11    1    3    3    0    0  0.16259823770E+01 -0.32101599906E+01 -0.92088652481E+01  0.98869684572E+01  0.51100000000E-03 0.  1.
        -12    1    3    3    0    0 -0.13768598663E+02 -0.10088726050E+02  0.40972187831E+02  0.44385548077E+02  0.00000000000E+00 0.  1.
</event>
<event>
 7    1  0.2084210E-015  0.9000767E+02  0.7816164E-02  0.1186339E+00
        -11   -1    0    0    0    0  0.00000000000E+00  0.00000000000E+00  0.45593999997E+02  0.45594000000E+02  0.51100000000E-03 0. -1.
         11   -1    0    0    0    0 -0.00000000000E+00 -0.00000000000E+00 -0.45593999997E+02  0.45594000000E+02  0.51100000000E-03 0.  1.
    9900012    2    1    2    0    0 -0.44151843778E+00 -0.38892060916E+00 -0.10232200321E+01  0.90007670806E+02  0.89999931261E+02 0.  0.
         12    1    1    2    0    0  0.44151843778E+00  0.38892060916E+00  0.10232200321E+01  0.11803291935E+01  0.00000000000E+00 0. -1.
         11    1    3    3    0    0 -0.47931898787E+01 -0.79692756897E+01  0.18958734916E+01  0.94909620581E+01  0.51100000000E-03 0. -1.
        -11    1    3    3    0    0 -0.33385508461E+02  0.11016108105E+02 -0.18284554501E+02  0.39626654496E+02  0.51100000000E-03 0.  1.
         12    1    3    3    0    0  0.37737179901E+02 -0.34357530248E+01  0.15365460977E+02  0.40890054253E+02  0.00000000000E+00 0. -1.
</event>
<event>
 7    1  0.2084210E-015  0.9000780E+02  0.7816164E-02  0.1186339E+00
        -11   -1    0    0    0    0  0.00000000000E+00  0.00000000000E+00  0.45593999997E+02  0.45594000000E+02  0.51100000000E-03 0. -1.
         11   -1    0    0    0    0 -0.00000000000E+00 -0.00000000000E+00 -0.45593999997E+02  0.45594000000E+02  0.51100000000E-03 0.  1.
    9900012    2    1    2    0    0  0.44156545687E+00 -0.10120526030E+01 -0.41669003630E+00  0.90007804630E+02  0.90000066852E+02 0.  0.
         12    1    1    2    0    0 -0.44156545687E+00  0.10120526030E+01  0.41669003630E+00  0.11801953695E+01  0.00000000000E+00 0. -1.
         11    1    3    3    0    0 -0.61867590197E+01  0.57150208515E+01 -0.47972466563E+01  0.96928337571E+01  0.51100000000E-03 0. -1.
        -11    1    3    3    0    0 -0.24282193160E+02  0.21294739703E+02 -0.13395169172E+02  0.34964573515E+02  0.51100000000E-03 0.  1.
         12    1    3    3    0    0  0.30910517636E+02 -0.28021813157E+02  0.17775725792E+02  0.45350397359E+02  0.00000000000E+00 0. -1.
</event>
<event>
 7    1  0.2084210E-015  0.9000772E+02  0.7816164E-02  0.1186339E+00
        -11   -1    0    0    0    0  0.00000000000E+00  0.00000000000E+00  0.45593999997E+02  0.45594000000E+02  0.51100000000E-03 0.  1.
         11   -1    0    0    0    0 -0.00000000000E+00 -0.00000000000E+00 -0.45593999997E+02  0.45594000000E+02  0.51100000000E-03 0. -1.
    9900012    2    1    2    0    0  0.69691955540E-02 -0.35055333538E+00  0.11269952740E+01  0.90007722677E+02  0.89999983817E+02 0.  0.
         12    1    1    2    0    0 -0.69691955540E-02  0.35055333538E+00 -0.11269952740E+01  0.11802773226E+01  0.00000000000E+00 0. -1.
         11    1    3    3    0    0  0.80363476864E+01  0.47374000267E+01 -0.24140533616E+01  0.96360519427E+01  0.51100000000E-03 0. -1.
        -11    1    3    3    0    0 -0.19749758586E+02  0.33797518576E+02  0.63702007702E+01  0.39659862383E+02  0.51100000000E-03 0.  1.
         12    1    3    3    0    0  0.11720380096E+02 -0.38885471938E+02 -0.28291521346E+01  0.40711808352E+02  0.00000000000E+00 0. -1.
</event>
<event>
 7    1  0.2084210E-015  0.9000777E+02  0.7816164E-02  0.1186339E+00
        -11   -1    0    0    0    0  0.00000000000E+00  0.00000000000E+00  0.45593999997E+02  0.45594000000E+02  0.51100000000E-03 0.  1.
         11   -1    0    0    0    0 -0.00000000000E+00 -0.00000000000E+00 -0.45593999997E+02  0.45594000000E+02  0.51100000000E-03 0. -1.
    9900012    2    1    2    0    0  0.13657156595E+00  0.67739175366E+00  0.95677653665E+00  0.90007774292E+02  0.90000036113E+02 0.  0.
         12    1    1    2    0    0 -0.13657156595E+00 -0.67739175366E+00 -0.95677653665E+00  0.11802257079E+01  0.00000000000E+00 0. -1.
         11    1    3    3    0    0 -0.56609360802E+01  0.81737940849E+01 -0.86481116780E-01  0.99430672476E+01  0.51100000000E-03 0. -1.
        -11    1    3    3    0    0 -0.35173086045E+02  0.64190974165E+01 -0.59134553317E+01  0.36239753694E+02  0.51100000000E-03 0.  1.
         12    1    3    3    0    0  0.40970593691E+02 -0.13915499748E+02  0.69567129851E+01  0.43824953351E+02  0.00000000000E+00 0. -1.
</event>
<event>
 7    1  0.2084210E-015  0.9000777E+02  0.7816164E-02  0.1186339E+00
        -11   -1    0    0    0    0  0.00000000000E+00  0.00000000000E+00  0.45593999997E+02  0.45594000000E+02  0.51100000000E-03 0.  1.
         11   -1    0    0    0    0 -0.00000000000E+00 -0.00000000000E+00 -0.45593999997E+02  0.45594000000E+02  0.51100000000E-03 0. -1.
    9900012    2    1    2    0    0 -0.70521445765E+00  0.27455468544E+00  0.90567005869E+00  0.90007768683E+02  0.90000030430E+02 0.  0.
         12    1    1    2    0    0  0.70521445765E+00 -0.27455468544E+00 -0.90567005869E+00  0.11802313171E+01  0.00000000000E+00 0. -1.
         11    1    3    3    0    0 -0.38319284775E+01 -0.68136340426E+01 -0.87230690600E+01  0.11713292398E+02  0.51100000000E-03 0. -1.
        -11    1    3    3    0    0  0.18327599756E+02 -0.13555585199E+02  0.35295868257E+02  0.42017295477E+02  0.51100000000E-03 0.  1.
         12    1    3    3    0    0 -0.15200885736E+02  0.20643773927E+02 -0.25667129139E+02  0.36277180808E+02  0.00000000000E+00 0. -1.
</event>
<event>
 7    1  0.2084210E-015  0.9000777E+02  0.7816164E-02  0.1186339E+00
        -11   -1    0    0    0    0  0.00000000000E+00  0.00000000000E+00  0.45593999997E+02  0.45594000000E+02  0.51100000000E-03 0.  1.
         11   -1    0    0    0    0 -0.00000000000E+00 -0.00000000000E+00 -0.45593999997E+02  0.45594000000E+02  0.51100000000E-03 0. -1.
    9900012    2    1    2    0    0  0.29937748132E+00  0.61330196462E+00  0.96290168006E+00  0.90007768742E+02  0.90000030490E+02 0.  0.
         12    1    1    2    0    0 -0.29937748132E+00 -0.61330196462E+00 -0.96290168006E+00  0.11802312577E+01  0.00000000000E+00 0. -1.
         11    1    3    3    0    0 -0.18228003272E+02 -0.34567393252E+02 -0.14525351663E+02  0.41691133599E+02  0.51100000000E-03 0. -1.
        -11    1    3    3    0    0 -0.50917482126E+01  0.58951343872E+01  0.50094765033E+01  0.92613910619E+01  0.51100000000E-03 0.  1.
        -12    1    3    3    0    0  0.23619128966E+02  0.29285560830E+02  0.10478776840E+02  0.39055244082E+02  0.00000000000E+00 0.  1.
</event>
<event>
 7    1  0.2084210E-015  0.9000758E+02  0.7816164E-02  0.1186339E+00
        -11   -1    0    0    0    0  0.00000000000E+00  0.00000000000E+00  0.45593999997E+02  0.45594000000E+02  0.51100000000E-03 0.  1.
         11   -1    0    0    0    0 -0.00000000000E+00 -0.00000000000E+00 -0.45593999997E+02  0.45594000000E+02  0.51100000000E-03 0. -1.
    9900012    2    1    2    0    0 -0.11539125567E+01  0.13429822981E+00 -0.20938213465E+00  0.90007580125E+02  0.89999839382E+02 0.  0.
         12    1    1    2    0    0  0.11539125567E+01 -0.13429822981E+00  0.20938213465E+00  0.11804198750E+01  0.00000000000E+00 0. -1.
         11    1    3    3    0    0  0.29206424051E+01  0.79036890357E+01 -0.47181864368E+01  0.96571080529E+01  0.51100000000E-03 0. -1.
        -11    1    3    3    0    0  0.20426035615E+02  0.25895231898E+02 -0.12640126021E+02  0.35320797727E+02  0.51100000000E-03 0.  1.
         12    1    3    3    0    0 -0.24500590576E+02 -0.33664622704E+02  0.17148930323E+02  0.45029674345E+02  0.00000000000E+00 0. -1.
</event>
<event>
 7    1  0.2084210E-015  0.9000647E+02  0.7816164E-02  0.1186342E+00
        -11   -1    0    0    0    0  0.00000000000E+00  0.00000000000E+00  0.45593999997E+02  0.45594000000E+02  0.51100000000E-03 0. -1.
         11   -1    0    0    0    0 -0.00000000000E+00 -0.00000000000E+00 -0.45593999997E+02  0.45594000000E+02  0.51100000000E-03 0.  1.
    9900012    2    1    2    0    0  0.26449358591E+00  0.11515460645E+01 -0.12034638916E-02  0.90006468518E+02  0.89998713093E+02 0.  0.
         12    1    1    2    0    0 -0.26449358591E+00 -0.11515460645E+01  0.12034638916E-02  0.11815314825E+01  0.00000000000E+00 0. -1.
         11    1    3    3    0    0  0.36345264228E+02  0.41436507073E+01  0.65954932628E+01  0.37170534091E+02  0.51100000000E-03 0. -1.
        -11    1    3    3    0    0  0.42875179980E+01  0.88585932404E+01 -0.41867358052E+01  0.10695150384E+02  0.51100000000E-03 0.  1.
        -12    1    3    3    0    0 -0.40368288640E+02 -0.11850697883E+02 -0.24099609214E+01  0.42140784042E+02  0.00000000000E+00 0.  1.
</event>
<event>
 7    1  0.2084210E-015  0.9000777E+02  0.7816164E-02  0.1186339E+00
        -11   -1    0    0    0    0  0.00000000000E+00  0.00000000000E+00  0.45593999997E+02  0.45594000000E+02  0.51100000000E-03 0.  1.
         11   -1    0    0    0    0 -0.00000000000E+00 -0.00000000000E+00 -0.45593999997E+02  0.45594000000E+02  0.51100000000E-03 0. -1.
    9900012    2    1    2    0    0  0.31749270327E+00 -0.11325025161E+01  0.97891940069E-01  0.90007768498E+02  0.90000030243E+02 0.  0.
         12    1    1    2    0    0 -0.31749270327E+00  0.11325025161E+01 -0.97891940069E-01  0.11802315016E+01  0.00000000000E+00 0. -1.
         11    1    3    3    0    0  0.24792453952E+02 -0.23923793159E+02  0.69985170716E+01  0.35156690594E+02  0.51100000000E-03 0. -1.
        -11    1    3    3    0    0  0.69928066364E+01 -0.72854937971E+01  0.23061980933E+01  0.10358393429E+02  0.51100000000E-03 0.  1.
        -12    1    3    3    0    0 -0.31467767885E+02  0.30076784440E+02 -0.92068232249E+01  0.44492684475E+02  0.00000000000E+00 0.  1.
</event>
<event>
 7    1  0.2084210E-015  0.9000783E+02  0.7816164E-02  0.1186339E+00
        -11   -1    0    0    0    0  0.00000000000E+00  0.00000000000E+00  0.45593999997E+02  0.45594000000E+02  0.51100000000E-03 0. -1.
         11   -1    0    0    0    0 -0.00000000000E+00 -0.00000000000E+00 -0.45593999997E+02  0.45594000000E+02  0.51100000000E-03 0.  1.
    9900012    2    1    2    0    0 -0.95340808673E+00 -0.69557376755E+00 -0.28134557700E-03  0.90007826316E+02  0.90000088823E+02 0.  0.
         12    1    1    2    0    0  0.95340808673E+00  0.69557376755E+00  0.28134557700E-03  0.11801736843E+01  0.00000000000E+00 0. -1.
         11    1    3    3    0    0 -0.28353520529E+01 -0.47811932398E+01 -0.89103111560E+01  0.10502031957E+02  0.51100000000E-03 0. -1.
        -11    1    3    3    0    0  0.23178415949E+02  0.34685430721E+02  0.52193190443E+01  0.42042352001E+02  0.51100000000E-03 0.  1.
         12    1    3    3    0    0 -0.21296471983E+02 -0.30599811249E+02  0.36907107662E+01  0.37463442358E+02  0.00000000000E+00 0. -1.
</event>
<event>
 7    1  0.2084210E-015  0.9000784E+02  0.7816164E-02  0.1186339E+00
        -11   -1    0    0    0    0  0.00000000000E+00  0.00000000000E+00  0.45593999997E+02  0.45594000000E+02  0.51100000000E-03 0. -1.
         11   -1    0    0    0    0 -0.00000000000E+00 -0.00000000000E+00 -0.45593999997E+02  0.45594000000E+02  0.51100000000E-03 0.  1.
    9900012    2    1    2    0    0  0.32585667200E+00 -0.92545673736E+00 -0.65584794587E+00  0.90007835066E+02  0.90000097689E+02 0.  0.
         12    1    1    2    0    0 -0.32585667200E+00  0.92545673736E+00  0.65584794587E+00  0.11801649340E+01  0.00000000000E+00 0. -1.
         11    1    3    3    0    0  0.58597635243E+01  0.67994325958E+01 -0.22398978569E+01  0.92512839571E+01  0.51100000000E-03 0. -1.
        -11    1    3    3    0    0  0.28866653337E+02  0.21146528200E+02  0.20706631512E+01  0.35843367252E+02  0.51100000000E-03 0.  1.
         12    1    3    3    0    0 -0.34400560190E+02 -0.28871417533E+02 -0.48661324011E+00  0.44913183857E+02  0.00000000000E+00 0. -1.
</event>
<event>
 7    1  0.2084210E-015  0.9000778E+02  0.7816164E-02  0.1186339E+00
        -11   -1    0    0    0    0  0.00000000000E+00  0.00000000000E+00  0.45593999997E+02  0.45594000000E+02  0.51100000000E-03 0. -1.
         11   -1    0    0    0    0 -0.00000000000E+00 -0.00000000000E+00 -0.45593999997E+02  0.45594000000E+02  0.51100000000E-03 0.  1.
    9900012    2    1    2    0    0  0.92201365162E+00 -0.14049678422E+00 -0.72323987325E+00  0.90007777803E+02  0.90000039670E+02 0.  0.
         12    1    1    2    0    0 -0.92201365162E+00  0.14049678422E+00  0.72323987325E+00  0.11802221971E+01  0.00000000000E+00 0. -1.
         11    1    3    3    0    0  0.47334484902E+01 -0.62714103673E+01 -0.40695514639E+01  0.88485802241E+01  0.51100000000E-03 0. -1.
        -11    1    3    3    0    0 -0.67152767562E+01  0.17694231676E+02 -0.35660289012E+02  0.40371239629E+02  0.51100000000E-03 0.  1.
         12    1    3    3    0    0  0.29038419177E+01 -0.11563318093E+02  0.39006600602E+02  0.40787957950E+02  0.00000000000E+00 0. -1.
</event>
<event>
 7    1  0.2084210E-015  0.9000773E+02  0.7816164E-02  0.1186339E+00
        -11   -1    0    0    0    0  0.00000000000E+00  0.00000000000E+00  0.45593999997E+02  0.45594000000E+02  0.51100000000E-03 0. -1.
         11   -1    0    0    0    0 -0.00000000000E+00 -0.00000000000E+00 -0.45593999997E+02  0.45594000000E+02  0.51100000000E-03 0.  1.
    9900012    2    1    2    0    0  0.10762146882E+01 -0.45444581668E+00  0.16813779472E+00  0.90007733347E+02  0.89999994627E+02 0.  0.
         12    1    1    2    0    0 -0.10762146882E+01  0.45444581668E+00 -0.16813779472E+00  0.11802666535E+01  0.00000000000E+00 0. -1.
         11    1    3    3    0    0  0.19529977084E+02 -0.39451139409E+01  0.34667365100E+02  0.39985123886E+02  0.51100000000E-03 0. -1.
        -11    1    3    3    0    0  0.42384219933E+01  0.85629580556E+01 -0.15262919932E+01  0.96756415377E+01  0.51100000000E-03 0.  1.
        -12    1    3    3    0    0 -0.22692184389E+02 -0.50722899314E+01 -0.32972935312E+02  0.40346967923E+02  0.00000000000E+00 0.  1.
</event>
<event>
 7    1  0.2084210E-015  0.9000775E+02  0.7816164E-02  0.1186339E+00
        -11   -1    0    0    0    0  0.00000000000E+00  0.00000000000E+00  0.45593999997E+02  0.45594000000E+02  0.51100000000E-03 0. -1.
         11   -1    0    0    0    0 -0.00000000000E+00 -0.00000000000E+00 -0.45593999997E+02  0.45594000000E+02  0.51100000000E-03 0.  1.
    9900012    2    1    2    0    0  0.90979889083E+00 -0.74841504369E+00 -0.71693655568E-01  0.90007746180E+02  0.90000007630E+02 0.  0.
         12    1    1    2    0    0 -0.90979889083E+00  0.74841504369E+00  0.71693655568E-01  0.11802538200E+01  0.00000000000E+00 0. -1.
         11    1    3    3    0    0  0.23731563408E+02  0.24421554827E+02  0.12799811922E+02  0.36379041046E+02  0.51100000000E-03 0. -1.
        -11    1    3    3    0    0 -0.81273737630E+00  0.72554432331E+01  0.66239867468E+01  0.98579510667E+01  0.51100000000E-03 0.  1.
        -12    1    3    3    0    0 -0.22009027141E+02 -0.32425413103E+02 -0.19495492325E+02  0.43770754067E+02  0.00000000000E+00 0.  1.
</event>
<event>
 7    1  0.2084210E-015  0.9000774E+02  0.7816164E-02  0.1186339E+00
        -11   -1    0    0    0    0  0.00000000000E+00  0.00000000000E+00  0.45593999997E+02  0.45594000000E+02  0.51100000000E-03 0. -1.
         11   -1    0    0    0    0 -0.00000000000E+00 -0.00000000000E+00 -0.45593999997E+02  0.45594000000E+02  0.51100000000E-03 0.  1.
    9900012    2    1    2    0    0  0.35124348094E+00 -0.31374080975E+00 -0.10822260630E+01  0.90007737940E+02  0.89999999281E+02 0.  0.
         12    1    1    2    0    0 -0.35124348094E+00  0.31374080975E+00  0.10822260630E+01  0.11802620599E+01  0.00000000000E+00 0. -1.
         11    1    3    3    0    0 -0.29026373112E+02 -0.14221755597E+02 -0.10664554754E+02  0.34037059166E+02  0.51100000000E-03 0. -1.
        -11    1    3    3    0    0 -0.96703195730E+01 -0.59145724141E+01  0.14042672347E+01  0.11422312122E+02  0.51100000000E-03 0.  1.
        -12    1    3    3    0    0  0.39047936166E+02  0.19822587201E+02  0.81780614562E+01  0.44548366652E+02  0.00000000000E+00 0.  1.
</event>
<event>
 7    1  0.2084210E-015  0.9000778E+02  0.7816164E-02  0.1186339E+00
        -11   -1    0    0    0    0  0.00000000000E+00  0.00000000000E+00  0.45593999997E+02  0.45594000000E+02  0.51100000000E-03 0.  1.
         11   -1    0    0    0    0 -0.00000000000E+00 -0.00000000000E+00 -0.45593999997E+02  0.45594000000E+02  0.51100000000E-03 0. -1.
    9900012    2    1    2    0    0 -0.10430419433E+01 -0.19348732968E+00  0.51724146735E+00  0.90007782826E+02  0.90000044759E+02 0.  0.
         12    1    1    2    0    0  0.10430419433E+01  0.19348732968E+00 -0.51724146735E+00  0.11802171740E+01  0.00000000000E+00 0. -1.
         11    1    3    3    0    0 -0.38519698937E+01  0.21286666757E+01  0.64918212429E+01  0.78429992470E+01  0.51100000000E-03 0. -1.
        -11    1    3    3    0    0  0.50252948940E+01 -0.29139374445E+02  0.26697223832E+02  0.39838404742E+02  0.51100000000E-03 0.  1.
         12    1    3    3    0    0 -0.22163669436E+01  0.26817220439E+02 -0.32671803607E+02  0.42326378837E+02  0.00000000000E+00 0. -1.
</event>
<event>
 7    1  0.2084210E-015  0.9000780E+02  0.7816164E-02  0.1186339E+00
        -11   -1    0    0    0    0  0.00000000000E+00  0.00000000000E+00  0.45593999997E+02  0.45594000000E+02  0.51100000000E-03 0. -1.
         11   -1    0    0    0    0 -0.00000000000E+00 -0.00000000000E+00 -0.45593999997E+02  0.45594000000E+02  0.51100000000E-03 0.  1.
    9900012    2    1    2    0    0 -0.32602329094E+00 -0.11302683907E+01 -0.95229758333E-01  0.90007802335E+02  0.90000064526E+02 0.  0.
         12    1    1    2    0    0  0.32602329094E+00  0.11302683907E+01  0.95229758333E-01  0.11801976649E+01  0.00000000000E+00 0. -1.
         11    1    3    3    0    0 -0.10717015126E+02  0.34679773145E+01 -0.12975723790E+02  0.17182860298E+02  0.51100000000E-03 0. -1.
        -11    1    3    3    0    0 -0.36828162814E+01  0.22153552665E+02 -0.18615828901E+02  0.29170055149E+02  0.51100000000E-03 0.  1.
         12    1    3    3    0    0  0.14073808117E+02 -0.26751798370E+02  0.31496322933E+02  0.43654886889E+02  0.00000000000E+00 0. -1.
</event>
<event>
 7    1  0.2084210E-015  0.9000776E+02  0.7816164E-02  0.1186339E+00
        -11   -1    0    0    0    0  0.00000000000E+00  0.00000000000E+00  0.45593999997E+02  0.45594000000E+02  0.51100000000E-03 0.  1.
         11   -1    0    0    0    0 -0.00000000000E+00 -0.00000000000E+00 -0.45593999997E+02  0.45594000000E+02  0.51100000000E-03 0. -1.
    9900012    2    1    2    0    0  0.27036002137E+00 -0.81576651662E+00  0.80895411307E+00  0.90007755827E+02  0.90000017404E+02 0.  0.
         12    1    1    2    0    0 -0.27036002137E+00  0.81576651662E+00 -0.80895411307E+00  0.11802441730E+01  0.00000000000E+00 0. -1.
         11    1    3    3    0    0 -0.12901298265E+02  0.16064537237E+02 -0.29873607803E+02  0.36289740933E+02  0.51100000000E-03 0. -1.
        -11    1    3    3    0    0  0.16999535074E+01 -0.68082110949E+01 -0.88767194632E+01  0.11315375775E+02  0.51100000000E-03 0.  1.
        -12    1    3    3    0    0  0.11471704779E+02 -0.10072092659E+02  0.39559281379E+02  0.42402639119E+02  0.00000000000E+00 0.  1.
</event>
<event>
 7    1  0.2084210E-015  0.9000770E+02  0.7816164E-02  0.1186339E+00
        -11   -1    0    0    0    0  0.00000000000E+00  0.00000000000E+00  0.45593999997E+02  0.45594000000E+02  0.51100000000E-03 0. -1.
         11   -1    0    0    0    0 -0.00000000000E+00 -0.00000000000E+00 -0.45593999997E+02  0.45594000000E+02  0.51100000000E-03 0.  1.
    9900012    2    1    2    0    0 -0.32950441176E+00 -0.60130704749E+00 -0.96070501750E+00  0.90007704506E+02  0.89999965405E+02 0.  0.
         12    1    1    2    0    0  0.32950441176E+00  0.60130704749E+00  0.96070501750E+00  0.11802954941E+01  0.00000000000E+00 0. -1.
         11    1    3    3    0    0 -0.33001206492E+02  0.14717951078E+02  0.22243013587E+02  0.42431702387E+02  0.51100000000E-03 0. -1.
        -11    1    3    3    0    0  0.67094756326E+01 -0.11051548370E+02 -0.68912584064E+00  0.12947149467E+02  0.51100000000E-03 0.  1.
        -12    1    3    3    0    0  0.25962226447E+02 -0.42677097553E+01 -0.22514592763E+02  0.34628852652E+02  0.00000000000E+00 0.  1.
</event>
<event>
 7    1  0.2084210E-015  0.9000785E+02  0.7816164E-02  0.1186339E+00
        -11   -1    0    0    0    0  0.00000000000E+00  0.00000000000E+00  0.45593999997E+02  0.45594000000E+02  0.51100000000E-03 0. -1.
         11   -1    0    0    0    0 -0.00000000000E+00 -0.00000000000E+00 -0.45593999997E+02  0.45594000000E+02  0.51100000000E-03 0.  1.
    9900012    2    1    2    0    0 -0.10554681211E+01 -0.50241186025E+00  0.16227450383E+00  0.90007845923E+02  0.90000108689E+02 0.  0.
         12    1    1    2    0    0  0.10554681211E+01  0.50241186025E+00 -0.16227450383E+00  0.11801540775E+01  0.00000000000E+00 0. -1.
         11    1    3    3    0    0 -0.91072207609E+01 -0.40940502747E+01  0.22946972683E+01  0.10245406456E+02  0.51100000000E-03 0. -1.
        -11    1    3    3    0    0 -0.27943764988E+02  0.25043370120E+02 -0.45010069449E+01  0.37792637543E+02  0.51100000000E-03 0.  1.
         12    1    3    3    0    0  0.35995517628E+02 -0.21451731706E+02  0.23685841804E+01  0.41969801923E+02  0.00000000000E+00 0. -1.
</event>
<event>
 7    1  0.2084210E-015  0.9000787E+02  0.7816164E-02  0.1186339E+00
        -11   -1    0    0    0    0  0.00000000000E+00  0.00000000000E+00  0.45593999997E+02  0.45594000000E+02  0.51100000000E-03 0.  1.
         11   -1    0    0    0    0 -0.00000000000E+00 -0.00000000000E+00 -0.45593999997E+02  0.45594000000E+02  0.51100000000E-03 0. -1.
    9900012    2    1    2    0    0  0.10036515568E+01  0.62027463477E+00  0.25547655226E-01  0.90007868756E+02  0.90000131824E+02 0.  0.
         12    1    1    2    0    0 -0.10036515568E+01 -0.62027463477E+00 -0.25547655226E-01  0.11801312438E+01  0.00000000000E+00 0. -1.
         11    1    3    3    0    0  0.38669082148E+00  0.40724452263E+01  0.34555464044E+01  0.53549174715E+01  0.51100000000E-03 0. -1.
        -11    1    3    3    0    0  0.82585300535E+00 -0.66864911909E+00  0.40560282002E+02  0.40574198712E+02  0.51100000000E-03 0.  1.
         12    1    3    3    0    0 -0.20889227002E+00 -0.27835214724E+01 -0.43990280751E+02  0.44078752572E+02  0.00000000000E+00 0. -1.
</event>
<event>
 7    1  0.2290525E-015  0.9000782E+02  0.7816164E-02  0.1186339E+00
        -11   -1    0    0    0    0  0.00000000000E+00  0.00000000000E+00  0.45593999997E+02  0.45594000000E+02  0.51100000000E-03 0. -1.
         11   -1    0    0    0    0 -0.00000000000E+00 -0.00000000000E+00 -0.45593999997E+02  0.45594000000E+02  0.51100000000E-03 0.  1.
    9900012    2    1    2    0    0  0.80394960271E+00 -0.42352027024E+00 -0.75307456996E+00  0.90007819636E+02  0.90000082055E+02 0.  0.
         12    1    1    2    0    0 -0.80394960271E+00  0.42352027024E+00  0.75307456996E+00  0.11801803637E+01  0.00000000000E+00 0. -1.
         11    1    3    3    0    0  0.26793612912E+02 -0.23025174187E+00  0.29027543719E+02  0.39503784671E+02  0.51100000000E-03 0. -1.
        -11    1    3    3    0    0 -0.15801404529E+01 -0.92341136589E+01  0.18403466903E+01  0.95473857740E+01  0.51100000000E-03 0.  1.
        -12    1    3    3    0    0 -0.24409522856E+02  0.90408451305E+01 -0.31620964979E+02  0.40956649191E+02  0.00000000000E+00 0.  1.
</event>
<event>
 7    1  0.2084210E-015  0.9000765E+02  0.7816164E-02  0.1186339E+00
        -11   -1    0    0    0    0  0.00000000000E+00  0.00000000000E+00  0.45593999997E+02  0.45594000000E+02  0.51100000000E-03 0. -1.
         11   -1    0    0    0    0 -0.00000000000E+00 -0.00000000000E+00 -0.45593999997E+02  0.45594000000E+02  0.51100000000E-03 0.  1.
    9900012    2    1    2    0    0  0.63218690925E+00 -0.99673311782E+00  0.87957590778E-02  0.90007654897E+02  0.89999915142E+02 0.  0.
         12    1    1    2    0    0 -0.63218690925E+00  0.99673311782E+00 -0.87957590778E-02  0.11803451028E+01  0.00000000000E+00 0. -1.
         11    1    3    3    0    0 -0.10285818954E+02 -0.19145260411E+02  0.30375032153E+02  0.37349453092E+02  0.51100000000E-03 0. -1.
        -11    1    3    3    0    0  0.33992392385E+01 -0.70938951032E+01  0.44221065208E+01  0.90240346563E+01  0.51100000000E-03 0.  1.
        -12    1    3    3    0    0  0.75187666249E+01  0.25242422396E+02 -0.34788342915E+02  0.43634167148E+02  0.00000000000E+00 0.  1.
</event>
<event>
 7    1  0.2084210E-015  0.9000772E+02  0.7816164E-02  0.1186339E+00
        -11   -1    0    0    0    0  0.00000000000E+00  0.00000000000E+00  0.45593999997E+02  0.45594000000E+02  0.51100000000E-03 0. -1.
         11   -1    0    0    0    0 -0.00000000000E+00 -0.00000000000E+00 -0.45593999997E+02  0.45594000000E+02  0.51100000000E-03 0.  1.
    9900012    2    1    2    0    0  0.59015504331E+00  0.55002399186E+00 -0.86153653548E+00  0.90007722673E+02  0.89999983812E+02 0.  0.
         12    1    1    2    0    0 -0.59015504331E+00 -0.55002399186E+00  0.86153653548E+00  0.11802773270E+01  0.00000000000E+00 0. -1.
         11    1    3    3    0    0 -0.38599003701E+02 -0.83368455667E+00 -0.58084751084E+00  0.38612374969E+02  0.51100000000E-03 0. -1.
        -11    1    3    3    0    0 -0.33469511109E+01 -0.62111541270E+01 -0.38531156694E+01  0.80390931050E+01  0.51100000000E-03 0.  1.
        -12    1    3    3    0    0  0.42536109855E+02  0.75948626756E+01  0.35724266448E+01  0.43356254599E+02  0.00000000000E+00 0.  1.
</event>
<event>
 7    1  0.2084210E-015  0.9000773E+02  0.7816164E-02  0.1186339E+00
        -11   -1    0    0    0    0  0.00000000000E+00  0.00000000000E+00  0.45593999997E+02  0.45594000000E+02  0.51100000000E-03 0.  1.
         11   -1    0    0    0    0 -0.00000000000E+00 -0.00000000000E+00 -0.45593999997E+02  0.45594000000E+02  0.51100000000E-03 0. -1.
    9900012    2    1    2    0    0  0.17766640144E-01  0.11200013407E+01  0.37191092771E+00  0.90007730372E+02  0.89999991613E+02 0.  0.
         12    1    1    2    0    0 -0.17766640144E-01 -0.11200013407E+01 -0.37191092771E+00  0.11802696280E+01  0.00000000000E+00 0. -1.
         11    1    3    3    0    0 -0.65726140478E+00  0.72807198291E+00  0.92811505977E+01  0.93328365487E+01  0.51100000000E-03 0. -1.
        -11    1    3    3    0    0 -0.14416968106E+02  0.37146176941E+01  0.32894260619E+02  0.36106505452E+02  0.51100000000E-03 0.  1.
         12    1    3    3    0    0  0.15091996151E+02 -0.33226883363E+01 -0.41803500289E+02  0.44568388372E+02  0.00000000000E+00 0. -1.
</event>
<event>
 7    1  0.2084210E-015  0.9000761E+02  0.7816164E-02  0.1186339E+00
        -11   -1    0    0    0    0  0.00000000000E+00  0.00000000000E+00  0.45593999997E+02  0.45594000000E+02  0.51100000000E-03 0.  1.
         11   -1    0    0    0    0 -0.00000000000E+00 -0.00000000000E+00 -0.45593999997E+02  0.45594000000E+02  0.51100000000E-03 0. -1.
    9900012    2    1    2    0    0 -0.65942761583E+00 -0.84726277499E+00  0.49053205569E+00  0.90007609942E+02  0.89999869594E+02 0.  0.
         12    1    1    2    0    0  0.65942761583E+00  0.84726277499E+00 -0.49053205569E+00  0.11803900576E+01  0.00000000000E+00 0. -1.
         11    1    3    3    0    0  0.17721297593E+02  0.27999252989E+02 -0.15222892954E+02  0.36465586880E+02  0.51100000000E-03 0. -1.
        -11    1    3    3    0    0  0.59355073974E+01 -0.40711736787E+00 -0.74506699602E+01  0.95345936323E+01  0.51100000000E-03 0.  1.
        -12    1    3    3    0    0 -0.24316232606E+02 -0.28439398396E+02  0.23164094970E+02  0.44007429430E+02  0.00000000000E+00 0.  1.
</event>
<event>
 7    1  0.2084210E-015  0.9000777E+02  0.7816164E-02  0.1186339E+00
        -11   -1    0    0    0    0  0.00000000000E+00  0.00000000000E+00  0.45593999997E+02  0.45594000000E+02  0.51100000000E-03 0. -1.
         11   -1    0    0    0    0 -0.00000000000E+00 -0.00000000000E+00 -0.45593999997E+02  0.45594000000E+02  0.51100000000E-03 0.  1.
    9900012    2    1    2    0    0 -0.11578513325E+01 -0.17456060206E+00 -0.14783883778E+00  0.90007768059E+02  0.90000029798E+02 0.  0.
         12    1    1    2    0    0  0.11578513325E+01  0.17456060206E+00  0.14783883778E+00  0.11802319407E+01  0.00000000000E+00 0. -1.
         11    1    3    3    0    0  0.75242242074E+00 -0.42456276844E+01  0.86061548553E+00  0.43968344532E+01  0.51100000000E-03 0. -1.
        -11    1    3    3    0    0 -0.32768706567E+02  0.12819341294E+02 -0.26979860438E+02  0.44340010271E+02  0.51100000000E-03 0.  1.
         12    1    3    3    0    0  0.30858432814E+02 -0.87482742115E+01  0.25971406114E+02  0.41270923336E+02  0.00000000000E+00 0. -1.
</event>
<event>
 7    1  0.2084210E-015  0.9000777E+02  0.7816164E-02  0.1186339E+00
        -11   -1    0    0    0    0  0.00000000000E+00  0.00000000000E+00  0.45593999997E+02  0.45594000000E+02  0.51100000000E-03 0.  1.
         11   -1    0    0    0    0 -0.00000000000E+00 -0.00000000000E+00 -0.45593999997E+02  0.45594000000E+02  0.51100000000E-03 0. -1.
    9900012    2    1    2    0    0  0.10303602820E+01  0.56585213689E+00  0.10537941962E+00  0.90007772999E+02  0.90000034803E+02 0.  0.
         12    1    1    2    0    0 -0.10303602820E+01 -0.56585213689E+00 -0.10537941962E+00  0.11802270009E+01  0.00000000000E+00 0. -1.
         11    1    3    3    0    0  0.71222005288E+01 -0.30858170718E+02 -0.17559332519E+02  0.36211636240E+02  0.51100000000E-03 0. -1.
        -11    1    3    3    0    0 -0.24939059142E+01 -0.77624067980E+01 -0.37735177061E+01  0.89840949542E+01  0.51100000000E-03 0.  1.
        -12    1    3    3    0    0 -0.35979343326E+01  0.39186429653E+02  0.21438229645E+02  0.44812041805E+02  0.00000000000E+00 0.  1.
</event>
<event>
 7    1  0.2084210E-015  0.9000774E+02  0.7816164E-02  0.1186339E+00
        -11   -1    0    0    0    0  0.00000000000E+00  0.00000000000E+00  0.45593999997E+02  0.45594000000E+02  0.51100000000E-03 0.  1.
         11   -1    0    0    0    0 -0.00000000000E+00 -0.00000000000E+00 -0.45593999997E+02  0.45594000000E+02  0.51100000000E-03 0. -1.
    9900012    2    1    2    0    0  0.77010215121E+00  0.37840653051E+00  0.81040568720E+00  0.90007743162E+02  0.90000004572E+02 0.  0.
         12    1    1    2    0    0 -0.77010215121E+00 -0.37840653051E+00 -0.81040568720E+00  0.11802568379E+01  0.00000000000E+00 0. -1.
         11    1    3    3    0    0 -0.79961560270E+01 -0.31282862701E+02 -0.24386931053E+02  0.40463297153E+02  0.51100000000E-03 0. -1.
        -11    1    3    3    0    0 -0.55467923054E+01  0.93382701170E+01 -0.25571449585E+01  0.11158368351E+02  0.51100000000E-03 0.  1.
        -12    1    3    3    0    0  0.14313050484E+02  0.22322999115E+02  0.27754481699E+02  0.38386077659E+02  0.00000000000E+00 0.  1.
</event>
<event>
 7    1  0.2084210E-015  0.9000769E+02  0.7816164E-02  0.1186339E+00
        -11   -1    0    0    0    0  0.00000000000E+00  0.00000000000E+00  0.45593999997E+02  0.45594000000E+02  0.51100000000E-03 0.  1.
         11   -1    0    0    0    0 -0.00000000000E+00 -0.00000000000E+00 -0.45593999997E+02  0.45594000000E+02  0.51100000000E-03 0. -1.
    9900012    2    1    2    0    0  0.90312279923E+00 -0.28912188601E-01  0.75938579154E+00  0.90007689242E+02  0.89999949940E+02 0.  0.
         12    1    1    2    0    0 -0.90312279923E+00  0.28912188601E-01 -0.75938579154E+00  0.11803107580E+01  0.00000000000E+00 0. -1.
         11    1    3    3    0    0  0.59025577723E+01  0.38935175265E+01  0.17371333724E+02  0.18755343307E+02  0.51100000000E-03 0. -1.
        -11    1    3    3    0    0 -0.19158843474E+02 -0.78730941084E+01  0.21831478952E+02  0.30094191593E+02  0.51100000000E-03 0.  1.
         12    1    3    3    0    0  0.14159408501E+02  0.39506643933E+01 -0.38443426884E+02  0.41158154342E+02  0.00000000000E+00 0. -1.
</event>
<event>
 7    1  0.2084210E-015  0.9000801E+02  0.7816164E-02  0.1186339E+00
        -11   -1    0    0    0    0  0.00000000000E+00  0.00000000000E+00  0.45593999997E+02  0.45594000000E+02  0.51100000000E-03 0.  1.
         11   -1    0    0    0    0 -0.00000000000E+00 -0.00000000000E+00 -0.45593999997E+02  0.45594000000E+02  0.51100000000E-03 0. -1.
    9900012    2    1    2    0    0  0.11508568693E+01 -0.32317026802E-01  0.25859519196E+00  0.90008005340E+02  0.90000270210E+02 0.  0.
         12    1    1    2    0    0 -0.11508568693E+01  0.32317026802E-01 -0.25859519196E+00  0.11799946598E+01  0.00000000000E+00 0. -1.
         11    1    3    3    0    0  0.13970296696E+02 -0.26444394783E+02 -0.32711097894E+02  0.44322580373E+02  0.51100000000E-03 0. -1.
        -11    1    3    3    0    0 -0.17561889626E+01  0.11000609070E+02  0.58323505374E+01  0.12574335475E+02  0.51100000000E-03 0.  1.
        -12    1    3    3    0    0 -0.11063250864E+02  0.15411468687E+02  0.27137342549E+02  0.33111089492E+02  0.00000000000E+00 0.  1.
</event>
<event>
 7    1  0.2084210E-015  0.9000783E+02  0.7816164E-02  0.1186339E+00
        -11   -1    0    0    0    0  0.00000000000E+00  0.00000000000E+00  0.45593999997E+02  0.45594000000E+02  0.51100000000E-03 0.  1.
         11   -1    0    0    0    0 -0.00000000000E+00 -0.00000000000E+00 -0.45593999997E+02  0.45594000000E+02  0.51100000000E-03 0. -1.
    9900012    2    1    2    0    0  0.16396000197E-01  0.74458893418E+00  0.91548679550E+00  0.90007831545E+02  0.90000094121E+02 0.  0.
         12    1    1    2    0    0 -0.16396000197E-01 -0.74458893418E+00 -0.91548679550E+00  0.11801684551E+01  0.00000000000E+00 0. -1.
         11    1    3    3    0    0  0.61872761795E+01 -0.79882981981E+00 -0.69834705939E+00  0.62775954376E+01  0.51100000000E-03 0. -1.
        -11    1    3    3    0    0  0.13156847519E+02 -0.83699683466E+01  0.38156030034E+02  0.41219432735E+02  0.51100000000E-03 0.  1.
         12    1    3    3    0    0 -0.19327727699E+02  0.99133871006E+01 -0.36542196179E+02  0.42510803373E+02  0.00000000000E+00 0. -1.
</event>
<event>
 7    1  0.2084210E-015  0.9000780E+02  0.7816164E-02  0.1186339E+00
        -11   -1    0    0    0    0  0.00000000000E+00  0.00000000000E+00  0.45593999997E+02  0.45594000000E+02  0.51100000000E-03 0.  1.
         11   -1    0    0    0    0 -0.00000000000E+00 -0.00000000000E+00 -0.45593999997E+02  0.45594000000E+02  0.51100000000E-03 0. -1.
    9900012    2    1    2    0    0 -0.31917810506E+00  0.14722999227E+00  0.11266401128E+01  0.90007801170E+02  0.90000063346E+02 0.  0.
         12    1    1    2    0    0  0.31917810506E+00 -0.14722999227E+00 -0.11266401128E+01  0.11801988295E+01  0.00000000000E+00 0. -1.
         11    1    3    3    0    0 -0.17587810590E+02  0.11417275923E+02 -0.23707443897E+02  0.31650089530E+02  0.51100000000E-03 0. -1.
        -11    1    3    3    0    0 -0.54345010807E+01  0.89684555646E+01 -0.83054103983E+01  0.13377101306E+02  0.51100000000E-03 0.  1.
        -12    1    3    3    0    0  0.22703133565E+02 -0.20238501495E+02  0.33139494408E+02  0.44980610335E+02  0.00000000000E+00 0.  1.
</event>
<event>
 7    1  0.2084210E-015  0.9000772E+02  0.7816164E-02  0.1186339E+00
        -11   -1    0    0    0    0  0.00000000000E+00  0.00000000000E+00  0.45593999997E+02  0.45594000000E+02  0.51100000000E-03 0.  1.
         11   -1    0    0    0    0 -0.00000000000E+00 -0.00000000000E+00 -0.45593999997E+02  0.45594000000E+02  0.51100000000E-03 0. -1.
    9900012    2    1    2    0    0  0.30520153914E+00  0.10234246056E+01 -0.50251212823E+00  0.90007718533E+02  0.89999979617E+02 0.  0.
         12    1    1    2    0    0 -0.30520153914E+00 -0.10234246056E+01  0.50251212823E+00  0.11802814672E+01  0.00000000000E+00 0. -1.
         11    1    3    3    0    0 -0.30901343543E+00 -0.48518649680E+01 -0.31622593975E+02  0.31994132789E+02  0.51100000000E-03 0. -1.
        -11    1    3    3    0    0 -0.11776651206E+02 -0.22173499147E+00 -0.94859322829E+01  0.15123544280E+02  0.51100000000E-03 0.  1.
        -12    1    3    3    0    0  0.12390866181E+02  0.60970245651E+01  0.40606014130E+02  0.42890041464E+02  0.00000000000E+00 0.  1.
</event>
<event>
 7    1  0.2084210E-015  0.9000772E+02  0.7816164E-02  0.1186339E+00
        -11   -1    0    0    0    0  0.00000000000E+00  0.00000000000E+00  0.45593999997E+02  0.45594000000E+02  0.51100000000E-03 0. -1.
         11   -1    0    0    0    0 -0.00000000000E+00 -0.00000000000E+00 -0.45593999997E+02  0.45594000000E+02  0.51100000000E-03 0.  1.
    9900012    2    1    2    0    0 -0.52750912043E+00  0.75773810223E+00 -0.73527567718E+00  0.90007719006E+02  0.89999980097E+02 0.  0.
         12    1    1    2    0    0  0.52750912043E+00 -0.75773810223E+00  0.73527567718E+00  0.11802809942E+01  0.00000000000E+00 0. -1.
         11    1    3    3    0    0  0.48053954290E+01  0.73562900246E+01 -0.10013096762E+02  0.13321746701E+02  0.51100000000E-03 0. -1.
        -11    1    3    3    0    0 -0.34820738141E+02 -0.16348222497E+02 -0.10488343273E+02  0.39871713387E+02  0.51100000000E-03 0.  1.
         12    1    3    3    0    0  0.29487833592E+02  0.97496705747E+01  0.19766164358E+02  0.36814258918E+02  0.00000000000E+00 0. -1.
</event>
<event>
 7    1  0.2084210E-015  0.9000782E+02  0.7816164E-02  0.1186339E+00
        -11   -1    0    0    0    0  0.00000000000E+00  0.00000000000E+00  0.45593999997E+02  0.45594000000E+02  0.51100000000E-03 0. -1.
         11   -1    0    0    0    0 -0.00000000000E+00 -0.00000000000E+00 -0.45593999997E+02  0.45594000000E+02  0.51100000000E-03 0.  1.
    9900012    2    1    2    0    0 -0.11163685324E+01 -0.18817013118E+00 -0.33337939789E+00  0.90007818437E+02  0.90000080840E+02 0.  0.
         12    1    1    2    0    0  0.11163685324E+01  0.18817013118E+00  0.33337939789E+00  0.11801815629E+01  0.00000000000E+00 0. -1.
         11    1    3    3    0    0 -0.60951856237E+01  0.13697716778E+02 -0.87532456922E+01  0.17360819195E+02  0.51100000000E-03 0. -1.
        -11    1    3    3    0    0  0.28298431669E+02 -0.28893306052E+01 -0.19619870106E+02  0.34555589555E+02  0.51100000000E-03 0.  1.
         12    1    3    3    0    0 -0.23319614577E+02 -0.10996556304E+02  0.28039736400E+02  0.38091409687E+02  0.00000000000E+00 0. -1.
</event>
<event>
 7    1  0.2084210E-015  0.9000772E+02  0.7816164E-02  0.1186339E+00
        -11   -1    0    0    0    0  0.00000000000E+00  0.00000000000E+00  0.45593999997E+02  0.45594000000E+02  0.51100000000E-03 0. -1.
         11   -1    0    0    0    0 -0.00000000000E+00 -0.00000000000E+00 -0.45593999997E+02  0.45594000000E+02  0.51100000000E-03 0.  1.
    9900012    2    1    2    0    0 -0.10069016178E-02 -0.87715884986E+00 -0.78971136402E+00  0.90007723465E+02  0.89999984614E+02 0.  0.
         12    1    1    2    0    0  0.10069016178E-02  0.87715884986E+00  0.78971136402E+00  0.11802765355E+01  0.00000000000E+00 0. -1.
         11    1    3    3    0    0 -0.73080936247E+01 -0.17366328748E+01  0.46947400967E+01  0.88580308763E+01  0.51100000000E-03 0. -1.
        -11    1    3    3    0    0 -0.35789004915E+02 -0.48458148812E+01  0.49218750580E+01  0.36449412191E+02  0.51100000000E-03 0.  1.
         12    1    3    3    0    0  0.43096091638E+02  0.57052889062E+01 -0.10406326519E+02  0.44700280398E+02  0.00000000000E+00 0. -1.
</event>
<event>
 7    1  0.2084210E-015  0.9000844E+02  0.7816164E-02  0.1186338E+00
        -11   -1    0    0    0    0  0.00000000000E+00  0.00000000000E+00  0.45593999997E+02  0.45594000000E+02  0.51100000000E-03 0. -1.
         11   -1    0    0    0    0 -0.00000000000E+00 -0.00000000000E+00 -0.45593999997E+02  0.45594000000E+02  0.51100000000E-03 0.  1.
    9900012    2    1    2    0    0 -0.69097553636E+00  0.67093696178E+00 -0.68100453912E+00  0.90008436190E+02  0.90000706745E+02 0.  0.
         12    1    1    2    0    0  0.69097553636E+00 -0.67093696178E+00  0.68100453912E+00  0.11795638096E+01  0.00000000000E+00 0. -1.
         11    1    3    3    0    0  0.13215472939E+02  0.12130797190E+02  0.35499903672E+02  0.39774968592E+02  0.51100000000E-03 0. -1.
        -11    1    3    3    0    0  0.96437940831E+00  0.90035169802E+01 -0.60420382459E+01  0.10885750874E+02  0.51100000000E-03 0.  1.
        -12    1    3    3    0    0 -0.14870827884E+02 -0.20463377208E+02 -0.30138869965E+02  0.39347716725E+02  0.00000000000E+00 0.  1.
</event>
<event>
 7    1  0.2084210E-015  0.9000773E+02  0.7816164E-02  0.1186339E+00
        -11   -1    0    0    0    0  0.00000000000E+00  0.00000000000E+00  0.45593999997E+02  0.45594000000E+02  0.51100000000E-03 0.  1.
         11   -1    0    0    0    0 -0.00000000000E+00 -0.00000000000E+00 -0.45593999997E+02  0.45594000000E+02  0.51100000000E-03 0. -1.
    9900012    2    1    2    0    0  0.60854716246E-01 -0.24493304232E+00  0.11529738235E+01  0.90007727095E+02  0.89999988293E+02 0.  0.
         12    1    1    2    0    0 -0.60854716246E-01  0.24493304232E+00 -0.11529738235E+01  0.11802729047E+01  0.00000000000E+00 0. -1.
         11    1    3    3    0    0 -0.10261831058E+02  0.22252975431E+00 -0.34563130674E+02  0.36055023207E+02  0.51100000000E-03 0. -1.
        -11    1    3    3    0    0 -0.72982872831E+01 -0.44886678047E+01 -0.46329817242E+01  0.97405162001E+01  0.51100000000E-03 0.  1.
        -12    1    3    3    0    0  0.17620973058E+02  0.40212050081E+01  0.40349086222E+02  0.44212187688E+02  0.00000000000E+00 0.  1.
</event>
<event>
 7    1  0.2084210E-015  0.9000773E+02  0.7816164E-02  0.1186339E+00
        -11   -1    0    0    0    0  0.00000000000E+00  0.00000000000E+00  0.45593999997E+02  0.45594000000E+02  0.51100000000E-03 0. -1.
         11   -1    0    0    0    0 -0.00000000000E+00 -0.00000000000E+00 -0.45593999997E+02  0.45594000000E+02  0.51100000000E-03 0.  1.
    9900012    2    1    2    0    0  0.63597533017E+00 -0.98982885167E+00 -0.93899238835E-01  0.90007727640E+02  0.89999988845E+02 0.  0.
         12    1    1    2    0    0 -0.63597533017E+00  0.98982885167E+00  0.93899238835E-01  0.11802723598E+01  0.00000000000E+00 0. -1.
         11    1    3    3    0    0 -0.12338289866E+02 -0.55590523678E+00  0.36998720398E+02  0.39005739818E+02  0.51100000000E-03 0. -1.
        -11    1    3    3    0    0  0.10248236346E+02 -0.31396002833E+01  0.26767719929E+01  0.11047558404E+02  0.51100000000E-03 0.  1.
        -12    1    3    3    0    0  0.27260288503E+01  0.27056766684E+01 -0.39769391629E+02  0.39954429418E+02  0.00000000000E+00 0.  1.
</event>
<event>
 7    1  0.2084210E-015  0.9000772E+02  0.7816164E-02  0.1186339E+00
        -11   -1    0    0    0    0  0.00000000000E+00  0.00000000000E+00  0.45593999997E+02  0.45594000000E+02  0.51100000000E-03 0. -1.
         11   -1    0    0    0    0 -0.00000000000E+00 -0.00000000000E+00 -0.45593999997E+02  0.45594000000E+02  0.51100000000E-03 0.  1.
    9900012    2    1    2    0    0  0.96541323504E+00 -0.67684776227E+00  0.53910898087E-01  0.90007723764E+02  0.89999984918E+02 0.  0.
         12    1    1    2    0    0 -0.96541323504E+00  0.67684776227E+00 -0.53910898087E-01  0.11802762357E+01  0.00000000000E+00 0. -1.
         11    1    3    3    0    0  0.88600030942E+01 -0.20918152623E+02 -0.73594762567E+01  0.23879502822E+02  0.51100000000E-03 0. -1.
        -11    1    3    3    0    0  0.12076744142E+02 -0.63549293483E+01 -0.19183116762E+02  0.23541980482E+02  0.51100000000E-03 0.  1.
         12    1    3    3    0    0 -0.19971334001E+02  0.26596234209E+02  0.26596503916E+02  0.42586240460E+02  0.00000000000E+00 0. -1.
</event>
<event>
 7    1  0.2804624E-015  0.9000769E+02  0.7816164E-02  0.1186339E+00
        -11   -1    0    0    0    0  0.00000000000E+00  0.00000000000E+00  0.45593999997E+02  0.45594000000E+02  0.51100000000E-03 0. -1.
         11   -1    0    0    0    0 -0.00000000000E+00 -0.00000000000E+00 -0.45593999997E+02  0.45594000000E+02  0.51100000000E-03 0.  1.
    9900012    2    1    2    0    0 -0.25482867146E-01  0.47268668398E+00 -0.10812218502E+01  0.90007693783E+02  0.89999954540E+02 0.  0.
         12    1    1    2    0    0  0.25482867146E-01 -0.47268668398E+00  0.10812218502E+01  0.11803062175E+01  0.00000000000E+00 0. -1.
         11    1    3    3    0    0  0.12164579333E+02  0.18501242694E+02  0.28741047483E+02  0.36281135350E+02  0.51100000000E-03 0. -1.
        -11    1    3    3    0    0 -0.39131745683E+01  0.34540235333E+01  0.79387956364E+01  0.95009310169E+01  0.51100000000E-03 0.  1.
        -12    1    3    3    0    0 -0.82768876318E+01 -0.21482579543E+02 -0.37761064970E+02  0.44225627416E+02  0.00000000000E+00 0.  1.
</event>
<event>
 7    1  0.2084210E-015  0.9000777E+02  0.7816164E-02  0.1186339E+00
        -11   -1    0    0    0    0  0.00000000000E+00  0.00000000000E+00  0.45593999997E+02  0.45594000000E+02  0.51100000000E-03 0.  1.
         11   -1    0    0    0    0 -0.00000000000E+00 -0.00000000000E+00 -0.45593999997E+02  0.45594000000E+02  0.51100000000E-03 0. -1.
    9900012    2    1    2    0    0  0.31827511682E+00  0.10132149571E+01  0.51481330419E+00  0.90007772760E+02  0.90000034561E+02 0.  0.
         12    1    1    2    0    0 -0.31827511682E+00 -0.10132149571E+01 -0.51481330419E+00  0.11802272398E+01  0.00000000000E+00 0. -1.
         11    1    3    3    0    0  0.56901508742E+01 -0.58407166948E+01  0.64939886245E+01  0.10424187114E+02  0.51100000000E-03 0. -1.
        -11    1    3    3    0    0  0.10295400957E+02 -0.97332600120E+01  0.32158810262E+02  0.35141438631E+02  0.51100000000E-03 0.  1.
         12    1    3    3    0    0 -0.15667276715E+02  0.16587191664E+02 -0.38137985583E+02  0.44442147014E+02  0.00000000000E+00 0. -1.
</event>
<event>
 7    1  0.2084210E-015  0.9000758E+02  0.7816164E-02  0.1186339E+00
        -11   -1    0    0    0    0  0.00000000000E+00  0.00000000000E+00  0.45593999997E+02  0.45594000000E+02  0.51100000000E-03 0.  1.
         11   -1    0    0    0    0 -0.00000000000E+00 -0.00000000000E+00 -0.45593999997E+02  0.45594000000E+02  0.51100000000E-03 0. -1.
    9900012    2    1    2    0    0  0.66981114398E+00 -0.74500220325E+00  0.62426701143E+00  0.90007582890E+02  0.89999842184E+02 0.  0.
         12    1    1    2    0    0 -0.66981114398E+00  0.74500220325E+00 -0.62426701143E+00  0.11804171098E+01  0.00000000000E+00 0. -1.
         11    1    3    3    0    0  0.12932991826E+02  0.33146401775E+02 -0.93422067926E+01  0.36786180234E+02  0.51100000000E-03 0. -1.
        -11    1    3    3    0    0  0.37301223469E+00  0.36519707257E+01 -0.86911225771E+01  0.94345980423E+01  0.51100000000E-03 0.  1.
        -12    1    3    3    0    0 -0.12636192917E+02 -0.37543374704E+02  0.18657596381E+02  0.43786804614E+02  0.00000000000E+00 0.  1.
</event>
<event>
 7    1  0.2084210E-015  0.9000763E+02  0.7816164E-02  0.1186339E+00
        -11   -1    0    0    0    0  0.00000000000E+00  0.00000000000E+00  0.45593999997E+02  0.45594000000E+02  0.51100000000E-03 0.  1.
         11   -1    0    0    0    0 -0.00000000000E+00 -0.00000000000E+00 -0.45593999997E+02  0.45594000000E+02  0.51100000000E-03 0. -1.
    9900012    2    1    2    0    0 -0.50519280788E+00  0.83828193078E-01  0.10634990347E+01  0.90007628391E+02  0.89999888285E+02 0.  0.
         12    1    1    2    0    0  0.50519280788E+00 -0.83828193078E-01 -0.10634990347E+01  0.11803716093E+01  0.00000000000E+00 0. -1.
         11    1    3    3    0    0  0.32542852011E+01 -0.14277336644E+01 -0.90867463985E+01  0.97569337375E+01  0.51100000000E-03 0. -1.
        -11    1    3    3    0    0 -0.14963403262E+02  0.20437793670E+02  0.37438595710E+02  0.45202381533E+02  0.51100000000E-03 0.  1.
         12    1    3    3    0    0  0.11203925253E+02 -0.18926231813E+02 -0.27288350277E+02  0.35048313120E+02  0.00000000000E+00 0. -1.
</event>
<event>
 7    1  0.2084210E-015  0.9000770E+02  0.7816164E-02  0.1186339E+00
        -11   -1    0    0    0    0  0.00000000000E+00  0.00000000000E+00  0.45593999997E+02  0.45594000000E+02  0.51100000000E-03 0.  1.
         11   -1    0    0    0    0 -0.00000000000E+00 -0.00000000000E+00 -0.45593999997E+02  0.45594000000E+02  0.51100000000E-03 0. -1.
    9900012    2    1    2    0    0 -0.11536349687E+01  0.14090061007E+00  0.20585316095E+00  0.90007702518E+02  0.89999963391E+02 0.  0.
         12    1    1    2    0    0  0.11536349687E+01 -0.14090061007E+00 -0.20585316095E+00  0.11802974824E+01  0.00000000000E+00 0. -1.
         11    1    3    3    0    0  0.41773323561E+00  0.10302641911E+02 -0.19425617838E+01  0.10492496268E+02  0.51100000000E-03 0. -1.
        -11    1    3    3    0    0 -0.15195446691E+02  0.11119595599E+02  0.33995130618E+02  0.38861496529E+02  0.51100000000E-03 0.  1.
         12    1    3    3    0    0  0.13624078487E+02 -0.21281336900E+02 -0.31846715674E+02  0.40653709721E+02  0.00000000000E+00 0. -1.
</event>
<event>
 7    1  0.2084210E-015  0.9000751E+02  0.7816164E-02  0.1186340E+00
        -11   -1    0    0    0    0  0.00000000000E+00  0.00000000000E+00  0.45593999997E+02  0.45594000000E+02  0.51100000000E-03 0. -1.
         11   -1    0    0    0    0 -0.00000000000E+00 -0.00000000000E+00 -0.45593999997E+02  0.45594000000E+02  0.51100000000E-03 0.  1.
    9900012    2    1    2    0    0 -0.99037427127E+00  0.54496192929E+00 -0.34019528146E+00  0.90007509623E+02  0.89999767949E+02 0.  0.
         12    1    1    2    0    0  0.99037427127E+00 -0.54496192929E+00  0.34019528146E+00  0.11804903774E+01  0.00000000000E+00 0. -1.
         11    1    3    3    0    0 -0.92400745327E+01 -0.60065053673E+01  0.37590467926E+00  0.11027165941E+02  0.51100000000E-03 0. -1.
        -11    1    3    3    0    0 -0.10393155001E+02  0.36703485119E+02 -0.14687583423E+02  0.40876504227E+02  0.51100000000E-03 0.  1.
         12    1    3    3    0    0  0.18642855263E+02 -0.30152017822E+02  0.13971483462E+02  0.38103839455E+02  0.00000000000E+00 0. -1.
</event>
<event>
 8    1  0.2084210E-015  0.9000771E+02  0.7816164E-02  0.1186339E+00
        -11   -1    0    0    0    0  0.00000000000E+00  0.00000000000E+00  0.45593999997E+02  0.45594000000E+02  0.51100000000E-03 0.  1.
         11   -1    0    0    0    0 -0.00000000000E+00 -0.00000000000E+00 -0.45593999997E+02  0.45594000000E+02  0.51100000000E-03 0. -1.
    9900012    2    1    2    0    0  0.29686185803E+00 -0.11049657161E+01 -0.28985471546E+00  0.90007706836E+02  0.89999967766E+02 0.  0.
         23    2    3    3    0    0 -0.16752860401E+02  0.84966351255E+01 -0.20355037892E+02  0.61981016990E+02  0.55447883272E+02 0.  0.
         12    1    1    2    0    0 -0.29686185803E+00  0.11049657161E+01  0.28985471546E+00  0.11802931638E+01  0.00000000000E+00 0. -1.
         11    1    4    4    0    0 -0.45286650033E+01 -0.86884920395E+01 -0.34973848277E+02  0.36320362942E+02  0.51100000000E-03 0. -1.
        -11    1    4    4    0    0 -0.12224195398E+02  0.17185127165E+02  0.14618810385E+02  0.25660654048E+02  0.51100000000E-03 0.  1.
        -12    1    3    3    0    0  0.17049722260E+02 -0.96016008416E+01  0.20065183177E+02  0.28026689847E+02  0.00000000000E+00 0.  1.
</event>
<event>
 7    1  0.2084210E-015  0.9000780E+02  0.7816164E-02  0.1186339E+00
        -11   -1    0    0    0    0  0.00000000000E+00  0.00000000000E+00  0.45593999997E+02  0.45594000000E+02  0.51100000000E-03 0.  1.
         11   -1    0    0    0    0 -0.00000000000E+00 -0.00000000000E+00 -0.45593999997E+02  0.45594000000E+02  0.51100000000E-03 0. -1.
    9900012    2    1    2    0    0  0.10082568962E+01  0.18263776811E+00  0.58561204283E+00  0.90007796633E+02  0.90000058748E+02 0.  0.
         12    1    1    2    0    0 -0.10082568962E+01 -0.18263776811E+00 -0.58561204283E+00  0.11802033672E+01  0.00000000000E+00 0. -1.
         11    1    3    3    0    0 -0.27530400368E+01  0.40436539418E+02 -0.62455828500E+01  0.41008538806E+02  0.51100000000E-03 0. -1.
        -11    1    3    3    0    0 -0.80038817718E+01 -0.35709954784E+01 -0.29605354155E+01  0.92508865700E+01  0.51100000000E-03 0.  1.
        -12    1    3    3    0    0  0.11765178705E+02 -0.36682906172E+02  0.97917303083E+01  0.39748371257E+02  0.00000000000E+00 0.  1.
</event>
<event>
 7    1  0.2084210E-015  0.9000780E+02  0.7816164E-02  0.1186339E+00
        -11   -1    0    0    0    0  0.00000000000E+00  0.00000000000E+00  0.45593999997E+02  0.45594000000E+02  0.51100000000E-03 0. -1.
         11   -1    0    0    0    0 -0.00000000000E+00 -0.00000000000E+00 -0.45593999997E+02  0.45594000000E+02  0.51100000000E-03 0.  1.
    9900012    2    1    2    0    0  0.10516255610E+01  0.53496818903E+00  0.27702346522E-01  0.90007798871E+02  0.90000061017E+02 0.  0.
         12    1    1    2    0    0 -0.10516255610E+01 -0.53496818903E+00 -0.27702346522E-01  0.11802011285E+01  0.00000000000E+00 0. -1.
         11    1    3    3    0    0 -0.18071004849E+02 -0.21533503932E+02  0.30666845950E+02  0.41601784200E+02  0.51100000000E-03 0. -1.
        -11    1    3    3    0    0  0.97515381440E+01  0.23087806785E+01  0.86164529056E+00  0.10058101076E+02  0.51100000000E-03 0.  1.
        -12    1    3    3    0    0  0.93710922665E+01  0.19759691442E+02 -0.31500788894E+02  0.38347913595E+02  0.00000000000E+00 0.  1.
</event>
<event>
 7    1  0.2084210E-015  0.9000770E+02  0.7816164E-02  0.1186339E+00
        -11   -1    0    0    0    0  0.00000000000E+00  0.00000000000E+00  0.45593999997E+02  0.45594000000E+02  0.51100000000E-03 0. -1.
         11   -1    0    0    0    0 -0.00000000000E+00 -0.00000000000E+00 -0.45593999997E+02  0.45594000000E+02  0.51100000000E-03 0.  1.
    9900012    2    1    2    0    0  0.10831733336E+01 -0.46376358304E+00  0.69127145168E-01  0.90007695084E+02  0.89999955859E+02 0.  0.
         12    1    1    2    0    0 -0.10831733336E+01  0.46376358304E+00 -0.69127145168E-01  0.11803049156E+01  0.00000000000E+00 0. -1.
         11    1    3    3    0    0 -0.23147198636E+02 -0.10514928368E+01  0.27878484174E+02  0.36250632022E+02  0.51100000000E-03 0. -1.
        -11    1    3    3    0    0 -0.89024046464E+01 -0.64588190070E+01 -0.20182595640E+01  0.11182241429E+02  0.51100000000E-03 0.  1.
        -12    1    3    3    0    0  0.33132776616E+02  0.70465482608E+01 -0.25791097465E+02  0.42574821633E+02  0.00000000000E+00 0.  1.
</event>
<event>
 7    1  0.2084210E-015  0.9000776E+02  0.7816164E-02  0.1186339E+00
        -11   -1    0    0    0    0  0.00000000000E+00  0.00000000000E+00  0.45593999997E+02  0.45594000000E+02  0.51100000000E-03 0. -1.
         11   -1    0    0    0    0 -0.00000000000E+00 -0.00000000000E+00 -0.45593999997E+02  0.45594000000E+02  0.51100000000E-03 0.  1.
    9900012    2    1    2    0    0 -0.37424067801E+00  0.90419746870E+00  0.65980612886E+00  0.90007757112E+02  0.90000018706E+02 0.  0.
         12    1    1    2    0    0  0.37424067801E+00 -0.90419746870E+00 -0.65980612886E+00  0.11802428882E+01  0.00000000000E+00 0. -1.
         11    1    3    3    0    0  0.26475542157E+02  0.20998068621E+02  0.17638390451E+02  0.38118053942E+02  0.51100000000E-03 0. -1.
        -11    1    3    3    0    0  0.56193021546E+01 -0.36160397183E+01  0.58776453280E+01  0.88993828332E+01  0.51100000000E-03 0.  1.
        -12    1    3    3    0    0 -0.32469084990E+02 -0.16477831434E+02 -0.22856229650E+02  0.42990320337E+02  0.00000000000E+00 0.  1.
</event>
<event>
 7    1  0.2084210E-015  0.9000781E+02  0.7816164E-02  0.1186339E+00
        -11   -1    0    0    0    0  0.00000000000E+00  0.00000000000E+00  0.45593999997E+02  0.45594000000E+02  0.51100000000E-03 0. -1.
         11   -1    0    0    0    0 -0.00000000000E+00 -0.00000000000E+00 -0.45593999997E+02  0.45594000000E+02  0.51100000000E-03 0.  1.
    9900012    2    1    2    0    0 -0.11017915912E+00 -0.10194468566E+01 -0.58431942463E+00  0.90007813349E+02  0.90000075685E+02 0.  0.
         12    1    1    2    0    0  0.11017915912E+00  0.10194468566E+01  0.58431942463E+00  0.11801866507E+01  0.00000000000E+00 0. -1.
         11    1    3    3    0    0 -0.31471566959E+02  0.22030513490E+02  0.97556623174E+01  0.39635539595E+02  0.51100000000E-03 0. -1.
        -11    1    3    3    0    0 -0.53143954217E+01 -0.73258967079E+01  0.36196982853E+00  0.90577361240E+01  0.51100000000E-03 0.  1.
        -12    1    3    3    0    0  0.36675783221E+02 -0.15724063638E+02 -0.10701951571E+02  0.41314537631E+02  0.00000000000E+00 0.  1.
</event>
<event>
 7    1  0.2084210E-015  0.9000793E+02  0.7816164E-02  0.1186339E+00
        -11   -1    0    0    0    0  0.00000000000E+00  0.00000000000E+00  0.45593999997E+02  0.45594000000E+02  0.51100000000E-03 0. -1.
         11   -1    0    0    0    0 -0.00000000000E+00 -0.00000000000E+00 -0.45593999997E+02  0.45594000000E+02  0.51100000000E-03 0.  1.
    9900012    2    1    2    0    0 -0.83435951680E+00  0.82428311387E+00 -0.13021673026E+00  0.90007934387E+02  0.90000198320E+02 0.  0.
         12    1    1    2    0    0  0.83435951680E+00 -0.82428311387E+00  0.13021673026E+00  0.11800656134E+01  0.00000000000E+00 0. -1.
         11    1    3    3    0    0  0.27378359405E+01 -0.33478444649E+02  0.20470925041E+02  0.39336506887E+02  0.51100000000E-03 0. -1.
        -11    1    3    3    0    0  0.94047689138E+01  0.91489222732E+00 -0.20654099494E+00  0.94514213509E+01  0.51100000000E-03 0.  1.
        -12    1    3    3    0    0 -0.12976964371E+02  0.33387835536E+02 -0.20394600777E+02  0.41220006149E+02  0.00000000000E+00 0.  1.
</event>
<event>
 7    1  0.2084210E-015  0.9000776E+02  0.7816164E-02  0.1186339E+00
        -11   -1    0    0    0    0  0.00000000000E+00  0.00000000000E+00  0.45593999997E+02  0.45594000000E+02  0.51100000000E-03 0. -1.
         11   -1    0    0    0    0 -0.00000000000E+00 -0.00000000000E+00 -0.45593999997E+02  0.45594000000E+02  0.51100000000E-03 0.  1.
    9900012    2    1    2    0    0 -0.19707301482E+00  0.11141621470E+01 -0.33581394660E+00  0.90007760164E+02  0.90000021798E+02 0.  0.
         12    1    1    2    0    0  0.19707301482E+00 -0.11141621470E+01  0.33581394660E+00  0.11802398357E+01  0.00000000000E+00 0. -1.
         11    1    3    3    0    0  0.12224355180E+02 -0.31845744400E+02  0.13401246082E+02  0.36649415995E+02  0.51100000000E-03 0. -1.
        -11    1    3    3    0    0  0.62549536478E+01 -0.40631685669E+01  0.37576842859E+01  0.83518845415E+01  0.51100000000E-03 0.  1.
        -12    1    3    3    0    0 -0.18676381843E+02  0.37023075114E+02 -0.17494744314E+02  0.45006459628E+02  0.00000000000E+00 0.  1.
</event>
<event>
 7    1  0.2084210E-015  0.9000784E+02  0.7816164E-02  0.1186339E+00
        -11   -1    0    0    0    0  0.00000000000E+00  0.00000000000E+00  0.45593999997E+02  0.45594000000E+02  0.51100000000E-03 0.  1.
         11   -1    0    0    0    0 -0.00000000000E+00 -0.00000000000E+00 -0.45593999997E+02  0.45594000000E+02  0.51100000000E-03 0. -1.
    9900012    2    1    2    0    0 -0.37703725117E+00 -0.96913446162E+00  0.55802700233E+00  0.90007842032E+02  0.90000104747E+02 0.  0.
         12    1    1    2    0    0  0.37703725117E+00  0.96913446162E+00 -0.55802700233E+00  0.11801579677E+01  0.00000000000E+00 0. -1.
         11    1    3    3    0    0  0.85649141087E+00  0.87512032594E+01 -0.49285679503E+01  0.10080075313E+02  0.51100000000E-03 0. -1.
        -11    1    3    3    0    0 -0.36059803285E+02  0.11847604863E+02 -0.30683110086E+01  0.38080043155E+02  0.51100000000E-03 0.  1.
         12    1    3    3    0    0  0.34826274623E+02 -0.21567942584E+02  0.85549059612E+01  0.41847723564E+02  0.00000000000E+00 0. -1.
</event>
<event>
 7    1  0.2084210E-015  0.9000771E+02  0.7816164E-02  0.1186339E+00
        -11   -1    0    0    0    0  0.00000000000E+00  0.00000000000E+00  0.45593999997E+02  0.45594000000E+02  0.51100000000E-03 0.  1.
         11   -1    0    0    0    0 -0.00000000000E+00 -0.00000000000E+00 -0.45593999997E+02  0.45594000000E+02  0.51100000000E-03 0. -1.
    9900012    2    1    2    0    0  0.79508957634E+00 -0.73966420849E+00  0.46239269298E+00  0.90007712925E+02  0.89999973936E+02 0.  0.
         12    1    1    2    0    0 -0.79508957634E+00  0.73966420849E+00 -0.46239269298E+00  0.11802870745E+01  0.00000000000E+00 0. -1.
         11    1    3    3    0    0 -0.13359836957E+02 -0.33822776774E+02 -0.16141690304E+02  0.39787179321E+02  0.51100000000E-03 0. -1.
        -11    1    3    3    0    0 -0.81595217500E+00  0.45851977173E+01 -0.83023014105E+01  0.95193500320E+01  0.51100000000E-03 0.  1.
        -12    1    3    3    0    0  0.14970878708E+02  0.28497914848E+02  0.24906384407E+02  0.40701183573E+02  0.00000000000E+00 0.  1.
</event>
<event>
 7    1  0.2084210E-015  0.9000776E+02  0.7816164E-02  0.1186339E+00
        -11   -1    0    0    0    0  0.00000000000E+00  0.00000000000E+00  0.45593999997E+02  0.45594000000E+02  0.51100000000E-03 0.  1.
         11   -1    0    0    0    0 -0.00000000000E+00 -0.00000000000E+00 -0.45593999997E+02  0.45594000000E+02  0.51100000000E-03 0. -1.
    9900012    2    1    2    0    0  0.60263439157E+00 -0.93546954412E+00  0.39331711078E+00  0.90007758572E+02  0.90000020186E+02 0.  0.
         12    1    1    2    0    0 -0.60263439157E+00  0.93546954412E+00 -0.39331711078E+00  0.11802414276E+01  0.00000000000E+00 0. -1.
         11    1    3    3    0    0 -0.15608340702E+02  0.38906816028E+02 -0.67113147228E+01  0.42454709732E+02  0.51100000000E-03 0. -1.
        -11    1    3    3    0    0  0.22731505594E+01 -0.64210711061E+01 -0.59663701252E+01  0.90551057613E+01  0.51100000000E-03 0.  1.
        -12    1    3    3    0    0  0.13937824534E+02 -0.33421214466E+02  0.13071001959E+02  0.38497943079E+02  0.00000000000E+00 0.  1.
</event>
<event>
 7    1  0.2084210E-015  0.9000781E+02  0.7816164E-02  0.1186339E+00
        -11   -1    0    0    0    0  0.00000000000E+00  0.00000000000E+00  0.45593999997E+02  0.45594000000E+02  0.51100000000E-03 0. -1.
         11   -1    0    0    0    0 -0.00000000000E+00 -0.00000000000E+00 -0.45593999997E+02  0.45594000000E+02  0.51100000000E-03 0.  1.
    9900012    2    1    2    0    0  0.78030630555E+00  0.75343168764E+00 -0.46510348862E+00  0.90007805739E+02  0.90000067975E+02 0.  0.
         12    1    1    2    0    0 -0.78030630555E+00 -0.75343168764E+00  0.46510348862E+00  0.11801942609E+01  0.00000000000E+00 0. -1.
         11    1    3    3    0    0 -0.55113654248E+01 -0.63240321042E+01  0.34437649633E+01  0.90679682556E+01  0.51100000000E-03 0. -1.
        -11    1    3    3    0    0 -0.34261728907E+02 -0.86223260409E+01  0.72017681717E+01  0.36056567212E+02  0.51100000000E-03 0.  1.
         12    1    3    3    0    0  0.40553400638E+02  0.15699789833E+02 -0.11110636624E+02  0.44883270271E+02  0.00000000000E+00 0. -1.
</event>
<event>
 7    1  0.2084210E-015  0.9000780E+02  0.7816164E-02  0.1186339E+00
        -11   -1    0    0    0    0  0.00000000000E+00  0.00000000000E+00  0.45593999997E+02  0.45594000000E+02  0.51100000000E-03 0. -1.
         11   -1    0    0    0    0 -0.00000000000E+00 -0.00000000000E+00 -0.45593999997E+02  0.45594000000E+02  0.51100000000E-03 0.  1.
    9900012    2    1    2    0    0 -0.98379381336E-01  0.14719451150E-02 -0.11760889043E+01  0.90007802652E+02  0.90000064847E+02 0.  0.
         12    1    1    2    0    0  0.98379381336E-01 -0.14719451150E-02  0.11760889043E+01  0.11801973480E+01  0.00000000000E+00 0. -1.
         11    1    3    3    0    0  0.56432611812E+01  0.23909780278E+01 -0.11094104198E+02  0.12674475173E+02  0.51100000000E-03 0. -1.
        -11    1    3    3    0    0 -0.53627226475E+01 -0.19590705059E+02 -0.28639680514E+02  0.35111049816E+02  0.51100000000E-03 0.  1.
         12    1    3    3    0    0 -0.37891791512E+00  0.17201198977E+02  0.38557695808E+02  0.42222277663E+02  0.00000000000E+00 0. -1.
</event>
<event>
 7    1  0.2084210E-015  0.9000772E+02  0.7816164E-02  0.1186339E+00
        -11   -1    0    0    0    0  0.00000000000E+00  0.00000000000E+00  0.45593999997E+02  0.45594000000E+02  0.51100000000E-03 0.  1.
         11   -1    0    0    0    0 -0.00000000000E+00 -0.00000000000E+00 -0.45593999997E+02  0.45594000000E+02  0.51100000000E-03 0. -1.
    9900012    2    1    2    0    0 -0.53047632747E-01 -0.39003756019E-01  0.11784378790E+01  0.90007724109E+02  0.89999985267E+02 0.  0.
         12    1    1    2    0    0  0.53047632747E-01  0.39003756019E-01 -0.11784378790E+01  0.11802758910E+01  0.00000000000E+00 0. -1.
         11    1    3    3    0    0  0.87403522129E+01  0.28660564110E+01  0.70442936973E+01  0.11585771882E+02  0.51100000000E-03 0. -1.
        -11    1    3    3    0    0  0.23964296523E+02 -0.14450852368E+02  0.20605121408E+02  0.34751772192E+02  0.51100000000E-03 0.  1.
         12    1    3    3    0    0 -0.32757696368E+02  0.11545792201E+02 -0.26470977226E+02  0.43670180034E+02  0.00000000000E+00 0. -1.
</event>
<event>
 7    1  0.2084210E-015  0.9000748E+02  0.7816164E-02  0.1186340E+00
        -11   -1    0    0    0    0  0.00000000000E+00  0.00000000000E+00  0.45593999997E+02  0.45594000000E+02  0.51100000000E-03 0.  1.
         11   -1    0    0    0    0 -0.00000000000E+00 -0.00000000000E+00 -0.45593999997E+02  0.45594000000E+02  0.51100000000E-03 0. -1.
    9900012    2    1    2    0    0  0.43557240281E+00 -0.52019665763E+00  0.96607590728E+00  0.90007478700E+02  0.89999736619E+02 0.  0.
         12    1    1    2    0    0 -0.43557240281E+00  0.52019665763E+00 -0.96607590728E+00  0.11805212998E+01  0.00000000000E+00 0. -1.
         11    1    3    3    0    0 -0.51745994868E+01 -0.33764360672E+02  0.21895245964E+02  0.40573517564E+02  0.51100000000E-03 0. -1.
        -11    1    3    3    0    0 -0.42985375975E+01 -0.37819780327E+01 -0.60183856307E+01  0.83067291504E+01  0.51100000000E-03 0.  1.
        -12    1    3    3    0    0  0.99087094871E+01  0.37026142047E+02 -0.14910784426E+02  0.41127231986E+02  0.00000000000E+00 0.  1.
</event>
<event>
 7    1  0.2084210E-015  0.9000769E+02  0.7816164E-02  0.1186339E+00
        -11   -1    0    0    0    0  0.00000000000E+00  0.00000000000E+00  0.45593999997E+02  0.45594000000E+02  0.51100000000E-03 0. -1.
         11   -1    0    0    0    0 -0.00000000000E+00 -0.00000000000E+00 -0.45593999997E+02  0.45594000000E+02  0.51100000000E-03 0.  1.
    9900012    2    1    2    0    0  0.24176167732E+00  0.18133973644E+00 -0.11409680024E+01  0.90007686147E+02  0.89999946804E+02 0.  0.
         12    1    1    2    0    0 -0.24176167732E+00 -0.18133973644E+00  0.11409680024E+01  0.11803138528E+01  0.00000000000E+00 0. -1.
         11    1    3    3    0    0  0.11257932183E+02 -0.12662651880E+02  0.11067664923E+02  0.20238008716E+02  0.51100000000E-03 0. -1.
        -11    1    3    3    0    0 -0.21431533485E+02 -0.73285778573E+01  0.20099816654E+02  0.30282359728E+02  0.51100000000E-03 0.  1.
         12    1    3    3    0    0  0.10415362979E+02  0.20172569474E+02 -0.32308449580E+02  0.39487317703E+02  0.00000000000E+00 0. -1.
</event>
<event>
 7    1  0.2084210E-015  0.9000773E+02  0.7816164E-02  0.1186339E+00
        -11   -1    0    0    0    0  0.00000000000E+00  0.00000000000E+00  0.45593999997E+02  0.45594000000E+02  0.51100000000E-03 0. -1.
         11   -1    0    0    0    0 -0.00000000000E+00 -0.00000000000E+00 -0.45593999997E+02  0.45594000000E+02  0.51100000000E-03 0.  1.
    9900012    2    1    2    0    0 -0.33778325294E+00 -0.83924743970E+00 -0.75802103728E+00  0.90007733215E+02  0.89999994493E+02 0.  0.
         12    1    1    2    0    0  0.33778325294E+00  0.83924743970E+00  0.75802103728E+00  0.11802667851E+01  0.00000000000E+00 0. -1.
         11    1    3    3    0    0 -0.50724932256E+00 -0.71021427327E+01 -0.87679621967E+01  0.11294905693E+02  0.51100000000E-03 0. -1.
        -11    1    3    3    0    0  0.20683640212E+02  0.56000929940E+01 -0.29199141529E+02  0.36218281023E+02  0.51100000000E-03 0.  1.
         12    1    3    3    0    0 -0.20514174142E+02  0.66280229897E+00  0.37209082689E+02  0.42494546499E+02  0.00000000000E+00 0. -1.
</event>
<event>
 7    1  0.2084210E-015  0.9000771E+02  0.7816164E-02  0.1186339E+00
        -11   -1    0    0    0    0  0.00000000000E+00  0.00000000000E+00  0.45593999997E+02  0.45594000000E+02  0.51100000000E-03 0. -1.
         11   -1    0    0    0    0 -0.00000000000E+00 -0.00000000000E+00 -0.45593999997E+02  0.45594000000E+02  0.51100000000E-03 0.  1.
    9900012    2    1    2    0    0  0.37775553840E-01  0.92775618842E+00 -0.72864430461E+00  0.90007711450E+02  0.89999972442E+02 0.  0.
         12    1    1    2    0    0 -0.37775553840E-01 -0.92775618842E+00  0.72864430461E+00  0.11802885496E+01  0.00000000000E+00 0. -1.
         11    1    3    3    0    0  0.58146687778E+01 -0.26196590530E+01  0.11402402325E+02  0.13064752795E+02  0.51100000000E-03 0. -1.
        -11    1    3    3    0    0  0.24566270412E+02  0.51008654760E+01 -0.31982471643E+02  0.40649710494E+02  0.51100000000E-03 0.  1.
         12    1    3    3    0    0 -0.30343163636E+02 -0.15534502346E+01  0.19851425013E+02  0.36293248162E+02  0.00000000000E+00 0. -1.
</event>
<event>
 7    1  0.2084210E-015  0.9000757E+02  0.7816164E-02  0.1186339E+00
        -11   -1    0    0    0    0  0.00000000000E+00  0.00000000000E+00  0.45593999997E+02  0.45594000000E+02  0.51100000000E-03 0.  1.
         11   -1    0    0    0    0 -0.00000000000E+00 -0.00000000000E+00 -0.45593999997E+02  0.45594000000E+02  0.51100000000E-03 0. -1.
    9900012    2    1    2    0    0  0.11086287167E+01  0.39771601880E+00  0.78670413956E-01  0.90007565886E+02  0.89999824956E+02 0.  0.
         12    1    1    2    0    0 -0.11086287167E+01 -0.39771601880E+00 -0.78670413956E-01  0.11804341139E+01  0.00000000000E+00 0. -1.
         11    1    3    3    0    0  0.38605505979E+01 -0.64941673613E+01  0.61037141710E+01  0.97125376487E+01  0.51100000000E-03 0. -1.
        -11    1    3    3    0    0 -0.28762186897E+02 -0.13703022405E+02 -0.26387238833E+02  0.41368134979E+02  0.51100000000E-03 0.  1.
         12    1    3    3    0    0  0.26010265016E+02  0.20594905785E+02  0.20362195076E+02  0.38926893259E+02  0.00000000000E+00 0. -1.
</event>
<event>
 7    1  0.2688506E-015  0.9000776E+02  0.7816164E-02  0.1186339E+00
        -11   -1    0    0    0    0  0.00000000000E+00  0.00000000000E+00  0.45593999997E+02  0.45594000000E+02  0.51100000000E-03 0.  1.
         11   -1    0    0    0    0 -0.00000000000E+00 -0.00000000000E+00 -0.45593999997E+02  0.45594000000E+02  0.51100000000E-03 0. -1.
    9900012    2    1    2    0    0  0.52984286841E+00 -0.93179723726E+00  0.49395803805E+00  0.90007756762E+02  0.90000018352E+02 0.  0.
         12    1    1    2    0    0 -0.52984286841E+00  0.93179723726E+00 -0.49395803805E+00  0.11802432376E+01  0.00000000000E+00 0. -1.
         11    1    3    3    0    0 -0.12985843762E+02 -0.10819760156E+02 -0.33653698100E+02  0.37659935530E+02  0.51100000000E-03 0. -1.
        -11    1    3    3    0    0  0.52503917331E+01 -0.55906441764E+01 -0.51991200615E+01  0.92656767337E+01  0.51100000000E-03 0.  1.
        -12    1    3    3    0    0  0.82652948976E+01  0.15478607096E+02  0.39346776199E+02  0.43082144499E+02  0.00000000000E+00 0.  1.
</event>
<event>
 7    1  0.2084210E-015  0.9000675E+02  0.7816164E-02  0.1186341E+00
        -11   -1    0    0    0    0  0.00000000000E+00  0.00000000000E+00  0.45593999997E+02  0.45594000000E+02  0.51100000000E-03 0. -1.
         11   -1    0    0    0    0 -0.00000000000E+00 -0.00000000000E+00 -0.45593999997E+02  0.45594000000E+02  0.51100000000E-03 0.  1.
    9900012    2    1    2    0    0 -0.11327103884E+01  0.19006439588E+00  0.27602974814E+00  0.90006750780E+02  0.89998999084E+02 0.  0.
         12    1    1    2    0    0  0.11327103884E+01 -0.19006439588E+00 -0.27602974814E+00  0.11812492202E+01  0.00000000000E+00 0. -1.
         11    1    3    3    0    0 -0.62736086738E+01 -0.11056405986E+01  0.55477499835E+01  0.84473745664E+01  0.51100000000E-03 0. -1.
        -11    1    3    3    0    0 -0.10764278611E+02 -0.23899237370E+02 -0.32116181364E+02  0.41454702345E+02  0.51100000000E-03 0.  1.
         12    1    3    3    0    0  0.15905176896E+02  0.25194942364E+02  0.26844461128E+02  0.40104673868E+02  0.00000000000E+00 0. -1.
</event>
<event>
 7    1  0.2084210E-015  0.9000766E+02  0.7816164E-02  0.1186339E+00
        -11   -1    0    0    0    0  0.00000000000E+00  0.00000000000E+00  0.45593999997E+02  0.45594000000E+02  0.51100000000E-03 0. -1.
         11   -1    0    0    0    0 -0.00000000000E+00 -0.00000000000E+00 -0.45593999997E+02  0.45594000000E+02  0.51100000000E-03 0.  1.
    9900012    2    1    2    0    0  0.97752596445E+00 -0.13234601820E+00 -0.64817046213E+00  0.90007662155E+02  0.89999922496E+02 0.  0.
         12    1    1    2    0    0 -0.97752596445E+00  0.13234601820E+00  0.64817046213E+00  0.11803378447E+01  0.00000000000E+00 0. -1.
         11    1    3    3    0    0 -0.20856483563E+01  0.90335253381E+00 -0.17146923582E+02  0.17296906181E+02  0.51100000000E-03 0. -1.
        -11    1    3    3    0    0 -0.80994886153E+01 -0.68417209651E+01 -0.26164360226E+02  0.28230915817E+02  0.51100000000E-03 0.  1.
         12    1    3    3    0    0  0.11162662936E+02  0.58060224131E+01  0.42663113345E+02  0.44479840157E+02  0.00000000000E+00 0. -1.
</event>
<event>
 7    1  0.2084210E-015  0.9000770E+02  0.7816164E-02  0.1186339E+00
        -11   -1    0    0    0    0  0.00000000000E+00  0.00000000000E+00  0.45593999997E+02  0.45594000000E+02  0.51100000000E-03 0. -1.
         11   -1    0    0    0    0 -0.00000000000E+00 -0.00000000000E+00 -0.45593999997E+02  0.45594000000E+02  0.51100000000E-03 0.  1.
    9900012    2    1    2    0    0 -0.84364956004E-01 -0.11531235518E+01  0.23725684254E+00  0.90007702503E+02  0.89999963376E+02 0.  0.
         12    1    1    2    0    0  0.84364956004E-01  0.11531235518E+01 -0.23725684254E+00  0.11802974967E+01  0.00000000000E+00 0. -1.
         11    1    3    3    0    0  0.31908932737E+02 -0.14819878065E+02 -0.87308573016E+01  0.36249643361E+02  0.51100000000E-03 0. -1.
        -11    1    3    3    0    0  0.44617166305E+01  0.10648927927E+01 -0.98314375516E+01  0.10848874437E+02  0.51100000000E-03 0.  1.
        -12    1    3    3    0    0 -0.36455014324E+02  0.12601861721E+02  0.18799551696E+02  0.42909184706E+02  0.00000000000E+00 0.  1.
</event>
<event>
 8    1  0.2084210E-015  0.9000777E+02  0.7816164E-02  0.1186339E+00
        -11   -1    0    0    0    0  0.00000000000E+00  0.00000000000E+00  0.45593999997E+02  0.45594000000E+02  0.51100000000E-03 0.  1.
         11   -1    0    0    0    0 -0.00000000000E+00 -0.00000000000E+00 -0.45593999997E+02  0.45594000000E+02  0.51100000000E-03 0. -1.
    9900012    2    1    2    0    0  0.11207109322E+00  0.15943470078E+00  0.11640281991E+01  0.90007770784E+02  0.90000032558E+02 0.  0.
         23    2    3    3    0    0 -0.18350812572E+02 -0.30884144950E+01 -0.16484680898E+02  0.64260857757E+02  0.59257257017E+02 0.  0.
         12    1    1    2    0    0 -0.11207109322E+00 -0.15943470078E+00 -0.11640281991E+01  0.11802292159E+01  0.00000000000E+00 0. -1.
         11    1    4    4    0    0 -0.27872239397E+02  0.21809121198E+02 -0.10841471531E+02  0.37014010883E+02  0.51100000000E-03 0. -1.
        -11    1    4    4    0    0  0.95214268250E+01 -0.24897535693E+02 -0.56432093665E+01  0.27246846874E+02  0.51100000000E-03 0.  1.
        -12    1    3    3    0    0  0.18462883665E+02  0.32478491958E+01  0.17648709097E+02  0.25746913027E+02  0.00000000000E+00 0.  1.
</event>
<event>
 7    1  0.2084210E-015  0.9000759E+02  0.7816164E-02  0.1186339E+00
        -11   -1    0    0    0    0  0.00000000000E+00  0.00000000000E+00  0.45593999997E+02  0.45594000000E+02  0.51100000000E-03 0.  1.
         11   -1    0    0    0    0 -0.00000000000E+00 -0.00000000000E+00 -0.45593999997E+02  0.45594000000E+02  0.51100000000E-03 0. -1.
    9900012    2    1    2    0    0  0.38952896666E+00  0.10865832269E+01  0.24690743065E+00  0.90007593628E+02  0.89999853063E+02 0.  0.
         12    1    1    2    0    0 -0.38952896666E+00 -0.10865832269E+01 -0.24690743065E+00  0.11804063725E+01  0.00000000000E+00 0. -1.
         11    1    3    3    0    0 -0.11683553095E+02 -0.61758186051E+01 -0.36027363791E+02  0.38374693358E+02  0.51100000000E-03 0. -1.
        -11    1    3    3    0    0 -0.39230269553E+01 -0.26912767132E+01 -0.46049651304E+01  0.66210886531E+01  0.51100000000E-03 0.  1.
        -12    1    3    3    0    0  0.15996109017E+02  0.99536785451E+01  0.40879236352E+02  0.45011811616E+02  0.00000000000E+00 0.  1.
</event>
<event>
 7    1  0.2084210E-015  0.9000770E+02  0.7816164E-02  0.1186339E+00
        -11   -1    0    0    0    0  0.00000000000E+00  0.00000000000E+00  0.45593999997E+02  0.45594000000E+02  0.51100000000E-03 0.  1.
         11   -1    0    0    0    0 -0.00000000000E+00 -0.00000000000E+00 -0.45593999997E+02  0.45594000000E+02  0.51100000000E-03 0. -1.
    9900012    2    1    2    0    0  0.44168675875E+00 -0.46974918323E+00  0.98861020607E+00  0.90007702738E+02  0.89999963614E+02 0.  0.
         12    1    1    2    0    0 -0.44168675875E+00  0.46974918323E+00 -0.98861020607E+00  0.11802972624E+01  0.00000000000E+00 0. -1.
         11    1    3    3    0    0 -0.13402624264E+02 -0.31249566976E+02  0.42818689948E+01  0.34270981540E+02  0.51100000000E-03 0. -1.
        -11    1    3    3    0    0  0.49581529092E+01 -0.77465666294E+01  0.10410405947E+02  0.13891332804E+02  0.51100000000E-03 0.  1.
        -12    1    3    3    0    0  0.88861581136E+01  0.38526384422E+02 -0.13703664736E+02  0.41845388394E+02  0.00000000000E+00 0.  1.
</event>
<event>
 7    1  0.2084210E-015  0.9000777E+02  0.7816164E-02  0.1186339E+00
        -11   -1    0    0    0    0  0.00000000000E+00  0.00000000000E+00  0.45593999997E+02  0.45594000000E+02  0.51100000000E-03 0. -1.
         11   -1    0    0    0    0 -0.00000000000E+00 -0.00000000000E+00 -0.45593999997E+02  0.45594000000E+02  0.51100000000E-03 0.  1.
    9900012    2    1    2    0    0 -0.54572946472E+00  0.86498193438E+00  0.58899695631E+00  0.90007774678E+02  0.90000036504E+02 0.  0.
         12    1    1    2    0    0  0.54572946472E+00 -0.86498193438E+00 -0.58899695631E+00  0.11802253217E+01  0.00000000000E+00 0. -1.
         11    1    3    3    0    0  0.14882475641E+02  0.18611297044E+02  0.25448050661E+02  0.34863616300E+02  0.51100000000E-03 0. -1.
        -11    1    3    3    0    0  0.78985927807E+01  0.28874137953E+01  0.67401521765E+01  0.10777503327E+02  0.51100000000E-03 0.  1.
        -12    1    3    3    0    0 -0.23326797886E+02 -0.20633728905E+02 -0.31599205881E+02  0.44366655051E+02  0.00000000000E+00 0.  1.
</event>
<event>
 7    1  0.2084210E-015  0.9000774E+02  0.7816164E-02  0.1186339E+00
        -11   -1    0    0    0    0  0.00000000000E+00  0.00000000000E+00  0.45593999997E+02  0.45594000000E+02  0.51100000000E-03 0. -1.
         11   -1    0    0    0    0 -0.00000000000E+00 -0.00000000000E+00 -0.45593999997E+02  0.45594000000E+02  0.51100000000E-03 0.  1.
    9900012    2    1    2    0    0 -0.64545579373E+00  0.31878230030E+00 -0.93529596536E+00  0.90007739910E+02  0.90000001277E+02 0.  0.
         12    1    1    2    0    0  0.64545579373E+00 -0.31878230030E+00  0.93529596536E+00  0.11802600897E+01  0.00000000000E+00 0. -1.
         11    1    3    3    0    0 -0.16585221450E+01  0.15583394925E+01 -0.98894907253E+01  0.10147962591E+02  0.51100000000E-03 0. -1.
        -11    1    3    3    0    0 -0.14948648837E+02 -0.75135865022E+01 -0.31640102912E+02  0.35791230724E+02  0.51100000000E-03 0.  1.
         12    1    3    3    0    0  0.15961715188E+02  0.62740293100E+01  0.40594297672E+02  0.44068546595E+02  0.00000000000E+00 0. -1.
</event>
<event>
 7    1  0.2084210E-015  0.9000771E+02  0.7816164E-02  0.1186339E+00
        -11   -1    0    0    0    0  0.00000000000E+00  0.00000000000E+00  0.45593999997E+02  0.45594000000E+02  0.51100000000E-03 0. -1.
         11   -1    0    0    0    0 -0.00000000000E+00 -0.00000000000E+00 -0.45593999997E+02  0.45594000000E+02  0.51100000000E-03 0.  1.
    9900012    2    1    2    0    0  0.33696165548E+00 -0.11229292288E+01  0.13623751980E+00  0.90007714496E+02  0.89999975527E+02 0.  0.
         12    1    1    2    0    0 -0.33696165548E+00  0.11229292288E+01 -0.13623751980E+00  0.11802855045E+01  0.00000000000E+00 0. -1.
         11    1    3    3    0    0 -0.90672079648E+00 -0.37691429037E+01  0.94867293809E+01  0.10248249384E+02  0.51100000000E-03 0. -1.
        -11    1    3    3    0    0  0.25143538754E+02  0.24053130935E+02  0.16543984107E+02  0.38528613513E+02  0.51100000000E-03 0.  1.
         12    1    3    3    0    0 -0.23899856302E+02 -0.21406917260E+02 -0.25894475968E+02  0.41230851598E+02  0.00000000000E+00 0. -1.
</event>
<event>
 7    1  0.2084210E-015  0.9000769E+02  0.7816164E-02  0.1186339E+00
        -11   -1    0    0    0    0  0.00000000000E+00  0.00000000000E+00  0.45593999997E+02  0.45594000000E+02  0.51100000000E-03 0.  1.
         11   -1    0    0    0    0 -0.00000000000E+00 -0.00000000000E+00 -0.45593999997E+02  0.45594000000E+02  0.51100000000E-03 0. -1.
    9900012    2    1    2    0    0 -0.46930177359E+00 -0.91995516091E+00  0.57145811784E+00  0.90007692399E+02  0.89999953139E+02 0.  0.
         12    1    1    2    0    0  0.46930177359E+00  0.91995516091E+00 -0.57145811784E+00  0.11803076011E+01  0.00000000000E+00 0. -1.
         11    1    3    3    0    0  0.15203534053E+02 -0.16122567089E+02 -0.27023316330E+02  0.34947735878E+02  0.51100000000E-03 0. -1.
        -11    1    3    3    0    0  0.64926517770E+01 -0.10889434747E+02  0.33642588698E+01  0.13116880506E+02  0.51100000000E-03 0.  1.
        -12    1    3    3    0    0 -0.22165487604E+02  0.26092046675E+02  0.24230515578E+02  0.41943076015E+02  0.00000000000E+00 0.  1.
</event>
<event>
 7    1  0.2084210E-015  0.9000789E+02  0.7816164E-02  0.1186339E+00
        -11   -1    0    0    0    0  0.00000000000E+00  0.00000000000E+00  0.45593999997E+02  0.45594000000E+02  0.51100000000E-03 0.  1.
         11   -1    0    0    0    0 -0.00000000000E+00 -0.00000000000E+00 -0.45593999997E+02  0.45594000000E+02  0.51100000000E-03 0. -1.
    9900012    2    1    2    0    0  0.21484487244E+00 -0.10660295530E-01  0.11603399554E+01  0.90007889508E+02  0.90000152849E+02 0.  0.
         12    1    1    2    0    0 -0.21484487244E+00  0.10660295530E-01 -0.11603399554E+01  0.11801104920E+01  0.00000000000E+00 0. -1.
         11    1    3    3    0    0  0.32913843164E+01 -0.33723512715E+01  0.29428144140E+01  0.55557286428E+01  0.51100000000E-03 0. -1.
        -11    1    3    3    0    0 -0.22265974212E+02 -0.72244275098E+01  0.34721087195E+02  0.41875050528E+02  0.51100000000E-03 0.  1.
         12    1    3    3    0    0  0.19189434768E+02  0.10586118486E+02 -0.36503561653E+02  0.42577110337E+02  0.00000000000E+00 0. -1.
</event>
<event>
 7    1  0.2084210E-015  0.9000757E+02  0.7816164E-02  0.1186339E+00
        -11   -1    0    0    0    0  0.00000000000E+00  0.00000000000E+00  0.45593999997E+02  0.45594000000E+02  0.51100000000E-03 0.  1.
         11   -1    0    0    0    0 -0.00000000000E+00 -0.00000000000E+00 -0.45593999997E+02  0.45594000000E+02  0.51100000000E-03 0. -1.
    9900012    2    1    2    0    0 -0.54499084632E-01  0.92335317068E+00  0.73339947108E+00  0.90007565329E+02  0.89999824391E+02 0.  0.
         12    1    1    2    0    0  0.54499084632E-01 -0.92335317068E+00 -0.73339947108E+00  0.11804346709E+01  0.00000000000E+00 0. -1.
         11    1    3    3    0    0 -0.60743982725E+01  0.94210326096E+01 -0.39414593187E+01  0.11882309187E+02  0.51100000000E-03 0. -1.
        -11    1    3    3    0    0  0.14240312803E+02  0.50794765712E+01  0.38172529802E+02  0.41057637812E+02  0.51100000000E-03 0.  1.
         12    1    3    3    0    0 -0.82204136151E+01 -0.13577156010E+02 -0.33497671013E+02  0.37067618329E+02  0.00000000000E+00 0. -1.
</event>
<event>
 7    1  0.2084210E-015  0.9000791E+02  0.7816164E-02  0.1186339E+00
        -11   -1    0    0    0    0  0.00000000000E+00  0.00000000000E+00  0.45593999997E+02  0.45594000000E+02  0.51100000000E-03 0.  1.
         11   -1    0    0    0    0 -0.00000000000E+00 -0.00000000000E+00 -0.45593999997E+02  0.45594000000E+02  0.51100000000E-03 0. -1.
    9900012    2    1    2    0    0  0.69480584345E+00 -0.50959573239E+00  0.80633174848E+00  0.90007909385E+02  0.90000172989E+02 0.  0.
         12    1    1    2    0    0 -0.69480584345E+00  0.50959573239E+00 -0.80633174848E+00  0.11800906148E+01  0.00000000000E+00 0. -1.
         11    1    3    3    0    0  0.12305265978E+01 -0.39211654061E+02  0.58124072826E+01  0.39659199293E+02  0.51100000000E-03 0. -1.
        -11    1    3    3    0    0 -0.12250256492E+01 -0.17003400657E+01  0.77077126707E+01  0.79875327264E+01  0.51100000000E-03 0.  1.
        -12    1    3    3    0    0  0.68930489485E+00  0.40402398394E+02 -0.12713788205E+02  0.42361177365E+02  0.00000000000E+00 0.  1.
</event>
<event>
 7    1  0.2084210E-015  0.9000774E+02  0.7816164E-02  0.1186339E+00
        -11   -1    0    0    0    0  0.00000000000E+00  0.00000000000E+00  0.45593999997E+02  0.45594000000E+02  0.51100000000E-03 0.  1.
         11   -1    0    0    0    0 -0.00000000000E+00 -0.00000000000E+00 -0.45593999997E+02  0.45594000000E+02  0.51100000000E-03 0. -1.
    9900012    2    1    2    0    0  0.49840820581E+00 -0.10488153853E+01  0.21117673332E+00  0.90007737290E+02  0.89999998622E+02 0.  0.
         12    1    1    2    0    0 -0.49840820581E+00  0.10488153853E+01 -0.21117673332E+00  0.11802627100E+01  0.00000000000E+00 0. -1.
         11    1    3    3    0    0 -0.12861821991E+01  0.49242608755E+01  0.41980509605E+01  0.65974420760E+01  0.51100000000E-03 0. -1.
        -11    1    3    3    0    0 -0.37880409055E+02 -0.10837888988E+02  0.10712017884E+02  0.40830534595E+02  0.51100000000E-03 0.  1.
         12    1    3    3    0    0  0.39664999460E+02  0.48648127269E+01 -0.14698892111E+02  0.42579760619E+02  0.00000000000E+00 0. -1.
</event>
<event>
 7    1  0.2084210E-015  0.9000773E+02  0.7816164E-02  0.1186339E+00
        -11   -1    0    0    0    0  0.00000000000E+00  0.00000000000E+00  0.45593999997E+02  0.45594000000E+02  0.51100000000E-03 0. -1.
         11   -1    0    0    0    0 -0.00000000000E+00 -0.00000000000E+00 -0.45593999997E+02  0.45594000000E+02  0.51100000000E-03 0.  1.
    9900012    2    1    2    0    0 -0.13745829995E+00  0.75843633202E+00 -0.89382297988E+00  0.90007728856E+02  0.89999990077E+02 0.  0.
         12    1    1    2    0    0  0.13745829995E+00 -0.75843633202E+00  0.89382297988E+00  0.11802711440E+01  0.00000000000E+00 0. -1.
         11    1    3    3    0    0  0.53529349672E+01 -0.71023352323E+01 -0.10214075869E+01  0.89521144002E+01  0.51100000000E-03 0. -1.
        -11    1    3    3    0    0 -0.29380724925E+02 -0.16505109635E+02 -0.22128535227E+02  0.40315229291E+02  0.51100000000E-03 0.  1.
         12    1    3    3    0    0  0.23890331658E+02  0.24365881199E+02  0.22256119834E+02  0.40740385165E+02  0.00000000000E+00 0. -1.
</event>
<event>
 7    1  0.2084210E-015  0.9000768E+02  0.7816164E-02  0.1186339E+00
        -11   -1    0    0    0    0  0.00000000000E+00  0.00000000000E+00  0.45593999997E+02  0.45594000000E+02  0.51100000000E-03 0. -1.
         11   -1    0    0    0    0 -0.00000000000E+00 -0.00000000000E+00 -0.45593999997E+02  0.45594000000E+02  0.51100000000E-03 0.  1.
    9900012    2    1    2    0    0 -0.44795364726E+00 -0.58716442926E+00 -0.92072590792E+00  0.90007677699E+02  0.89999938244E+02 0.  0.
         12    1    1    2    0    0  0.44795364726E+00  0.58716442926E+00  0.92072590792E+00  0.11803223011E+01  0.00000000000E+00 0. -1.
         11    1    3    3    0    0 -0.22639636235E+02 -0.63650042606E+01  0.33776132915E+02  0.41156938213E+02  0.51100000000E-03 0. -1.
        -11    1    3    3    0    0 -0.21596257839E+01 -0.65065551940E+01 -0.47223504881E+01  0.83246524500E+01  0.51100000000E-03 0.  1.
        -12    1    3    3    0    0  0.24351308372E+02  0.12284395025E+02 -0.29974508334E+02  0.40526087036E+02  0.00000000000E+00 0.  1.
</event>
<event>
 7    1  0.2084210E-015  0.9000766E+02  0.7816164E-02  0.1186339E+00
        -11   -1    0    0    0    0  0.00000000000E+00  0.00000000000E+00  0.45593999997E+02  0.45594000000E+02  0.51100000000E-03 0. -1.
         11   -1    0    0    0    0 -0.00000000000E+00 -0.00000000000E+00 -0.45593999997E+02  0.45594000000E+02  0.51100000000E-03 0.  1.
    9900012    2    1    2    0    0 -0.38776640730E+00 -0.91599187657E+00 -0.63545670609E+00  0.90007657198E+02  0.89999917473E+02 0.  0.
         12    1    1    2    0    0  0.38776640730E+00  0.91599187657E+00  0.63545670609E+00  0.11803428019E+01  0.00000000000E+00 0. -1.
         11    1    3    3    0    0 -0.54568678253E+01  0.72281805129E+01  0.39150803453E+01  0.98667043313E+01  0.51100000000E-03 0. -1.
        -11    1    3    3    0    0  0.36213225270E+01  0.15378078927E+02 -0.36887025309E+02  0.40127944437E+02  0.51100000000E-03 0.  1.
         12    1    3    3    0    0  0.14477788911E+01 -0.23522251317E+02  0.32336488258E+02  0.40013008429E+02  0.00000000000E+00 0. -1.
</event>
<event>
 7    1  0.2084210E-015  0.9000777E+02  0.7816164E-02  0.1186339E+00
        -11   -1    0    0    0    0  0.00000000000E+00  0.00000000000E+00  0.45593999997E+02  0.45594000000E+02  0.51100000000E-03 0. -1.
         11   -1    0    0    0    0 -0.00000000000E+00 -0.00000000000E+00 -0.45593999997E+02  0.45594000000E+02  0.51100000000E-03 0.  1.
    9900012    2    1    2    0    0  0.60553115491E+00 -0.66181319550E+00  0.76699730038E+00  0.90007767165E+02  0.90000028892E+02 0.  0.
         12    1    1    2    0    0 -0.60553115491E+00  0.66181319550E+00 -0.76699730038E+00  0.11802328347E+01  0.00000000000E+00 0. -1.
         11    1    3    3    0    0 -0.10448398005E+01 -0.11196357703E+01  0.11662762355E+02  0.11762878069E+02  0.51100000000E-03 0. -1.
        -11    1    3    3    0    0 -0.13984278643E+02  0.19005028652E+02  0.25349191033E+02  0.34631382437E+02  0.51100000000E-03 0.  1.
         12    1    3    3    0    0  0.15634649598E+02 -0.18547206077E+02 -0.36244956087E+02  0.43613506659E+02  0.00000000000E+00 0. -1.
</event>
<event>
 7    1  0.2084210E-015  0.9000798E+02  0.7816164E-02  0.1186339E+00
        -11   -1    0    0    0    0  0.00000000000E+00  0.00000000000E+00  0.45593999997E+02  0.45594000000E+02  0.51100000000E-03 0. -1.
         11   -1    0    0    0    0 -0.00000000000E+00 -0.00000000000E+00 -0.45593999997E+02  0.45594000000E+02  0.51100000000E-03 0.  1.
    9900012    2    1    2    0    0 -0.65695488556E-01 -0.93623473564E+00 -0.71526306875E+00  0.90007977697E+02  0.90000242203E+02 0.  0.
         12    1    1    2    0    0  0.65695488556E-01  0.93623473564E+00  0.71526306875E+00  0.11800223027E+01  0.00000000000E+00 0. -1.
         11    1    3    3    0    0  0.19714141112E+01 -0.12911404561E+02  0.75802968942E+01  0.15101382142E+02  0.51100000000E-03 0. -1.
        -11    1    3    3    0    0 -0.82402988009E+01  0.21417356943E+02  0.28399284804E+02  0.36511985435E+02  0.51100000000E-03 0.  1.
         12    1    3    3    0    0  0.62031892012E+01 -0.94421871184E+01 -0.36694844767E+02  0.38394610121E+02  0.00000000000E+00 0. -1.
</event>
<event>
 7    1  0.2084210E-015  0.9000782E+02  0.7816164E-02  0.1186339E+00
        -11   -1    0    0    0    0  0.00000000000E+00  0.00000000000E+00  0.45593999997E+02  0.45594000000E+02  0.51100000000E-03 0. -1.
         11   -1    0    0    0    0 -0.00000000000E+00 -0.00000000000E+00 -0.45593999997E+02  0.45594000000E+02  0.51100000000E-03 0.  1.
    9900012    2    1    2    0    0  0.27676889437E-01 -0.52971721409E+00 -0.10542586955E+01  0.90007818771E+02  0.90000081178E+02 0.  0.
         12    1    1    2    0    0 -0.27676889437E-01  0.52971721409E+00  0.10542586955E+01  0.11801812294E+01  0.00000000000E+00 0. -1.
         11    1    3    3    0    0 -0.17512012007E+02 -0.41389877456E+01  0.10291005518E+02  0.20729365135E+02  0.51100000000E-03 0. -1.
        -11    1    3    3    0    0 -0.53360051679E+01  0.31120328964E+02 -0.11190417644E+02  0.33498854805E+02  0.51100000000E-03 0.  1.
         12    1    3    3    0    0  0.22875694064E+02 -0.27511058432E+02 -0.15484656903E+00  0.35779598830E+02  0.00000000000E+00 0. -1.
</event>
<event>
 7    1  0.2084210E-015  0.9000775E+02  0.7816164E-02  0.1186339E+00
        -11   -1    0    0    0    0  0.00000000000E+00  0.00000000000E+00  0.45593999997E+02  0.45594000000E+02  0.51100000000E-03 0. -1.
         11   -1    0    0    0    0 -0.00000000000E+00 -0.00000000000E+00 -0.45593999997E+02  0.45594000000E+02  0.51100000000E-03 0.  1.
    9900012    2    1    2    0    0 -0.85004260145E-01  0.18427498639E+00 -0.11626757720E+01  0.90007746660E+02  0.90000008116E+02 0.  0.
         12    1    1    2    0    0  0.85004260145E-01 -0.18427498639E+00  0.11626757720E+01  0.11802533396E+01  0.00000000000E+00 0. -1.
         11    1    3    3    0    0 -0.33735893524E+01  0.78602360645E+01  0.22572275781E+01  0.88464395499E+01  0.51100000000E-03 0. -1.
        -11    1    3    3    0    0 -0.32852141176E+02  0.16837573625E+02  0.29314894829E+01  0.37031887561E+02  0.51100000000E-03 0.  1.
         12    1    3    3    0    0  0.36140726269E+02 -0.24513534703E+02 -0.63513928330E+01  0.44129419550E+02  0.00000000000E+00 0. -1.
</event>
<event>
 7    1  0.2084210E-015  0.9000773E+02  0.7816164E-02  0.1186339E+00
        -11   -1    0    0    0    0  0.00000000000E+00  0.00000000000E+00  0.45593999997E+02  0.45594000000E+02  0.51100000000E-03 0.  1.
         11   -1    0    0    0    0 -0.00000000000E+00 -0.00000000000E+00 -0.45593999997E+02  0.45594000000E+02  0.51100000000E-03 0. -1.
    9900012    2    1    2    0    0 -0.94775710146E+00  0.41974417148E+00  0.56445423906E+00  0.90007729997E+02  0.89999991233E+02 0.  0.
         12    1    1    2    0    0  0.94775710146E+00 -0.41974417148E+00 -0.56445423906E+00  0.11802700034E+01  0.00000000000E+00 0. -1.
         11    1    3    3    0    0  0.10787955597E+02 -0.33492273647E+01 -0.10762420550E+02  0.15602147488E+02  0.51100000000E-03 0. -1.
        -11    1    3    3    0    0 -0.24947647135E+02 -0.27520795002E+02  0.15372645507E+02  0.40200714985E+02  0.51100000000E-03 0.  1.
         12    1    3    3    0    0  0.13211934437E+02  0.31289766539E+02 -0.40457707179E+01  0.34204867524E+02  0.00000000000E+00 0. -1.
</event>
<event>
 7    1  0.2084210E-015  0.9000774E+02  0.7816164E-02  0.1186339E+00
        -11   -1    0    0    0    0  0.00000000000E+00  0.00000000000E+00  0.45593999997E+02  0.45594000000E+02  0.51100000000E-03 0.  1.
         11   -1    0    0    0    0 -0.00000000000E+00 -0.00000000000E+00 -0.45593999997E+02  0.45594000000E+02  0.51100000000E-03 0. -1.
    9900012    2    1    2    0    0  0.19263577729E+00  0.87957334699E-01  0.11611100106E+01  0.90007736685E+02  0.89999998009E+02 0.  0.
         12    1    1    2    0    0 -0.19263577729E+00 -0.87957334699E-01 -0.11611100106E+01  0.11802633148E+01  0.00000000000E+00 0. -1.
         11    1    3    3    0    0 -0.72016144545E+01  0.63765144509E+01 -0.23084988669E+01  0.98920349056E+01  0.51100000000E-03 0. -1.
        -11    1    3    3    0    0 -0.42858745762E+01 -0.40482952873E+02  0.13020155300E+02  0.42740643871E+02  0.51100000000E-03 0.  1.
         12    1    3    3    0    0  0.11680124808E+02  0.34194395757E+02 -0.95505464221E+01  0.37375057909E+02  0.00000000000E+00 0. -1.
</event>
<event>
 7    1  0.2084210E-015  0.9000760E+02  0.7816164E-02  0.1186339E+00
        -11   -1    0    0    0    0  0.00000000000E+00  0.00000000000E+00  0.45593999997E+02  0.45594000000E+02  0.51100000000E-03 0.  1.
         11   -1    0    0    0    0 -0.00000000000E+00 -0.00000000000E+00 -0.45593999997E+02  0.45594000000E+02  0.51100000000E-03 0. -1.
    9900012    2    1    2    0    0 -0.44546226227E+00 -0.50848878824E+00  0.96764721925E+00  0.90007602348E+02  0.89999861899E+02 0.  0.
         12    1    1    2    0    0  0.44546226227E+00  0.50848878824E+00 -0.96764721925E+00  0.11803976516E+01  0.00000000000E+00 0. -1.
         11    1    3    3    0    0 -0.57420833838E+01  0.22325034805E+01 -0.60623666188E+01  0.86433721810E+01  0.51100000000E-03 0. -1.
        -11    1    3    3    0    0 -0.18587173678E+02  0.30867847888E+02 -0.89797536816E+01  0.37134122246E+02  0.51100000000E-03 0.  1.
         12    1    3    3    0    0  0.23883794799E+02 -0.33608840157E+02  0.16009767520E+02  0.44230107921E+02  0.00000000000E+00 0. -1.
</event>
<event>
 7    1  0.2084210E-015  0.9000775E+02  0.7816164E-02  0.1186339E+00
        -11   -1    0    0    0    0  0.00000000000E+00  0.00000000000E+00  0.45593999997E+02  0.45594000000E+02  0.51100000000E-03 0. -1.
         11   -1    0    0    0    0 -0.00000000000E+00 -0.00000000000E+00 -0.45593999997E+02  0.45594000000E+02  0.51100000000E-03 0.  1.
    9900012    2    1    2    0    0 -0.71606645781E+00 -0.81181178551E-01 -0.93469533445E+00  0.90007747093E+02  0.90000008555E+02 0.  0.
         12    1    1    2    0    0  0.71606645781E+00  0.81181178551E-01  0.93469533445E+00  0.11802529068E+01  0.00000000000E+00 0. -1.
         11    1    3    3    0    0  0.57714699353E+01  0.65911781335E+01 -0.44312390255E+01  0.98178090206E+01  0.51100000000E-03 0. -1.
        -11    1    3    3    0    0 -0.12060219506E+02 -0.13273345422E+00 -0.36935623229E+02  0.38854945326E+02  0.51100000000E-03 0.  1.
         12    1    3    3    0    0  0.55726831131E+01 -0.65396258579E+01  0.40432166921E+02  0.41334992746E+02  0.00000000000E+00 0. -1.
</event>
<event>
 7    1  0.2084210E-015  0.9000767E+02  0.7816164E-02  0.1186339E+00
        -11   -1    0    0    0    0  0.00000000000E+00  0.00000000000E+00  0.45593999997E+02  0.45594000000E+02  0.51100000000E-03 0.  1.
         11   -1    0    0    0    0 -0.00000000000E+00 -0.00000000000E+00 -0.45593999997E+02  0.45594000000E+02  0.51100000000E-03 0. -1.
    9900012    2    1    2    0    0  0.16720048009E+00 -0.10923756102E+01  0.41464427590E+00  0.90007673626E+02  0.89999934118E+02 0.  0.
         12    1    1    2    0    0 -0.16720048009E+00  0.10923756102E+01 -0.41464427590E+00  0.11803263743E+01  0.00000000000E+00 0. -1.
         11    1    3    3    0    0 -0.18502443054E+02 -0.32524714560E+02 -0.62032478888E+01  0.37929905626E+02  0.51100000000E-03 0. -1.
        -11    1    3    3    0    0 -0.70288334416E+01 -0.18176016829E+01 -0.45850447191E+01  0.85866647055E+01  0.51100000000E-03 0.  1.
        -12    1    3    3    0    0  0.25698476975E+02  0.33249940633E+02  0.11202936884E+02  0.43491103294E+02  0.00000000000E+00 0.  1.
</event>
<event>
 7    1  0.2084210E-015  0.9000768E+02  0.7816164E-02  0.1186339E+00
        -11   -1    0    0    0    0  0.00000000000E+00  0.00000000000E+00  0.45593999997E+02  0.45594000000E+02  0.51100000000E-03 0. -1.
         11   -1    0    0    0    0 -0.00000000000E+00 -0.00000000000E+00 -0.45593999997E+02  0.45594000000E+02  0.51100000000E-03 0.  1.
    9900012    2    1    2    0    0 -0.75013878567E+00  0.10889836824E+00 -0.90475285868E+00  0.90007684454E+02  0.89999945089E+02 0.  0.
         12    1    1    2    0    0  0.75013878567E+00 -0.10889836824E+00  0.90475285868E+00  0.11803155458E+01  0.00000000000E+00 0. -1.
         11    1    3    3    0    0  0.60187970864E+01  0.93700410084E+00  0.50330011968E+01  0.79015818897E+01  0.51100000000E-03 0. -1.
        -11    1    3    3    0    0 -0.20496869342E+02  0.32362139643E+02  0.14288811729E+02  0.40885203631E+02  0.51100000000E-03 0.  1.
         12    1    3    3    0    0  0.13727933469E+02 -0.33190245376E+02 -0.20226565785E+02  0.41220898933E+02  0.00000000000E+00 0. -1.
</event>
<event>
 7    1  0.2084210E-015  0.9000773E+02  0.7816164E-02  0.1186339E+00
        -11   -1    0    0    0    0  0.00000000000E+00  0.00000000000E+00  0.45593999997E+02  0.45594000000E+02  0.51100000000E-03 0. -1.
         11   -1    0    0    0    0 -0.00000000000E+00 -0.00000000000E+00 -0.45593999997E+02  0.45594000000E+02  0.51100000000E-03 0.  1.
    9900012    2    1    2    0    0  0.11010212928E+01 -0.38256609277E+00 -0.18557591597E+00  0.90007727522E+02  0.89999988725E+02 0.  0.
         12    1    1    2    0    0 -0.11010212928E+01  0.38256609277E+00  0.18557591597E+00  0.11802724783E+01  0.00000000000E+00 0. -1.
         11    1    3    3    0    0 -0.26094135513E+02  0.30077552937E+02  0.16476090395E+00  0.39819470680E+02  0.51100000000E-03 0. -1.
        -11    1    3    3    0    0  0.20488503934E+01  0.12323298140E+01 -0.85766165848E+01  0.89036384141E+01  0.51100000000E-03 0.  1.
        -12    1    3    3    0    0  0.25146306412E+02 -0.31692448844E+02  0.82262797649E+01  0.41284618427E+02  0.00000000000E+00 0.  1.
</event>
<event>
 7    1  0.2084210E-015  0.9000825E+02  0.7816164E-02  0.1186338E+00
        -11   -1    0    0    0    0  0.00000000000E+00  0.00000000000E+00  0.45593999997E+02  0.45594000000E+02  0.51100000000E-03 0.  1.
         11   -1    0    0    0    0 -0.00000000000E+00 -0.00000000000E+00 -0.45593999997E+02  0.45594000000E+02  0.51100000000E-03 0. -1.
    9900012    2    1    2    0    0 -0.22808526885E+00 -0.95572837228E+00  0.65296593179E+00  0.90008252519E+02  0.90000520650E+02 0.  0.
         12    1    1    2    0    0  0.22808526885E+00  0.95572837228E+00 -0.65296593179E+00  0.11797474813E+01  0.00000000000E+00 0. -1.
         11    1    3    3    0    0 -0.14751241767E+02 -0.16450534188E+02  0.27884056433E+02  0.35577237275E+02  0.51100000000E-03 0. -1.
        -11    1    3    3    0    0 -0.84925471342E+01  0.74305568796E+01  0.63348749736E+01  0.12940910847E+02  0.51100000000E-03 0.  1.
        -12    1    3    3    0    0  0.23015703632E+02  0.80642489357E+01 -0.33565965474E+02  0.41490104396E+02  0.00000000000E+00 0.  1.
</event>
<event>
 7    1  0.2084210E-015  0.9000772E+02  0.7816164E-02  0.1186339E+00
        -11   -1    0    0    0    0  0.00000000000E+00  0.00000000000E+00  0.45593999997E+02  0.45594000000E+02  0.51100000000E-03 0. -1.
         11   -1    0    0    0    0 -0.00000000000E+00 -0.00000000000E+00 -0.45593999997E+02  0.45594000000E+02  0.51100000000E-03 0.  1.
    9900012    2    1    2    0    0 -0.88237185018E-01  0.61538786301E+00 -0.10032793017E+01  0.90007721482E+02  0.89999982606E+02 0.  0.
         12    1    1    2    0    0  0.88237185018E-01 -0.61538786301E+00  0.10032793017E+01  0.11802785180E+01  0.00000000000E+00 0. -1.
         11    1    3    3    0    0 -0.30125517215E+01 -0.12092130888E+02  0.29851833998E+02  0.32348525323E+02  0.51100000000E-03 0. -1.
        -11    1    3    3    0    0  0.94971658266E-01 -0.16165046835E+01  0.12142601345E+02  0.12250096926E+02  0.51100000000E-03 0.  1.
        -12    1    3    3    0    0  0.28293428782E+01  0.14324023435E+02 -0.42997714645E+02  0.45409099233E+02  0.00000000000E+00 0.  1.
</event>
<event>
 7    1  0.2084210E-015  0.9000763E+02  0.7816164E-02  0.1186339E+00
        -11   -1    0    0    0    0  0.00000000000E+00  0.00000000000E+00  0.45593999997E+02  0.45594000000E+02  0.51100000000E-03 0.  1.
         11   -1    0    0    0    0 -0.00000000000E+00 -0.00000000000E+00 -0.45593999997E+02  0.45594000000E+02  0.51100000000E-03 0. -1.
    9900012    2    1    2    0    0 -0.72086942368E+00 -0.17794482630E+00  0.91758060832E+00  0.90007630880E+02  0.89999890807E+02 0.  0.
         12    1    1    2    0    0  0.72086942368E+00  0.17794482630E+00 -0.91758060832E+00  0.11803691202E+01  0.00000000000E+00 0. -1.
         11    1    3    3    0    0 -0.23665150003E+01 -0.48883609575E+01  0.59092210735E+01  0.80259180194E+01  0.51100000000E-03 0. -1.
        -11    1    3    3    0    0  0.33503830252E+02  0.11294257962E+02  0.20305278516E+02  0.40772187093E+02  0.51100000000E-03 0.  1.
         12    1    3    3    0    0 -0.31858184675E+02 -0.65838418311E+01 -0.25296918981E+02  0.41209525768E+02  0.00000000000E+00 0. -1.
</event>
<event>
 7    1  0.2084210E-015  0.9000778E+02  0.7816164E-02  0.1186339E+00
        -11   -1    0    0    0    0  0.00000000000E+00  0.00000000000E+00  0.45593999997E+02  0.45594000000E+02  0.51100000000E-03 0.  1.
         11   -1    0    0    0    0 -0.00000000000E+00 -0.00000000000E+00 -0.45593999997E+02  0.45594000000E+02  0.51100000000E-03 0. -1.
    9900012    2    1    2    0    0  0.44531429742E+00  0.75509503795E+00  0.79022025112E+00  0.90007779095E+02  0.90000040979E+02 0.  0.
         12    1    1    2    0    0 -0.44531429742E+00 -0.75509503795E+00 -0.79022025112E+00  0.11802209052E+01  0.00000000000E+00 0. -1.
         11    1    3    3    0    0 -0.31597466738E+02  0.28091385547E+02 -0.88170210915E+01  0.43188721993E+02  0.51100000000E-03 0. -1.
        -11    1    3    3    0    0  0.75944730752E+01 -0.13611809835E+01  0.79961936021E+01  0.11111613175E+02  0.51100000000E-03 0.  1.
        -12    1    3    3    0    0  0.24448307961E+02 -0.25975109525E+02  0.16110477404E+01  0.35707443927E+02  0.00000000000E+00 0.  1.
</event>
<event>
 7    1  0.2084210E-015  0.9000814E+02  0.7816164E-02  0.1186338E+00
        -11   -1    0    0    0    0  0.00000000000E+00  0.00000000000E+00  0.45593999997E+02  0.45594000000E+02  0.51100000000E-03 0. -1.
         11   -1    0    0    0    0 -0.00000000000E+00 -0.00000000000E+00 -0.45593999997E+02  0.45594000000E+02  0.51100000000E-03 0.  1.
    9900012    2    1    2    0    0 -0.86232948301E+00 -0.33515000549E+00  0.73220944254E+00  0.90008140546E+02  0.90000407200E+02 0.  0.
         12    1    1    2    0    0  0.86232948301E+00  0.33515000549E+00 -0.73220944254E+00  0.11798594540E+01  0.00000000000E+00 0. -1.
         11    1    3    3    0    0 -0.75480018558E+01 -0.43686314670E+00  0.30123724725E+02  0.31058042002E+02  0.51100000000E-03 0. -1.
        -11    1    3    3    0    0 -0.12797991446E+01  0.39920739317E-01  0.14391504789E+02  0.14448352496E+02  0.51100000000E-03 0.  1.
        -12    1    3    3    0    0  0.79654715174E+01  0.61792401894E-01 -0.43783020071E+02  0.44501746048E+02  0.00000000000E+00 0.  1.
</event>
<event>
 7    1  0.2084210E-015  0.9000725E+02  0.7816164E-02  0.1186340E+00
        -11   -1    0    0    0    0  0.00000000000E+00  0.00000000000E+00  0.45593999997E+02  0.45594000000E+02  0.51100000000E-03 0.  1.
         11   -1    0    0    0    0 -0.00000000000E+00 -0.00000000000E+00 -0.45593999997E+02  0.45594000000E+02  0.51100000000E-03 0. -1.
    9900012    2    1    2    0    0 -0.24772723049E+00  0.59604313417E+00  0.98870202698E+00  0.90007251129E+02  0.89999506042E+02 0.  0.
         12    1    1    2    0    0  0.24772723049E+00 -0.59604313417E+00 -0.98870202698E+00  0.11807488711E+01  0.00000000000E+00 0. -1.
         11    1    3    3    0    0  0.11961908892E+02  0.27591852893E+01  0.17833723547E+01  0.12404869407E+02  0.51100000000E-03 0. -1.
        -11    1    3    3    0    0 -0.43261587821E+01 -0.35157289028E+02  0.17005527099E+02  0.39292983773E+02  0.51100000000E-03 0.  1.
         12    1    3    3    0    0 -0.78834773399E+01  0.32994146873E+02 -0.17800197427E+02  0.38309397949E+02  0.00000000000E+00 0. -1.
</event>
<event>
 7    1  0.2084210E-015  0.9000769E+02  0.7816164E-02  0.1186339E+00
        -11   -1    0    0    0    0  0.00000000000E+00  0.00000000000E+00  0.45593999997E+02  0.45594000000E+02  0.51100000000E-03 0.  1.
         11   -1    0    0    0    0 -0.00000000000E+00 -0.00000000000E+00 -0.45593999997E+02  0.45594000000E+02  0.51100000000E-03 0. -1.
    9900012    2    1    2    0    0 -0.10494459639E+01  0.76659010877E-01  0.53470472047E+00  0.90007693865E+02  0.89999954624E+02 0.  0.
         12    1    1    2    0    0  0.10494459639E+01 -0.76659010877E-01 -0.53470472047E+00  0.11803061353E+01  0.00000000000E+00 0. -1.
         11    1    3    3    0    0  0.24229867531E+01 -0.37363936935E+00 -0.17624966866E+02  0.17794660111E+02  0.51100000000E-03 0. -1.
        -11    1    3    3    0    0  0.53242389234E+01 -0.11853057434E+02 -0.24071770924E+02  0.27354938244E+02  0.51100000000E-03 0.  1.
        -12    1    3    3    0    0 -0.87966716404E+01  0.12303355814E+02  0.42231442511E+02  0.44858095510E+02  0.00000000000E+00 0.  1.
</event>
<event>
 7    1  0.2084210E-015  0.9000784E+02  0.7816164E-02  0.1186339E+00
        -11   -1    0    0    0    0  0.00000000000E+00  0.00000000000E+00  0.45593999997E+02  0.45594000000E+02  0.51100000000E-03 0. -1.
         11   -1    0    0    0    0 -0.00000000000E+00 -0.00000000000E+00 -0.45593999997E+02  0.45594000000E+02  0.51100000000E-03 0.  1.
    9900012    2    1    2    0    0 -0.14179597823E+00 -0.11073667460E+01  0.38264364875E+00  0.90007837566E+02  0.90000100221E+02 0.  0.
         12    1    1    2    0    0  0.14179597823E+00  0.11073667460E+01 -0.38264364875E+00  0.11801624344E+01  0.00000000000E+00 0. -1.
         11    1    3    3    0    0  0.22011802060E+02 -0.11567440547E+02 -0.25797601132E+02  0.35830731714E+02  0.51100000000E-03 0. -1.
        -11    1    3    3    0    0  0.41770737437E+01 -0.39097015162E+01 -0.72671938529E+01  0.92490982135E+01  0.51100000000E-03 0.  1.
        -12    1    3    3    0    0 -0.26330671782E+02  0.14369775317E+02  0.33447438634E+02  0.44928007638E+02  0.00000000000E+00 0.  1.
</event>
<event>
 7    1  0.2084210E-015  0.9000754E+02  0.7816164E-02  0.1186339E+00
        -11   -1    0    0    0    0  0.00000000000E+00  0.00000000000E+00  0.45593999997E+02  0.45594000000E+02  0.51100000000E-03 0. -1.
         11   -1    0    0    0    0 -0.00000000000E+00 -0.00000000000E+00 -0.45593999997E+02  0.45594000000E+02  0.51100000000E-03 0.  1.
    9900012    2    1    2    0    0  0.11142823318E+01  0.14175462445E+00  0.36300712550E+00  0.90007536675E+02  0.89999795359E+02 0.  0.
         12    1    1    2    0    0 -0.11142823318E+01 -0.14175462445E+00 -0.36300712550E+00  0.11804633250E+01  0.00000000000E+00 0. -1.
         11    1    3    3    0    0 -0.42582978462E+01 -0.10800976614E+02 -0.36301551169E+01  0.12164383371E+02  0.51100000000E-03 0. -1.
        -11    1    3    3    0    0 -0.55357700816E+01 -0.24068561385E+02 -0.21854342943E+02  0.32978063971E+02  0.51100000000E-03 0.  1.
        -12    1    3    3    0    0  0.10908350260E+02  0.35011292624E+02  0.25847505185E+02  0.44865089333E+02  0.00000000000E+00 0.  1.
</event>
<event>
 7    1  0.2084210E-015  0.9000761E+02  0.7816164E-02  0.1186339E+00
        -11   -1    0    0    0    0  0.00000000000E+00  0.00000000000E+00  0.45593999997E+02  0.45594000000E+02  0.51100000000E-03 0. -1.
         11   -1    0    0    0    0 -0.00000000000E+00 -0.00000000000E+00 -0.45593999997E+02  0.45594000000E+02  0.51100000000E-03 0.  1.
    9900012    2    1    2    0    0 -0.11121155295E+01 -0.63707569333E-01 -0.39045387249E+00  0.90007612847E+02  0.89999872536E+02 0.  0.
         12    1    1    2    0    0  0.11121155295E+01  0.63707569333E-01  0.39045387249E+00  0.11803871534E+01  0.00000000000E+00 0. -1.
         11    1    3    3    0    0 -0.43922125899E+01  0.33914965211E+02  0.18461018880E+02  0.38862907959E+02  0.51100000000E-03 0. -1.
        -11    1    3    3    0    0 -0.72862426956E+01 -0.55385244485E+01 -0.18683405404E+02  0.20804668309E+02  0.51100000000E-03 0.  1.
        -12    1    3    3    0    0  0.10566339756E+02 -0.28440148332E+02 -0.16806734887E+00  0.30340036579E+02  0.00000000000E+00 0.  1.
</event>
<event>
 7    1  0.2084210E-015  0.9000774E+02  0.7816164E-02  0.1186339E+00
        -11   -1    0    0    0    0  0.00000000000E+00  0.00000000000E+00  0.45593999997E+02  0.45594000000E+02  0.51100000000E-03 0. -1.
         11   -1    0    0    0    0 -0.00000000000E+00 -0.00000000000E+00 -0.45593999997E+02  0.45594000000E+02  0.51100000000E-03 0.  1.
    9900012    2    1    2    0    0 -0.20759787295E+00 -0.92867608315E+00 -0.69819870906E+00  0.90007738342E+02  0.89999999688E+02 0.  0.
         12    1    1    2    0    0  0.20759787295E+00  0.92867608315E+00  0.69819870906E+00  0.11802616581E+01  0.00000000000E+00 0. -1.
         11    1    3    3    0    0 -0.29610717749E+02 -0.17153150410E+02  0.22085496707E+02  0.40728299003E+02  0.51100000000E-03 0. -1.
        -11    1    3    3    0    0 -0.83924551370E+00 -0.57017970813E+01 -0.60257370696E+01  0.83381251179E+01  0.51100000000E-03 0.  1.
        -12    1    3    3    0    0  0.30242365390E+02  0.21926271408E+02 -0.16757958347E+02  0.40941314221E+02  0.00000000000E+00 0.  1.
</event>
<event>
 7    1  0.2084210E-015  0.9000797E+02  0.7816164E-02  0.1186339E+00
        -11   -1    0    0    0    0  0.00000000000E+00  0.00000000000E+00  0.45593999997E+02  0.45594000000E+02  0.51100000000E-03 0.  1.
         11   -1    0    0    0    0 -0.00000000000E+00 -0.00000000000E+00 -0.45593999997E+02  0.45594000000E+02  0.51100000000E-03 0. -1.
    9900012    2    1    2    0    0  0.37685274523E+00 -0.74464663766E+00  0.83423213197E+00  0.90007974637E+02  0.90000239102E+02 0.  0.
         12    1    1    2    0    0 -0.37685274523E+00  0.74464663766E+00 -0.83423213197E+00  0.11800253627E+01  0.00000000000E+00 0. -1.
         11    1    3    3    0    0  0.46906471863E+01  0.29571057668E+01  0.12675626825E+02  0.13835395232E+02  0.51100000000E-03 0. -1.
        -11    1    3    3    0    0  0.31253348490E+02 -0.17503012271E+02 -0.12718091229E+02  0.38011538710E+02  0.51100000000E-03 0.  1.
         12    1    3    3    0    0 -0.35567142931E+02  0.13801259866E+02  0.87669653557E+00  0.38161040695E+02  0.00000000000E+00 0. -1.
</event>
<event>
 7    1  0.2084210E-015  0.9000722E+02  0.7816164E-02  0.1186340E+00
        -11   -1    0    0    0    0  0.00000000000E+00  0.00000000000E+00  0.45593999997E+02  0.45594000000E+02  0.51100000000E-03 0. -1.
         11   -1    0    0    0    0 -0.00000000000E+00 -0.00000000000E+00 -0.45593999997E+02  0.45594000000E+02  0.51100000000E-03 0.  1.
    9900012    2    1    2    0    0 -0.13897404839E+00 -0.10204188771E+01  0.57765311938E+00  0.90007215686E+02  0.89999470131E+02 0.  0.
         12    1    1    2    0    0  0.13897404839E+00  0.10204188771E+01 -0.57765311938E+00  0.11807843144E+01  0.00000000000E+00 0. -1.
         11    1    3    3    0    0  0.27434044213E+01 -0.47887571259E+00  0.76738997474E+01  0.81635976971E+01  0.51100000000E-03 0. -1.
        -11    1    3    3    0    0 -0.11702531534E+02 -0.39634369071E+02 -0.12576824606E+01  0.41345062842E+02  0.51100000000E-03 0.  1.
         12    1    3    3    0    0  0.88201530648E+01  0.39092825906E+02 -0.58385641674E+01  0.40498555147E+02  0.00000000000E+00 0. -1.
</event>
<event>
 7    1  0.2084210E-015  0.9000773E+02  0.7816164E-02  0.1186339E+00
        -11   -1    0    0    0    0  0.00000000000E+00  0.00000000000E+00  0.45593999997E+02  0.45594000000E+02  0.51100000000E-03 0.  1.
         11   -1    0    0    0    0 -0.00000000000E+00 -0.00000000000E+00 -0.45593999997E+02  0.45594000000E+02  0.51100000000E-03 0. -1.
    9900012    2    1    2    0    0 -0.32227116334E+00  0.67674924712E+00  0.91169556009E+00  0.90007730098E+02  0.89999991336E+02 0.  0.
         12    1    1    2    0    0  0.32227116334E+00 -0.67674924712E+00 -0.91169556009E+00  0.11802699015E+01  0.00000000000E+00 0. -1.
         11    1    3    3    0    0  0.46307719330E+01  0.90015686845E+01 -0.40135951932E+01  0.10889501096E+02  0.51100000000E-03 0. -1.
        -11    1    3    3    0    0  0.36727425390E+02 -0.24272694953E+01  0.73919522340E+00  0.36814967375E+02  0.51100000000E-03 0.  1.
         12    1    3    3    0    0 -0.41680468486E+02 -0.58975499421E+01  0.41860955298E+01  0.42303261628E+02  0.00000000000E+00 0. -1.
</event>
<event>
 7    1  0.2084210E-015  0.9000738E+02  0.7816164E-02  0.1186340E+00
        -11   -1    0    0    0    0  0.00000000000E+00  0.00000000000E+00  0.45593999997E+02  0.45594000000E+02  0.51100000000E-03 0.  1.
         11   -1    0    0    0    0 -0.00000000000E+00 -0.00000000000E+00 -0.45593999997E+02  0.45594000000E+02  0.51100000000E-03 0. -1.
    9900012    2    1    2    0    0 -0.10005789045E+01 -0.34272313336E+00  0.52463172690E+00  0.90007383323E+02  0.89999639982E+02 0.  0.
         12    1    1    2    0    0  0.10005789045E+01  0.34272313336E+00 -0.52463172690E+00  0.11806166775E+01  0.00000000000E+00 0. -1.
         11    1    3    3    0    0 -0.13554283278E+01  0.12015857670E+02 -0.28626089097E+01  0.12426284703E+02  0.51100000000E-03 0. -1.
        -11    1    3    3    0    0  0.10128384032E+02  0.22433074057E+02  0.25316736937E+02  0.35309547493E+02  0.51100000000E-03 0.  1.
         12    1    3    3    0    0 -0.97735346085E+01 -0.34791654860E+02 -0.21929496300E+02  0.42271551127E+02  0.00000000000E+00 0. -1.
</event>
<event>
 7    1  0.2084210E-015  0.9000778E+02  0.7816164E-02  0.1186339E+00
        -11   -1    0    0    0    0  0.00000000000E+00  0.00000000000E+00  0.45593999997E+02  0.45594000000E+02  0.51100000000E-03 0.  1.
         11   -1    0    0    0    0 -0.00000000000E+00 -0.00000000000E+00 -0.45593999997E+02  0.45594000000E+02  0.51100000000E-03 0. -1.
    9900012    2    1    2    0    0 -0.57261775269E+00 -0.22404596666E-01  0.10317642813E+01  0.90007775196E+02  0.90000037028E+02 0.  0.
         12    1    1    2    0    0  0.57261775269E+00  0.22404596666E-01 -0.10317642813E+01  0.11802248044E+01  0.00000000000E+00 0. -1.
         11    1    3    3    0    0 -0.87587995882E+01  0.48576214868E+01  0.14714227243E+01  0.10123148810E+02  0.51100000000E-03 0. -1.
        -11    1    3    3    0    0  0.19557728958E+02  0.23055320362E+02  0.25923612504E+02  0.39825698292E+02  0.51100000000E-03 0.  1.
         12    1    3    3    0    0 -0.11371547122E+02 -0.27935346445E+02 -0.26363270947E+02  0.40058928093E+02  0.00000000000E+00 0. -1.
</event>
<event>
 7    1  0.2084210E-015  0.9000770E+02  0.7816164E-02  0.1186339E+00
        -11   -1    0    0    0    0  0.00000000000E+00  0.00000000000E+00  0.45593999997E+02  0.45594000000E+02  0.51100000000E-03 0.  1.
         11   -1    0    0    0    0 -0.00000000000E+00 -0.00000000000E+00 -0.45593999997E+02  0.45594000000E+02  0.51100000000E-03 0. -1.
    9900012    2    1    2    0    0  0.35715944084E+00  0.64334471294E+00  0.92285012611E+00  0.90007700190E+02  0.89999961033E+02 0.  0.
         12    1    1    2    0    0 -0.35715944084E+00 -0.64334471294E+00 -0.92285012611E+00  0.11802998098E+01  0.00000000000E+00 0. -1.
         11    1    3    3    0    0  0.96237359224E+01  0.18110634584E+02 -0.30653882367E+02  0.36881863871E+02  0.51100000000E-03 0. -1.
        -11    1    3    3    0    0 -0.53844970803E+00  0.80456530833E+01 -0.35770587644E+01  0.88214404317E+01  0.51100000000E-03 0.  1.
        -12    1    3    3    0    0 -0.87281267735E+01 -0.25512942954E+02  0.35153791258E+02  0.44304395888E+02  0.00000000000E+00 0.  1.
</event>
<event>
 7    1  0.2084210E-015  0.9000773E+02  0.7816164E-02  0.1186339E+00
        -11   -1    0    0    0    0  0.00000000000E+00  0.00000000000E+00  0.45593999997E+02  0.45594000000E+02  0.51100000000E-03 0.  1.
         11   -1    0    0    0    0 -0.00000000000E+00 -0.00000000000E+00 -0.45593999997E+02  0.45594000000E+02  0.51100000000E-03 0. -1.
    9900012    2    1    2    0    0  0.81471845183E+00  0.10603935524E+00  0.84735941204E+00  0.90007733728E+02  0.89999995013E+02 0.  0.
         12    1    1    2    0    0 -0.81471845183E+00 -0.10603935524E+00 -0.84735941204E+00  0.11802662724E+01  0.00000000000E+00 0. -1.
         11    1    3    3    0    0 -0.20403614400E+02 -0.12688531025E+02  0.35837312969E+02  0.43146486546E+02  0.51100000000E-03 0. -1.
        -11    1    3    3    0    0 -0.14473617590E+01  0.75496340771E+01 -0.64068032952E+01  0.10006945562E+02  0.51100000000E-03 0.  1.
        -12    1    3    3    0    0  0.22665694611E+02  0.52449363032E+01 -0.28583150262E+02  0.36854301620E+02  0.00000000000E+00 0.  1.
</event>
<event>
 7    1  0.2084210E-015  0.9000768E+02  0.7816164E-02  0.1186339E+00
        -11   -1    0    0    0    0  0.00000000000E+00  0.00000000000E+00  0.45593999997E+02  0.45594000000E+02  0.51100000000E-03 0. -1.
         11   -1    0    0    0    0 -0.00000000000E+00 -0.00000000000E+00 -0.45593999997E+02  0.45594000000E+02  0.51100000000E-03 0.  1.
    9900012    2    1    2    0    0 -0.24079240704E+00  0.23015138280E+00 -0.11323431501E+01  0.90007681546E+02  0.89999942143E+02 0.  0.
         12    1    1    2    0    0  0.24079240704E+00 -0.23015138280E+00  0.11323431501E+01  0.11803184536E+01  0.00000000000E+00 0. -1.
         11    1    3    3    0    0 -0.18039375285E+02  0.20195929252E+02  0.28913435197E+02  0.39614155982E+02  0.51100000000E-03 0. -1.
        -11    1    3    3    0    0  0.12274281428E+01  0.78769227003E+01 -0.72639386133E+01  0.10785049630E+02  0.51100000000E-03 0.  1.
        -12    1    3    3    0    0  0.16571154735E+02 -0.27842700569E+02 -0.22781839734E+02  0.39608475935E+02  0.00000000000E+00 0.  1.
</event>
<event>
 7    1  0.2084210E-015  0.9000776E+02  0.7816164E-02  0.1186339E+00
        -11   -1    0    0    0    0  0.00000000000E+00  0.00000000000E+00  0.45593999997E+02  0.45594000000E+02  0.51100000000E-03 0. -1.
         11   -1    0    0    0    0 -0.00000000000E+00 -0.00000000000E+00 -0.45593999997E+02  0.45594000000E+02  0.51100000000E-03 0.  1.
    9900012    2    1    2    0    0 -0.89456711127E-03  0.61340002845E+00  0.10083212183E+01  0.90007757621E+02  0.90000019221E+02 0.  0.
         12    1    1    2    0    0  0.89456711127E-03 -0.61340002845E+00 -0.10083212183E+01  0.11802423795E+01  0.00000000000E+00 0. -1.
         11    1    3    3    0    0  0.27726547772E+02  0.18276205114E+02  0.20537968925E+02  0.39045989455E+02  0.51100000000E-03 0. -1.
        -11    1    3    3    0    0 -0.68540328964E+01  0.75429937454E+01  0.36849572071E+01  0.10837593435E+02  0.51100000000E-03 0.  1.
        -12    1    3    3    0    0 -0.20873409442E+02 -0.25205798831E+02 -0.23214604914E+02  0.40124174730E+02  0.00000000000E+00 0.  1.
</event>
<event>
 7    1  0.2084210E-015  0.9000782E+02  0.7816164E-02  0.1186339E+00
        -11   -1    0    0    0    0  0.00000000000E+00  0.00000000000E+00  0.45593999997E+02  0.45594000000E+02  0.51100000000E-03 0.  1.
         11   -1    0    0    0    0 -0.00000000000E+00 -0.00000000000E+00 -0.45593999997E+02  0.45594000000E+02  0.51100000000E-03 0. -1.
    9900012    2    1    2    0    0 -0.38951397818E+00 -0.10485128417E+01  0.37646917477E+00  0.90007818083E+02  0.90000080481E+02 0.  0.
         12    1    1    2    0    0  0.38951397818E+00  0.10485128417E+01 -0.37646917477E+00  0.11801819173E+01  0.00000000000E+00 0. -1.
         11    1    3    3    0    0 -0.60386780786E+01  0.94722284369E+01 -0.37065957852E+02  0.38730788479E+02  0.51100000000E-03 0. -1.
        -11    1    3    3    0    0 -0.70386009921E+01  0.15772675249E+01 -0.25181024413E+01  0.76400600087E+01  0.51100000000E-03 0.  1.
        -12    1    3    3    0    0  0.12687765092E+02 -0.12098008804E+02  0.39960529468E+02  0.43636969595E+02  0.00000000000E+00 0.  1.
</event>
<event>
 7    1  0.2084210E-015  0.9000771E+02  0.7816164E-02  0.1186339E+00
        -11   -1    0    0    0    0  0.00000000000E+00  0.00000000000E+00  0.45593999997E+02  0.45594000000E+02  0.51100000000E-03 0.  1.
         11   -1    0    0    0    0 -0.00000000000E+00 -0.00000000000E+00 -0.45593999997E+02  0.45594000000E+02  0.51100000000E-03 0. -1.
    9900012    2    1    2    0    0 -0.78618674200E-01  0.10382527599E+01  0.55582494085E+00  0.90007707217E+02  0.89999968152E+02 0.  0.
         12    1    1    2    0    0  0.78618674200E-01 -0.10382527599E+01 -0.55582494085E+00  0.11802927832E+01  0.00000000000E+00 0. -1.
         11    1    3    3    0    0  0.17188842433E+01 -0.48940598471E+01  0.13187658649E+02  0.14171122953E+02  0.51100000000E-03 0. -1.
        -11    1    3    3    0    0  0.27863799825E+02  0.25582215705E+02  0.72233220831E+00  0.37833356514E+02  0.51100000000E-03 0.  1.
         12    1    3    3    0    0 -0.29661302742E+02 -0.19649903098E+02 -0.13354165917E+02  0.38003227750E+02  0.00000000000E+00 0. -1.
</event>
<event>
 7    1  0.2084210E-015  0.9000771E+02  0.7816164E-02  0.1186339E+00
        -11   -1    0    0    0    0  0.00000000000E+00  0.00000000000E+00  0.45593999997E+02  0.45594000000E+02  0.51100000000E-03 0. -1.
         11   -1    0    0    0    0 -0.00000000000E+00 -0.00000000000E+00 -0.45593999997E+02  0.45594000000E+02  0.51100000000E-03 0.  1.
    9900012    2    1    2    0    0  0.81858458263E+00  0.72402709667E+00 -0.44586958618E+00  0.90007705273E+02  0.89999966182E+02 0.  0.
         12    1    1    2    0    0 -0.81858458263E+00 -0.72402709667E+00  0.44586958618E+00  0.11802947274E+01  0.00000000000E+00 0. -1.
         11    1    3    3    0    0 -0.72094074748E+01 -0.91764985943E+01 -0.52926608872E+01  0.12813896445E+02  0.51100000000E-03 0. -1.
        -11    1    3    3    0    0 -0.12081816060E+02 -0.29942313658E+02 -0.11901551722E+00  0.32288180368E+02  0.51100000000E-03 0.  1.
         12    1    3    3    0    0  0.20109808117E+02  0.39842839349E+02  0.49658068182E+01  0.44905628459E+02  0.00000000000E+00 0. -1.
</event>
<event>
 7    1  0.2084210E-015  0.9000772E+02  0.7816164E-02  0.1186339E+00
        -11   -1    0    0    0    0  0.00000000000E+00  0.00000000000E+00  0.45593999997E+02  0.45594000000E+02  0.51100000000E-03 0. -1.
         11   -1    0    0    0    0 -0.00000000000E+00 -0.00000000000E+00 -0.45593999997E+02  0.45594000000E+02  0.51100000000E-03 0.  1.
    9900012    2    1    2    0    0 -0.65817412869E+00  0.79550082145E+00 -0.57187650732E+00  0.90007721440E+02  0.89999982563E+02 0.  0.
         12    1    1    2    0    0  0.65817412869E+00 -0.79550082145E+00  0.57187650732E+00  0.11802785604E+01  0.00000000000E+00 0. -1.
         11    1    3    3    0    0  0.93090970353E+01  0.12117611833E+02  0.30191654864E+01  0.15575980375E+02  0.51100000000E-03 0. -1.
        -11    1    3    3    0    0 -0.87079815273E+01  0.30172869522E+02 -0.87444296793E+01  0.32599019129E+02  0.51100000000E-03 0.  1.
         12    1    3    3    0    0 -0.12592896367E+01 -0.41494980534E+02  0.51533876856E+01  0.41832721936E+02  0.00000000000E+00 0. -1.
</event>
<event>
 7    1  0.2084210E-015  0.9000769E+02  0.7816164E-02  0.1186339E+00
        -11   -1    0    0    0    0  0.00000000000E+00  0.00000000000E+00  0.45593999997E+02  0.45594000000E+02  0.51100000000E-03 0.  1.
         11   -1    0    0    0    0 -0.00000000000E+00 -0.00000000000E+00 -0.45593999997E+02  0.45594000000E+02  0.51100000000E-03 0. -1.
    9900012    2    1    2    0    0 -0.69207009438E+00  0.92067329338E+00  0.25795280474E+00  0.90007686492E+02  0.89999947153E+02 0.  0.
         12    1    1    2    0    0  0.69207009438E+00 -0.92067329338E+00 -0.25795280474E+00  0.11803135084E+01  0.00000000000E+00 0. -1.
         11    1    3    3    0    0  0.18133670057E+01 -0.18865310115E+01 -0.79561410595E+01  0.83754092422E+01  0.51100000000E-03 0. -1.
        -11    1    3    3    0    0 -0.15669807151E+02 -0.28270528653E+02 -0.19683184110E+02  0.37844330929E+02  0.51100000000E-03 0.  1.
         12    1    3    3    0    0  0.13164370051E+02  0.31077732958E+02  0.27897277974E+02  0.43787946321E+02  0.00000000000E+00 0. -1.
</event>
<event>
 7    1  0.2084210E-015  0.9000768E+02  0.7816164E-02  0.1186339E+00
        -11   -1    0    0    0    0  0.00000000000E+00  0.00000000000E+00  0.45593999997E+02  0.45594000000E+02  0.51100000000E-03 0. -1.
         11   -1    0    0    0    0 -0.00000000000E+00 -0.00000000000E+00 -0.45593999997E+02  0.45594000000E+02  0.51100000000E-03 0.  1.
    9900012    2    1    2    0    0 -0.19254794353E+00  0.45010357105E+00 -0.10740011796E+01  0.90007683742E+02  0.89999944367E+02 0.  0.
         12    1    1    2    0    0  0.19254794353E+00 -0.45010357105E+00  0.10740011796E+01  0.11803162580E+01  0.00000000000E+00 0. -1.
         11    1    3    3    0    0 -0.68557555809E+01  0.15963925418E+02 -0.63539632315E+01  0.18499220209E+02  0.51100000000E-03 0. -1.
        -11    1    3    3    0    0 -0.18447386271E+02  0.15198077056E+02 -0.13680213701E+02  0.27539714116E+02  0.51100000000E-03 0.  1.
         12    1    3    3    0    0  0.25110593908E+02 -0.30711898903E+02  0.18960175753E+02  0.43968749417E+02  0.00000000000E+00 0. -1.
</event>
<event>
 7    1  0.2084210E-015  0.9000773E+02  0.7816164E-02  0.1186339E+00
        -11   -1    0    0    0    0  0.00000000000E+00  0.00000000000E+00  0.45593999997E+02  0.45594000000E+02  0.51100000000E-03 0.  1.
         11   -1    0    0    0    0 -0.00000000000E+00 -0.00000000000E+00 -0.45593999997E+02  0.45594000000E+02  0.51100000000E-03 0. -1.
    9900012    2    1    2    0    0  0.70107390113E+00  0.89694043764E+00 -0.31148856428E+00  0.90007732281E+02  0.89999993547E+02 0.  0.
         12    1    1    2    0    0 -0.70107390113E+00 -0.89694043764E+00  0.31148856428E+00  0.11802677193E+01  0.00000000000E+00 0. -1.
         11    1    3    3    0    0  0.34807045602E+02  0.73502774982E+01 -0.25518334669E+01  0.35666074316E+02  0.51100000000E-03 0. -1.
        -11    1    3    3    0    0  0.99004200703E+01 -0.14341375889E+01  0.40695750773E+00  0.10012026911E+02  0.51100000000E-03 0.  1.
        -12    1    3    3    0    0 -0.44006391771E+02 -0.50191994716E+01  0.18333873949E+01  0.44329631054E+02  0.00000000000E+00 0.  1.
</event>
<event>
 7    1  0.2084210E-015  0.9000771E+02  0.7816164E-02  0.1186339E+00
        -11   -1    0    0    0    0  0.00000000000E+00  0.00000000000E+00  0.45593999997E+02  0.45594000000E+02  0.51100000000E-03 0. -1.
         11   -1    0    0    0    0 -0.00000000000E+00 -0.00000000000E+00 -0.45593999997E+02  0.45594000000E+02  0.51100000000E-03 0.  1.
    9900012    2    1    2    0    0  0.66467718720E+00 -0.96271943147E+00  0.15638617530E+00  0.90007711432E+02  0.89999972423E+02 0.  0.
         12    1    1    2    0    0 -0.66467718720E+00  0.96271943147E+00 -0.15638617530E+00  0.11802885676E+01  0.00000000000E+00 0. -1.
         11    1    3    3    0    0 -0.23609679043E+02 -0.31548566984E+01 -0.25293396309E+02  0.34743718316E+02  0.51100000000E-03 0. -1.
        -11    1    3    3    0    0 -0.73342999846E+01 -0.89006745962E+01 -0.23050431181E+01  0.11761257950E+02  0.51100000000E-03 0.  1.
        -12    1    3    3    0    0  0.31608656215E+02  0.11092811863E+02  0.27754825602E+02  0.43502735166E+02  0.00000000000E+00 0.  1.
</event>
<event>
 7    1  0.2084210E-015  0.9000786E+02  0.7816164E-02  0.1186339E+00
        -11   -1    0    0    0    0  0.00000000000E+00  0.00000000000E+00  0.45593999997E+02  0.45594000000E+02  0.51100000000E-03 0. -1.
         11   -1    0    0    0    0 -0.00000000000E+00 -0.00000000000E+00 -0.45593999997E+02  0.45594000000E+02  0.51100000000E-03 0.  1.
    9900012    2    1    2    0    0  0.96743500783E+00 -0.27567700125E+00 -0.61708223469E+00  0.90007864928E+02  0.90000127945E+02 0.  0.
         12    1    1    2    0    0 -0.96743500783E+00  0.27567700125E+00  0.61708223469E+00  0.11801350718E+01  0.00000000000E+00 0. -1.
         11    1    3    3    0    0  0.11085496729E+02 -0.63045457792E+01  0.50262248021E+01  0.13707606328E+02  0.51100000000E-03 0. -1.
        -11    1    3    3    0    0 -0.21592640024E+02  0.12569868043E+02 -0.35639512084E+02  0.43524918238E+02  0.51100000000E-03 0.  1.
         12    1    3    3    0    0  0.11474578302E+02 -0.65409992649E+01  0.29996205047E+02  0.32775340362E+02  0.00000000000E+00 0. -1.
</event>
<event>
 7    1  0.2084210E-015  0.9000760E+02  0.7816164E-02  0.1186339E+00
        -11   -1    0    0    0    0  0.00000000000E+00  0.00000000000E+00  0.45593999997E+02  0.45594000000E+02  0.51100000000E-03 0. -1.
         11   -1    0    0    0    0 -0.00000000000E+00 -0.00000000000E+00 -0.45593999997E+02  0.45594000000E+02  0.51100000000E-03 0.  1.
    9900012    2    1    2    0    0 -0.84240531331E+00 -0.76465838726E+00 -0.31464629971E+00  0.90007596910E+02  0.89999856389E+02 0.  0.
         12    1    1    2    0    0  0.84240531331E+00  0.76465838726E+00  0.31464629971E+00  0.11804030901E+01  0.00000000000E+00 0. -1.
         11    1    3    3    0    0 -0.23576998723E+02  0.27859378629E+02 -0.19431215643E+02  0.41347212578E+02  0.51100000000E-03 0. -1.
        -11    1    3    3    0    0  0.19671128625E+00  0.19531354485E+01  0.91923218569E+01  0.93995858841E+01  0.51100000000E-03 0.  1.
        -12    1    3    3    0    0  0.22537882123E+02 -0.30577172465E+02  0.99242474867E+01  0.39260798447E+02  0.00000000000E+00 0.  1.
</event>
<event>
 7    1  0.2084210E-015  0.9000784E+02  0.7816164E-02  0.1186339E+00
        -11   -1    0    0    0    0  0.00000000000E+00  0.00000000000E+00  0.45593999997E+02  0.45594000000E+02  0.51100000000E-03 0.  1.
         11   -1    0    0    0    0 -0.00000000000E+00 -0.00000000000E+00 -0.45593999997E+02  0.45594000000E+02  0.51100000000E-03 0. -1.
    9900012    2    1    2    0    0  0.11209879754E+01 -0.34573516020E+00 -0.12891910072E+00  0.90007844512E+02  0.90000107259E+02 0.  0.
         12    1    1    2    0    0 -0.11209879754E+01  0.34573516020E+00  0.12891910072E+00  0.11801554883E+01  0.00000000000E+00 0. -1.
         11    1    3    3    0    0  0.78631988878E+01  0.26000874190E+00  0.24491081041E+01  0.82398805854E+01  0.51100000000E-03 0. -1.
        -11    1    3    3    0    0 -0.33412457043E+02 -0.26109506137E+02 -0.11229204906E+02  0.43865631644E+02  0.51100000000E-03 0.  1.
         12    1    3    3    0    0  0.26670246131E+02  0.25503762235E+02  0.86511777016E+01  0.37902332283E+02  0.00000000000E+00 0. -1.
</event>
<event>
 7    1  0.2084210E-015  0.9000788E+02  0.7816164E-02  0.1186339E+00
        -11   -1    0    0    0    0  0.00000000000E+00  0.00000000000E+00  0.45593999997E+02  0.45594000000E+02  0.51100000000E-03 0.  1.
         11   -1    0    0    0    0 -0.00000000000E+00 -0.00000000000E+00 -0.45593999997E+02  0.45594000000E+02  0.51100000000E-03 0. -1.
    9900012    2    1    2    0    0  0.11365143325E+01  0.31349638987E+00 -0.52349869741E-01  0.90007879106E+02  0.90000142311E+02 0.  0.
         12    1    1    2    0    0 -0.11365143325E+01 -0.31349638987E+00  0.52349869741E-01  0.11801208935E+01  0.00000000000E+00 0. -1.
         11    1    3    3    0    0  0.59747721329E+01 -0.11763986114E+01 -0.35631173719E+02  0.36147784948E+02  0.51100000000E-03 0. -1.
        -11    1    3    3    0    0 -0.35173365343E+01  0.55286879924E+01 -0.78490879291E+01  0.10224785024E+02  0.51100000000E-03 0.  1.
        -12    1    3    3    0    0 -0.13209212662E+01 -0.40387929911E+01  0.43427911779E+02  0.43635309135E+02  0.00000000000E+00 0.  1.
</event>
<event>
 7    1  0.2084210E-015  0.9000777E+02  0.7816164E-02  0.1186339E+00
        -11   -1    0    0    0    0  0.00000000000E+00  0.00000000000E+00  0.45593999997E+02  0.45594000000E+02  0.51100000000E-03 0.  1.
         11   -1    0    0    0    0 -0.00000000000E+00 -0.00000000000E+00 -0.45593999997E+02  0.45594000000E+02  0.51100000000E-03 0. -1.
    9900012    2    1    2    0    0  0.97881509146E+00  0.88768778624E-01  0.65344712407E+00  0.90007766115E+02  0.90000027828E+02 0.  0.
         12    1    1    2    0    0 -0.97881509146E+00 -0.88768778624E-01 -0.65344712407E+00  0.11802338850E+01  0.00000000000E+00 0. -1.
         11    1    3    3    0    0  0.52000930592E+01 -0.35720206695E+02  0.57965105461E+01  0.36559180364E+02  0.51100000000E-03 0. -1.
        -11    1    3    3    0    0 -0.86792635132E+01 -0.33471992717E+01 -0.10097469526E+02  0.13729247947E+02  0.51100000000E-03 0.  1.
        -12    1    3    3    0    0  0.44579855454E+01  0.39156174745E+02  0.49544061036E+01  0.39719337804E+02  0.00000000000E+00 0.  1.
</event>
<event>
 7    1  0.2084210E-015  0.9000760E+02  0.7816164E-02  0.1186339E+00
        -11   -1    0    0    0    0  0.00000000000E+00  0.00000000000E+00  0.45593999997E+02  0.45594000000E+02  0.51100000000E-03 0.  1.
         11   -1    0    0    0    0 -0.00000000000E+00 -0.00000000000E+00 -0.45593999997E+02  0.45594000000E+02  0.51100000000E-03 0. -1.
    9900012    2    1    2    0    0 -0.34603231335E+00 -0.10402400662E+01  0.43762642268E+00  0.90007595560E+02  0.89999855021E+02 0.  0.
         12    1    1    2    0    0  0.34603231335E+00  0.10402400662E+01 -0.43762642268E+00  0.11804044404E+01  0.00000000000E+00 0. -1.
         11    1    3    3    0    0  0.42921569330E+01 -0.39564768778E+01 -0.39870343957E+02  0.40295417207E+02  0.51100000000E-03 0. -1.
        -11    1    3    3    0    0  0.60522690172E+01  0.62459878342E+01  0.89922163918E+00  0.87436219096E+01  0.51100000000E-03 0.  1.
        -12    1    3    3    0    0 -0.10690458264E+02 -0.33297510225E+01  0.39408748740E+02  0.40968556443E+02  0.00000000000E+00 0.  1.
</event>
<event>
 7    1  0.2084210E-015  0.9000775E+02  0.7816164E-02  0.1186339E+00
        -11   -1    0    0    0    0  0.00000000000E+00  0.00000000000E+00  0.45593999997E+02  0.45594000000E+02  0.51100000000E-03 0. -1.
         11   -1    0    0    0    0 -0.00000000000E+00 -0.00000000000E+00 -0.45593999997E+02  0.45594000000E+02  0.51100000000E-03 0.  1.
    9900012    2    1    2    0    0  0.73248847265E-01 -0.10037449202E+01 -0.61653614939E+00  0.90007751686E+02  0.90000013209E+02 0.  0.
         12    1    1    2    0    0 -0.73248847265E-01  0.10037449202E+01  0.61653614939E+00  0.11802483137E+01  0.00000000000E+00 0. -1.
         11    1    3    3    0    0 -0.76467862077E+01  0.41010172602E+01 -0.62193125666E+01  0.10675744983E+02  0.51100000000E-03 0. -1.
        -11    1    3    3    0    0 -0.13334558483E+01  0.25506051370E+02 -0.24545980814E+02  0.35423748183E+02  0.51100000000E-03 0.  1.
         12    1    3    3    0    0  0.90534909033E+01 -0.30610813550E+02  0.30148757231E+02  0.43908258520E+02  0.00000000000E+00 0. -1.
</event>
<event>
 7    1  0.2084210E-015  0.9000781E+02  0.7816164E-02  0.1186339E+00
        -11   -1    0    0    0    0  0.00000000000E+00  0.00000000000E+00  0.45593999997E+02  0.45594000000E+02  0.51100000000E-03 0.  1.
         11   -1    0    0    0    0 -0.00000000000E+00 -0.00000000000E+00 -0.45593999997E+02  0.45594000000E+02  0.51100000000E-03 0. -1.
    9900012    2    1    2    0    0 -0.63759136332E+00 -0.83728625238E-02  0.99310989732E+00  0.90007805050E+02  0.90000067277E+02 0.  0.
         12    1    1    2    0    0  0.63759136332E+00  0.83728625238E-02 -0.99310989732E+00  0.11801949498E+01  0.00000000000E+00 0. -1.
         11    1    3    3    0    0  0.72337882914E+01 -0.25956929537E+02 -0.22182231259E+02  0.34901880579E+02  0.51100000000E-03 0. -1.
        -11    1    3    3    0    0  0.76990306147E+01 -0.77980393501E+01 -0.61955058483E+00  0.10975806727E+02  0.51100000000E-03 0.  1.
        -12    1    3    3    0    0 -0.15570410269E+02  0.33746596025E+02  0.23794891741E+02  0.44130117745E+02  0.00000000000E+00 0.  1.
</event>
<event>
 7    1  0.2084210E-015  0.9000780E+02  0.7816164E-02  0.1186339E+00
        -11   -1    0    0    0    0  0.00000000000E+00  0.00000000000E+00  0.45593999997E+02  0.45594000000E+02  0.51100000000E-03 0.  1.
         11   -1    0    0    0    0 -0.00000000000E+00 -0.00000000000E+00 -0.45593999997E+02  0.45594000000E+02  0.51100000000E-03 0. -1.
    9900012    2    1    2    0    0  0.52422839372E+00  0.28571016759E+00  0.10180448727E+01  0.90007804647E+02  0.90000066868E+02 0.  0.
         12    1    1    2    0    0 -0.52422839372E+00 -0.28571016759E+00 -0.10180448727E+01  0.11801953531E+01  0.00000000000E+00 0. -1.
         11    1    3    3    0    0  0.63170196233E-02 -0.92463458452E+01 -0.56729141733E+00  0.92637341934E+01  0.51100000000E-03 0. -1.
        -11    1    3    3    0    0  0.14921881507E+02 -0.31213141701E+02  0.11401744083E+02  0.36426947868E+02  0.51100000000E-03 0.  1.
         12    1    3    3    0    0 -0.14403970133E+02  0.40745197714E+02 -0.98164077933E+01  0.44317122586E+02  0.00000000000E+00 0. -1.
</event>
<event>
 7    1  0.2084210E-015  0.9000766E+02  0.7816164E-02  0.1186339E+00
        -11   -1    0    0    0    0  0.00000000000E+00  0.00000000000E+00  0.45593999997E+02  0.45594000000E+02  0.51100000000E-03 0. -1.
         11   -1    0    0    0    0 -0.00000000000E+00 -0.00000000000E+00 -0.45593999997E+02  0.45594000000E+02  0.51100000000E-03 0.  1.
    9900012    2    1    2    0    0  0.85990790711E-01 -0.61889322195E+00 -0.10013904770E+01  0.90007658472E+02  0.89999918763E+02 0.  0.
         12    1    1    2    0    0 -0.85990790711E-01  0.61889322195E+00  0.10013904770E+01  0.11803415284E+01  0.00000000000E+00 0. -1.
         11    1    3    3    0    0 -0.80700996508E+00  0.34612712277E+01 -0.71261629606E+01  0.79632821373E+01  0.51100000000E-03 0. -1.
        -11    1    3    3    0    0 -0.24994339860E+02 -0.69761806519E+00 -0.28992739564E+02  0.38285540922E+02  0.51100000000E-03 0.  1.
         12    1    3    3    0    0  0.25887340616E+02 -0.33825463844E+01  0.35117512048E+02  0.43758835412E+02  0.00000000000E+00 0. -1.
</event>
<event>
 7    1  0.2084210E-015  0.9000777E+02  0.7816164E-02  0.1186339E+00
        -11   -1    0    0    0    0  0.00000000000E+00  0.00000000000E+00  0.45593999997E+02  0.45594000000E+02  0.51100000000E-03 0. -1.
         11   -1    0    0    0    0 -0.00000000000E+00 -0.00000000000E+00 -0.45593999997E+02  0.45594000000E+02  0.51100000000E-03 0.  1.
    9900012    2    1    2    0    0  0.96042554185E+00 -0.20628941606E+00 -0.65419772319E+00  0.90007768156E+02  0.90000029896E+02 0.  0.
         12    1    1    2    0    0 -0.96042554185E+00  0.20628941606E+00  0.65419772319E+00  0.11802318440E+01  0.00000000000E+00 0. -1.
         11    1    3    3    0    0 -0.36051845234E+02 -0.11225245561E+02  0.87200851992E+01  0.38752826592E+02  0.51100000000E-03 0. -1.
        -11    1    3    3    0    0  0.25669402209E+01 -0.84344688875E+01 -0.76265183756E+01  0.11657325178E+02  0.51100000000E-03 0.  1.
        -12    1    3    3    0    0  0.34445330555E+02  0.19453425033E+02 -0.17477645468E+01  0.39597616386E+02  0.00000000000E+00 0.  1.
</event>
<event>
 7    1  0.2084210E-015  0.9000771E+02  0.7816164E-02  0.1186339E+00
        -11   -1    0    0    0    0  0.00000000000E+00  0.00000000000E+00  0.45593999997E+02  0.45594000000E+02  0.51100000000E-03 0. -1.
         11   -1    0    0    0    0 -0.00000000000E+00 -0.00000000000E+00 -0.45593999997E+02  0.45594000000E+02  0.51100000000E-03 0.  1.
    9900012    2    1    2    0    0 -0.34937315754E+00  0.23088755248E+00 -0.11035028799E+01  0.90007707972E+02  0.89999968917E+02 0.  0.
         12    1    1    2    0    0  0.34937315754E+00 -0.23088755248E+00  0.11035028799E+01  0.11802920278E+01  0.00000000000E+00 0. -1.
         11    1    3    3    0    0 -0.32118625660E+02  0.14192552978E+02  0.69231787467E+01  0.35790572482E+02  0.51100000000E-03 0. -1.
        -11    1    3    3    0    0 -0.58551264396E+01  0.24726333838E+01  0.79349053204E+01  0.10166569932E+02  0.51100000000E-03 0.  1.
        -12    1    3    3    0    0  0.37624378942E+02 -0.16434298809E+02 -0.15961586947E+02  0.44050565559E+02  0.00000000000E+00 0.  1.
</event>
<event>
 7    1  0.2084210E-015  0.9000767E+02  0.7816164E-02  0.1186339E+00
        -11   -1    0    0    0    0  0.00000000000E+00  0.00000000000E+00  0.45593999997E+02  0.45594000000E+02  0.51100000000E-03 0. -1.
         11   -1    0    0    0    0 -0.00000000000E+00 -0.00000000000E+00 -0.45593999997E+02  0.45594000000E+02  0.51100000000E-03 0.  1.
    9900012    2    1    2    0    0  0.10548325845E+01  0.10506981390E+00 -0.51910655634E+00  0.90007668240E+02  0.89999928661E+02 0.  0.
         12    1    1    2    0    0 -0.10548325845E+01 -0.10506981390E+00  0.51910655634E+00  0.11803317602E+01  0.00000000000E+00 0. -1.
         11    1    3    3    0    0 -0.31768277853E+01 -0.13535984712E+01  0.72129016364E+01  0.79969002667E+01  0.51100000000E-03 0. -1.
        -11    1    3    3    0    0  0.32617508243E+02 -0.23975100541E+02 -0.15074334006E+02  0.43196560464E+02  0.51100000000E-03 0.  1.
         12    1    3    3    0    0 -0.28385847873E+02  0.25433768826E+02  0.73423258135E+01  0.38814207509E+02  0.00000000000E+00 0. -1.
</event>
<event>
 7    1  0.2084210E-015  0.9000774E+02  0.7816164E-02  0.1186339E+00
        -11   -1    0    0    0    0  0.00000000000E+00  0.00000000000E+00  0.45593999997E+02  0.45594000000E+02  0.51100000000E-03 0.  1.
         11   -1    0    0    0    0 -0.00000000000E+00 -0.00000000000E+00 -0.45593999997E+02  0.45594000000E+02  0.51100000000E-03 0. -1.
    9900012    2    1    2    0    0  0.82828849017E+00  0.74393021554E+00  0.39180134258E+00  0.90007744824E+02  0.90000006256E+02 0.  0.
         12    1    1    2    0    0 -0.82828849017E+00 -0.74393021554E+00 -0.39180134258E+00  0.11802551760E+01  0.00000000000E+00 0. -1.
         11    1    3    3    0    0 -0.17775387942E+01 -0.32282068078E+02 -0.11545354640E+02  0.34330551665E+02  0.51100000000E-03 0. -1.
        -11    1    3    3    0    0  0.11435602578E+02 -0.69872034481E+01  0.32790462759E+01  0.13796599693E+02  0.51100000000E-03 0.  1.
        -12    1    3    3    0    0 -0.88297752935E+01  0.40013201742E+02  0.86581097071E+01  0.41880593466E+02  0.00000000000E+00 0.  1.
</event>
<event>
 7    1  0.2084210E-015  0.9000786E+02  0.7816164E-02  0.1186339E+00
        -11   -1    0    0    0    0  0.00000000000E+00  0.00000000000E+00  0.45593999997E+02  0.45594000000E+02  0.51100000000E-03 0.  1.
         11   -1    0    0    0    0 -0.00000000000E+00 -0.00000000000E+00 -0.45593999997E+02  0.45594000000E+02  0.51100000000E-03 0. -1.
    9900012    2    1    2    0    0  0.90449450293E+00 -0.10564574083E+00  0.75064324295E+00  0.90007857379E+02  0.90000120296E+02 0.  0.
         12    1    1    2    0    0 -0.90449450293E+00  0.10564574083E+00 -0.75064324295E+00  0.11801426213E+01  0.00000000000E+00 0. -1.
         11    1    3    3    0    0 -0.34569674833E+02  0.18664754431E+02 -0.13265847226E+02  0.41465867638E+02  0.51100000000E-03 0. -1.
        -11    1    3    3    0    0  0.30513248422E+01  0.18132944239E+01  0.91695126833E+01  0.98325267897E+01  0.51100000000E-03 0.  1.
        -12    1    3    3    0    0  0.32422844494E+02 -0.20583694596E+02  0.48469777856E+01  0.38709462951E+02  0.00000000000E+00 0.  1.
</event>
<event>
 7    1  0.2084210E-015  0.9000761E+02  0.7816164E-02  0.1186339E+00
        -11   -1    0    0    0    0  0.00000000000E+00  0.00000000000E+00  0.45593999997E+02  0.45594000000E+02  0.51100000000E-03 0. -1.
         11   -1    0    0    0    0 -0.00000000000E+00 -0.00000000000E+00 -0.45593999997E+02  0.45594000000E+02  0.51100000000E-03 0.  1.
    9900012    2    1    2    0    0  0.91409443708E+00 -0.73047269236E+00 -0.15546338305E+00  0.90007606905E+02  0.89999866517E+02 0.  0.
         12    1    1    2    0    0 -0.91409443708E+00  0.73047269236E+00  0.15546338305E+00  0.11803930945E+01  0.00000000000E+00 0. -1.
         11    1    3    3    0    0  0.90138103239E+00 -0.22186762188E+02  0.27282190895E+02  0.35176452983E+02  0.51100000000E-03 0. -1.
        -11    1    3    3    0    0  0.16298172189E+01 -0.96875269925E+01  0.39470170835E+01  0.10586946090E+02  0.51100000000E-03 0.  1.
        -12    1    3    3    0    0 -0.16171038142E+01  0.31143816489E+02 -0.31384671362E+02  0.44244207832E+02  0.00000000000E+00 0.  1.
</event>
<event>
 7    1  0.2084210E-015  0.9000773E+02  0.7816164E-02  0.1186339E+00
        -11   -1    0    0    0    0  0.00000000000E+00  0.00000000000E+00  0.45593999997E+02  0.45594000000E+02  0.51100000000E-03 0. -1.
         11   -1    0    0    0    0 -0.00000000000E+00 -0.00000000000E+00 -0.45593999997E+02  0.45594000000E+02  0.51100000000E-03 0.  1.
    9900012    2    1    2    0    0  0.49644451385E+00  0.66668983632E+00  0.83792354746E+00  0.90007725301E+02  0.89999986475E+02 0.  0.
         12    1    1    2    0    0 -0.49644451385E+00 -0.66668983632E+00 -0.83792354746E+00  0.11802746988E+01  0.00000000000E+00 0. -1.
         11    1    3    3    0    0 -0.66937700778E+01  0.23447574225E+01  0.91682485228E+00  0.71515741830E+01  0.51100000000E-03 0. -1.
        -11    1    3    3    0    0 -0.30662368075E+02  0.17869578631E+02 -0.13831283777E+02  0.38089461372E+02  0.51100000000E-03 0.  1.
         12    1    3    3    0    0  0.37852582667E+02 -0.19547646217E+02  0.13752382472E+02  0.44766689746E+02  0.00000000000E+00 0. -1.
</event>
<event>
 7    1  0.2084210E-015  0.9000766E+02  0.7816164E-02  0.1186339E+00
        -11   -1    0    0    0    0  0.00000000000E+00  0.00000000000E+00  0.45593999997E+02  0.45594000000E+02  0.51100000000E-03 0.  1.
         11   -1    0    0    0    0 -0.00000000000E+00 -0.00000000000E+00 -0.45593999997E+02  0.45594000000E+02  0.51100000000E-03 0. -1.
    9900012    2    1    2    0    0 -0.82854006589E+00  0.40967875488E+00 -0.73409560014E+00  0.90007656121E+02  0.89999916382E+02 0.  0.
         12    1    1    2    0    0  0.82854006589E+00 -0.40967875488E+00  0.73409560014E+00  0.11803438792E+01  0.00000000000E+00 0. -1.
         11    1    3    3    0    0  0.11458378975E+02  0.12393192152E+02 -0.31866660834E+02  0.36060639670E+02  0.51100000000E-03 0. -1.
        -11    1    3    3    0    0  0.13724821913E+01  0.26430930124E+01 -0.87945022162E+01  0.92850911428E+01  0.51100000000E-03 0.  1.
        -12    1    3    3    0    0 -0.13659401232E+02 -0.14626606410E+02  0.39927067450E+02  0.44661925308E+02  0.00000000000E+00 0.  1.
</event>
<event>
 7    1  0.2084210E-015  0.9000769E+02  0.7816164E-02  0.1186339E+00
        -11   -1    0    0    0    0  0.00000000000E+00  0.00000000000E+00  0.45593999997E+02  0.45594000000E+02  0.51100000000E-03 0. -1.
         11   -1    0    0    0    0 -0.00000000000E+00 -0.00000000000E+00 -0.45593999997E+02  0.45594000000E+02  0.51100000000E-03 0.  1.
    9900012    2    1    2    0    0 -0.93291427715E+00  0.71808560283E+00 -0.84572926708E-01  0.90007691328E+02  0.89999952053E+02 0.  0.
         12    1    1    2    0    0  0.93291427715E+00 -0.71808560283E+00  0.84572926708E-01  0.11803086721E+01  0.00000000000E+00 0. -1.
         11    1    3    3    0    0  0.30720703364E+01 -0.20606569878E+02 -0.31149686206E+02  0.37474942152E+02  0.51100000000E-03 0. -1.
        -11    1    3    3    0    0  0.70060516780E+00  0.72276715902E+01 -0.79594080018E+01  0.10774147772E+02  0.51100000000E-03 0.  1.
        -12    1    3    3    0    0 -0.47055897814E+01  0.14096983891E+02  0.39024521281E+02  0.41758601404E+02  0.00000000000E+00 0.  1.
</event>
<event>
 7    1  0.2084210E-015  0.9000775E+02  0.7816164E-02  0.1186339E+00
        -11   -1    0    0    0    0  0.00000000000E+00  0.00000000000E+00  0.45593999997E+02  0.45594000000E+02  0.51100000000E-03 0.  1.
         11   -1    0    0    0    0 -0.00000000000E+00 -0.00000000000E+00 -0.45593999997E+02  0.45594000000E+02  0.51100000000E-03 0. -1.
    9900012    2    1    2    0    0  0.11769182880E+01  0.54311840879E-01 -0.70089799243E-01  0.90007746208E+02  0.90000007658E+02 0.  0.
         12    1    1    2    0    0 -0.11769182880E+01 -0.54311840879E-01  0.70089799243E-01  0.11802537917E+01  0.00000000000E+00 0. -1.
         11    1    3    3    0    0  0.11702691386E+02 -0.20466119759E+02 -0.18421484536E+02  0.29919327139E+02  0.51100000000E-03 0. -1.
        -11    1    3    3    0    0  0.11395015333E+02 -0.10041083962E+02 -0.47945762241E+01  0.15926635018E+02  0.51100000000E-03 0.  1.
        -12    1    3    3    0    0 -0.21920788431E+02  0.30561515562E+02  0.23145970961E+02  0.44161784051E+02  0.00000000000E+00 0.  1.
</event>
<event>
 7    1  0.2084210E-015  0.9000774E+02  0.7816164E-02  0.1186339E+00
        -11   -1    0    0    0    0  0.00000000000E+00  0.00000000000E+00  0.45593999997E+02  0.45594000000E+02  0.51100000000E-03 0.  1.
         11   -1    0    0    0    0 -0.00000000000E+00 -0.00000000000E+00 -0.45593999997E+02  0.45594000000E+02  0.51100000000E-03 0. -1.
    9900012    2    1    2    0    0  0.29778097487E+00  0.95034737161E-01  0.11381188346E+01  0.90007737490E+02  0.89999998825E+02 0.  0.
         12    1    1    2    0    0 -0.29778097487E+00 -0.95034737161E-01 -0.11381188346E+01  0.11802625097E+01  0.00000000000E+00 0. -1.
         11    1    3    3    0    0 -0.10352651933E+02  0.98910541241E+01  0.26283438197E+01  0.14557422342E+02  0.51100000000E-03 0. -1.
        -11    1    3    3    0    0  0.84961515512E+00  0.61054876741E+00  0.35644113321E+02  0.35659464808E+02  0.51100000000E-03 0.  1.
         12    1    3    3    0    0  0.98008177531E+01 -0.10406568154E+02 -0.37134338306E+02  0.39790850340E+02  0.00000000000E+00 0. -1.
</event>
<event>
 7    1  0.2084210E-015  0.9000772E+02  0.7816164E-02  0.1186339E+00
        -11   -1    0    0    0    0  0.00000000000E+00  0.00000000000E+00  0.45593999997E+02  0.45594000000E+02  0.51100000000E-03 0.  1.
         11   -1    0    0    0    0 -0.00000000000E+00 -0.00000000000E+00 -0.45593999997E+02  0.45594000000E+02  0.51100000000E-03 0. -1.
    9900012    2    1    2    0    0  0.81164356717E+00  0.15643306038E+00  0.84250883483E+00  0.90007721338E+02  0.89999982460E+02 0.  0.
         12    1    1    2    0    0 -0.81164356717E+00 -0.15643306038E+00 -0.84250883483E+00  0.11802786617E+01  0.00000000000E+00 0. -1.
         11    1    3    3    0    0  0.17805901902E+02 -0.25177064115E+02  0.25736754219E+02  0.40166095379E+02  0.51100000000E-03 0. -1.
        -11    1    3    3    0    0  0.80594902903E+01  0.48581501562E+01 -0.69328793688E+00  0.94359766375E+01  0.51100000000E-03 0.  1.
        -12    1    3    3    0    0 -0.25053748625E+02  0.20475347020E+02 -0.24200957447E+02  0.40405649322E+02  0.00000000000E+00 0.  1.
</event>
<event>
 7    1  0.2084210E-015  0.9000778E+02  0.7816164E-02  0.1186339E+00
        -11   -1    0    0    0    0  0.00000000000E+00  0.00000000000E+00  0.45593999997E+02  0.45594000000E+02  0.51100000000E-03 0. -1.
         11   -1    0    0    0    0 -0.00000000000E+00 -0.00000000000E+00 -0.45593999997E+02  0.45594000000E+02  0.51100000000E-03 0.  1.
    9900012    2    1    2    0    0 -0.11451408462E+01  0.22919648566E+00 -0.17040814656E+00  0.90007780731E+02  0.90000042637E+02 0.  0.
         12    1    1    2    0    0  0.11451408462E+01 -0.22919648566E+00  0.17040814656E+00  0.11802192691E+01  0.00000000000E+00 0. -1.
         11    1    3    3    0    0 -0.11947046608E+01 -0.56303852106E+01 -0.28242698068E+01  0.64113225663E+01  0.51100000000E-03 0. -1.
        -11    1    3    3    0    0  0.29386031017E+02 -0.14592911857E+02  0.25156015734E+02  0.41343887374E+02  0.51100000000E-03 0.  1.
         12    1    3    3    0    0 -0.29336467202E+02  0.20452493553E+02 -0.22502154074E+02  0.42252570790E+02  0.00000000000E+00 0. -1.
</event>
<event>
 7    1  0.2084210E-015  0.9000773E+02  0.7816164E-02  0.1186339E+00
        -11   -1    0    0    0    0  0.00000000000E+00  0.00000000000E+00  0.45593999997E+02  0.45594000000E+02  0.51100000000E-03 0.  1.
         11   -1    0    0    0    0 -0.00000000000E+00 -0.00000000000E+00 -0.45593999997E+02  0.45594000000E+02  0.51100000000E-03 0. -1.
    9900012    2    1    2    0    0 -0.69607659768E+00 -0.30538963564E+00  0.90291255750E+00  0.90007730308E+02  0.89999991548E+02 0.  0.
         12    1    1    2    0    0  0.69607659768E+00  0.30538963564E+00 -0.90291255750E+00  0.11802696920E+01  0.00000000000E+00 0. -1.
         11    1    3    3    0    0  0.29421155387E+01  0.20587639416E+01  0.83379982285E+01  0.90783681094E+01  0.51100000000E-03 0. -1.
        -11    1    3    3    0    0  0.32733882639E+01  0.23924179494E+02  0.27544402143E+02  0.36630254228E+02  0.51100000000E-03 0.  1.
         12    1    3    3    0    0 -0.69115804003E+01 -0.26288333071E+02 -0.34979487814E+02  0.44299107970E+02  0.00000000000E+00 0. -1.
</event>
<event>
 7    1  0.3218634E-015  0.9000770E+02  0.7816164E-02  0.1186339E+00
        -11   -1    0    0    0    0  0.00000000000E+00  0.00000000000E+00  0.45593999997E+02  0.45594000000E+02  0.51100000000E-03 0. -1.
         11   -1    0    0    0    0 -0.00000000000E+00 -0.00000000000E+00 -0.45593999997E+02  0.45594000000E+02  0.51100000000E-03 0.  1.
    9900012    2    1    2    0    0 -0.96570341970E+00 -0.32933139974E+00 -0.59335133833E+00  0.90007700006E+02  0.89999960846E+02 0.  0.
         12    1    1    2    0    0  0.96570341970E+00  0.32933139974E+00  0.59335133833E+00  0.11802999942E+01  0.00000000000E+00 0. -1.
         11    1    3    3    0    0 -0.35573297346E+01  0.30102292729E+02  0.23229216079E+02  0.38188991899E+02  0.51100000000E-03 0. -1.
        -11    1    3    3    0    0 -0.53996867173E+01 -0.35429102136E+01  0.74160853073E+01  0.98339794068E+01  0.51100000000E-03 0.  1.
        -12    1    3    3    0    0  0.79913130322E+01 -0.26888713915E+02 -0.31238652725E+02  0.41984728700E+02  0.00000000000E+00 0.  1.
</event>
<event>
 7    1  0.2084210E-015  0.9000777E+02  0.7816164E-02  0.1186339E+00
        -11   -1    0    0    0    0  0.00000000000E+00  0.00000000000E+00  0.45593999997E+02  0.45594000000E+02  0.51100000000E-03 0.  1.
         11   -1    0    0    0    0 -0.00000000000E+00 -0.00000000000E+00 -0.45593999997E+02  0.45594000000E+02  0.51100000000E-03 0. -1.
    9900012    2    1    2    0    0  0.95347337105E+00 -0.36432813860E-01  0.69463187570E+00  0.90007766014E+02  0.90000027725E+02 0.  0.
         12    1    1    2    0    0 -0.95347337105E+00  0.36432813860E-01 -0.69463187570E+00  0.11802339861E+01  0.00000000000E+00 0. -1.
         11    1    3    3    0    0  0.29176076255E+02  0.48393394585E+01 -0.24316998726E+02  0.38288105977E+02  0.51100000000E-03 0. -1.
        -11    1    3    3    0    0  0.70639339569E+01 -0.68714872347E+01  0.42713642465E+01  0.10740626264E+02  0.51100000000E-03 0.  1.
        -12    1    3    3    0    0 -0.35286536841E+02  0.19957149623E+01  0.20740266355E+02  0.40979033772E+02  0.00000000000E+00 0.  1.
</event>
<event>
 7    1  0.2084210E-015  0.9000784E+02  0.7816164E-02  0.1186339E+00
        -11   -1    0    0    0    0  0.00000000000E+00  0.00000000000E+00  0.45593999997E+02  0.45594000000E+02  0.51100000000E-03 0.  1.
         11   -1    0    0    0    0 -0.00000000000E+00 -0.00000000000E+00 -0.45593999997E+02  0.45594000000E+02  0.51100000000E-03 0. -1.
    9900012    2    1    2    0    0 -0.11400362103E+01  0.18684110340E-01  0.30455920591E+00  0.90007835619E+02  0.90000098249E+02 0.  0.
         12    1    1    2    0    0  0.11400362103E+01 -0.18684110340E-01 -0.30455920591E+00  0.11801643812E+01  0.00000000000E+00 0. -1.
         11    1    3    3    0    0  0.12627895870E+02  0.16181790557E+02 -0.32333950011E+02  0.38298804463E+02  0.51100000000E-03 0. -1.
        -11    1    3    3    0    0  0.89606552793E+01 -0.47328099966E+01 -0.24046110388E+00  0.10136599790E+02  0.51100000000E-03 0.  1.
        -12    1    3    3    0    0 -0.22728587359E+02 -0.11430296450E+02  0.32878970321E+02  0.41572431366E+02  0.00000000000E+00 0.  1.
</event>
<event>
 7    1  0.2084210E-015  0.9000774E+02  0.7816164E-02  0.1186339E+00
        -11   -1    0    0    0    0  0.00000000000E+00  0.00000000000E+00  0.45593999997E+02  0.45594000000E+02  0.51100000000E-03 0.  1.
         11   -1    0    0    0    0 -0.00000000000E+00 -0.00000000000E+00 -0.45593999997E+02  0.45594000000E+02  0.51100000000E-03 0. -1.
    9900012    2    1    2    0    0 -0.10632997465E+01  0.39353415412E+00  0.32793532597E+00  0.90007738563E+02  0.89999999912E+02 0.  0.
         12    1    1    2    0    0  0.10632997465E+01 -0.39353415412E+00 -0.32793532597E+00  0.11802614369E+01  0.00000000000E+00 0. -1.
         11    1    3    3    0    0 -0.18244984539E+02  0.30130121343E+02 -0.85323634561E+01  0.36242308141E+02  0.51100000000E-03 0. -1.
        -11    1    3    3    0    0 -0.50824102292E+01  0.69910148646E+01  0.63839181664E+01  0.10745212608E+02  0.51100000000E-03 0.  1.
        -12    1    3    3    0    0  0.22264095022E+02 -0.36727602054E+02  0.24763806156E+01  0.43020217814E+02  0.00000000000E+00 0.  1.
</event>
<event>
 7    1  0.2084210E-015  0.9000771E+02  0.7816164E-02  0.1186339E+00
        -11   -1    0    0    0    0  0.00000000000E+00  0.00000000000E+00  0.45593999997E+02  0.45594000000E+02  0.51100000000E-03 0. -1.
         11   -1    0    0    0    0 -0.00000000000E+00 -0.00000000000E+00 -0.45593999997E+02  0.45594000000E+02  0.51100000000E-03 0.  1.
    9900012    2    1    2    0    0  0.79968092594E+00 -0.74558900638E+00 -0.44461350010E+00  0.90007714562E+02  0.89999975595E+02 0.  0.
         12    1    1    2    0    0 -0.79968092594E+00  0.74558900638E+00  0.44461350010E+00  0.11802854376E+01  0.00000000000E+00 0. -1.
         11    1    3    3    0    0  0.35759515655E+02  0.12369310934E+02  0.15713151268E+02  0.40971281843E+02  0.51100000000E-03 0. -1.
        -11    1    3    3    0    0 -0.30268555267E+01 -0.94104085694E+01  0.44609872840E+01  0.10845185643E+02  0.51100000000E-03 0.  1.
        -12    1    3    3    0    0 -0.31932979202E+02 -0.37044913708E+01 -0.20618752052E+02  0.38191247076E+02  0.00000000000E+00 0.  1.
</event>
<event>
 7    1  0.2084210E-015  0.9000775E+02  0.7816164E-02  0.1186339E+00
        -11   -1    0    0    0    0  0.00000000000E+00  0.00000000000E+00  0.45593999997E+02  0.45594000000E+02  0.51100000000E-03 0.  1.
         11   -1    0    0    0    0 -0.00000000000E+00 -0.00000000000E+00 -0.45593999997E+02  0.45594000000E+02  0.51100000000E-03 0. -1.
    9900012    2    1    2    0    0 -0.52922600490E-01  0.49472000701E+00  0.10702511349E+01  0.90007751645E+02  0.90000013167E+02 0.  0.
         12    1    1    2    0    0  0.52922600490E-01 -0.49472000701E+00 -0.10702511349E+01  0.11802483547E+01  0.00000000000E+00 0. -1.
         11    1    3    3    0    0 -0.87524733476E+01 -0.15865464293E+02 -0.81229242374E+01  0.19857004945E+02  0.51100000000E-03 0. -1.
        -11    1    3    3    0    0  0.31545547069E+02 -0.41641158741E+01  0.20012470004E+02  0.37589364944E+02  0.51100000000E-03 0.  1.
         12    1    3    3    0    0 -0.22845996322E+02  0.20524300174E+02 -0.10819294632E+02  0.32561381757E+02  0.00000000000E+00 0. -1.
</event>
<event>
 7    1  0.2084210E-015  0.9000813E+02  0.7816164E-02  0.1186338E+00
        -11   -1    0    0    0    0  0.00000000000E+00  0.00000000000E+00  0.45593999997E+02  0.45594000000E+02  0.51100000000E-03 0.  1.
         11   -1    0    0    0    0 -0.00000000000E+00 -0.00000000000E+00 -0.45593999997E+02  0.45594000000E+02  0.51100000000E-03 0. -1.
    9900012    2    1    2    0    0 -0.94064541315E+00 -0.41118557212E+00  0.58155407202E+00  0.90008130301E+02  0.90000396820E+02 0.  0.
         12    1    1    2    0    0  0.94064541315E+00  0.41118557212E+00 -0.58155407202E+00  0.11798696990E+01  0.00000000000E+00 0. -1.
         11    1    3    3    0    0 -0.23723742698E+02 -0.26811457812E+02 -0.79709995479E+00  0.35809294969E+02  0.51100000000E-03 0. -1.
        -11    1    3    3    0    0 -0.53630224957E+01 -0.70869884712E+01  0.51840364390E+01  0.10288909074E+02  0.51100000000E-03 0.  1.
        -12    1    3    3    0    0  0.28146119780E+02  0.33487260711E+02 -0.38053824122E+01  0.43909926257E+02  0.00000000000E+00 0.  1.
</event>
<event>
 7    1  0.3082509E-015  0.9000768E+02  0.7816164E-02  0.1186339E+00
        -11   -1    0    0    0    0  0.00000000000E+00  0.00000000000E+00  0.45593999997E+02  0.45594000000E+02  0.51100000000E-03 0.  1.
         11   -1    0    0    0    0 -0.00000000000E+00 -0.00000000000E+00 -0.45593999997E+02  0.45594000000E+02  0.51100000000E-03 0. -1.
    9900012    2    1    2    0    0  0.83751341172E+00 -0.26997806083E+00  0.78665767038E+00  0.90007683450E+02  0.89999944071E+02 0.  0.
         12    1    1    2    0    0 -0.83751341172E+00  0.26997806083E+00 -0.78665767038E+00  0.11803165501E+01  0.00000000000E+00 0. -1.
         11    1    3    3    0    0 -0.35916138417E+01 -0.15110846447E+02 -0.36285603265E+02  0.39470018684E+02  0.51100000000E-03 0. -1.
        -11    1    3    3    0    0  0.34054860426E+01 -0.84709073176E+01  0.37780065338E+01  0.98806345748E+01  0.51100000000E-03 0.  1.
        -12    1    3    3    0    0  0.10236412108E+01  0.23311775703E+02  0.33294254402E+02  0.40657030191E+02  0.00000000000E+00 0.  1.
</event>
<event>
 7    1  0.2084210E-015  0.9000774E+02  0.7816164E-02  0.1186339E+00
        -11   -1    0    0    0    0  0.00000000000E+00  0.00000000000E+00  0.45593999997E+02  0.45594000000E+02  0.51100000000E-03 0.  1.
         11   -1    0    0    0    0 -0.00000000000E+00 -0.00000000000E+00 -0.45593999997E+02  0.45594000000E+02  0.51100000000E-03 0. -1.
    9900012    2    1    2    0    0  0.65691371958E+00 -0.79324072062E+00  0.57640824634E+00  0.90007740307E+02  0.90000001679E+02 0.  0.
         12    1    1    2    0    0 -0.65691371958E+00  0.79324072062E+00 -0.57640824634E+00  0.11802596927E+01  0.00000000000E+00 0. -1.
         11    1    3    3    0    0 -0.10902923581E+01 -0.55450937187E+01 -0.61121280940E+01  0.83243565442E+01  0.51100000000E-03 0. -1.
        -11    1    3    3    0    0 -0.36976592862E+02  0.16928636563E+01  0.18091330731E+02  0.41199884161E+02  0.51100000000E-03 0.  1.
         12    1    3    3    0    0  0.38723798940E+02  0.30589893418E+01 -0.11402794390E+02  0.40483499602E+02  0.00000000000E+00 0. -1.
</event>
<event>
 7    1  0.2084210E-015  0.9000779E+02  0.7816164E-02  0.1186339E+00
        -11   -1    0    0    0    0  0.00000000000E+00  0.00000000000E+00  0.45593999997E+02  0.45594000000E+02  0.51100000000E-03 0.  1.
         11   -1    0    0    0    0 -0.00000000000E+00 -0.00000000000E+00 -0.45593999997E+02  0.45594000000E+02  0.51100000000E-03 0. -1.
    9900012    2    1    2    0    0 -0.33838223299E+00 -0.39231740120E+00  0.10604146012E+01  0.90007790440E+02  0.90000052474E+02 0.  0.
         12    1    1    2    0    0  0.33838223299E+00  0.39231740120E+00 -0.10604146012E+01  0.11802095600E+01  0.00000000000E+00 0. -1.
         11    1    3    3    0    0 -0.76270967400E+01 -0.78682767928E+01  0.21015771141E+01  0.11157912484E+02  0.51100000000E-03 0. -1.
        -11    1    3    3    0    0  0.12944369591E+02 -0.68792557481E+01  0.35920873762E+02  0.38796778679E+02  0.51100000000E-03 0.  1.
         12    1    3    3    0    0 -0.56556550836E+01  0.14355215140E+02 -0.36962036275E+02  0.40053099277E+02  0.00000000000E+00 0. -1.
</event>
<event>
 7    1  0.2084210E-015  0.9000783E+02  0.7816164E-02  0.1186339E+00
        -11   -1    0    0    0    0  0.00000000000E+00  0.00000000000E+00  0.45593999997E+02  0.45594000000E+02  0.51100000000E-03 0.  1.
         11   -1    0    0    0    0 -0.00000000000E+00 -0.00000000000E+00 -0.45593999997E+02  0.45594000000E+02  0.51100000000E-03 0. -1.
    9900012    2    1    2    0    0  0.94291424250E+00 -0.62215238361E+00 -0.34153793614E+00  0.90007826700E+02  0.90000089212E+02 0.  0.
         12    1    1    2    0    0 -0.94291424250E+00  0.62215238361E+00  0.34153793614E+00  0.11801733004E+01  0.00000000000E+00 0. -1.
         11    1    3    3    0    0 -0.10829911393E+02 -0.35434255240E+02  0.11114110003E+02  0.38683289242E+02  0.51100000000E-03 0. -1.
        -11    1    3    3    0    0  0.32863952186E+01 -0.63307869498E+01 -0.52565142945E+01  0.88605981585E+01  0.51100000000E-03 0.  1.
        -12    1    3    3    0    0  0.84864304171E+01  0.41142889806E+02 -0.61991336447E+01  0.42463939299E+02  0.00000000000E+00 0.  1.
</event>
<event>
 7    1  0.2084210E-015  0.9000750E+02  0.7816164E-02  0.1186340E+00
        -11   -1    0    0    0    0  0.00000000000E+00  0.00000000000E+00  0.45593999997E+02  0.45594000000E+02  0.51100000000E-03 0. -1.
         11   -1    0    0    0    0 -0.00000000000E+00 -0.00000000000E+00 -0.45593999997E+02  0.45594000000E+02  0.51100000000E-03 0.  1.
    9900012    2    1    2    0    0 -0.94625572367E+00 -0.70191138060E+00  0.74093727619E-01  0.90007504612E+02  0.89999762872E+02 0.  0.
         12    1    1    2    0    0  0.94625572367E+00  0.70191138060E+00 -0.74093727619E-01  0.11804953881E+01  0.00000000000E+00 0. -1.
         11    1    3    3    0    0 -0.22229387453E+02 -0.62280162733E+01  0.28204661447E+02  0.36447726689E+02  0.51100000000E-03 0. -1.
        -11    1    3    3    0    0 -0.11328509729E+02  0.97217337176E+00 -0.20479569028E+01  0.11553111334E+02  0.51100000000E-03 0.  1.
        -12    1    3    3    0    0  0.32611641459E+02  0.45539315210E+01 -0.26082610816E+02  0.42006666589E+02  0.00000000000E+00 0.  1.
</event>
<event>
 7    1  0.2084210E-015  0.9000798E+02  0.7816164E-02  0.1186339E+00
        -11   -1    0    0    0    0  0.00000000000E+00  0.00000000000E+00  0.45593999997E+02  0.45594000000E+02  0.51100000000E-03 0.  1.
         11   -1    0    0    0    0 -0.00000000000E+00 -0.00000000000E+00 -0.45593999997E+02  0.45594000000E+02  0.51100000000E-03 0. -1.
    9900012    2    1    2    0    0 -0.24956661843E+00 -0.10966232391E+01  0.35718365043E+00  0.90007980430E+02  0.90000244971E+02 0.  0.
         12    1    1    2    0    0  0.24956661843E+00  0.10966232391E+01 -0.35718365043E+00  0.11800195701E+01  0.00000000000E+00 0. -1.
         11    1    3    3    0    0 -0.30884846833E+02  0.20892306457E+02 -0.44600864034E+01  0.37553356761E+02  0.51100000000E-03 0. -1.
        -11    1    3    3    0    0 -0.44081485789E+01  0.46722767504E+01 -0.39734918432E+01  0.75531835417E+01  0.51100000000E-03 0.  1.
        -12    1    3    3    0    0  0.35043428794E+02 -0.26661206446E+02  0.87907618970E+01  0.44901440128E+02  0.00000000000E+00 0.  1.
</event>
<event>
 7    1  0.2084210E-015  0.9000778E+02  0.7816164E-02  0.1186339E+00
        -11   -1    0    0    0    0  0.00000000000E+00  0.00000000000E+00  0.45593999997E+02  0.45594000000E+02  0.51100000000E-03 0. -1.
         11   -1    0    0    0    0 -0.00000000000E+00 -0.00000000000E+00 -0.45593999997E+02  0.45594000000E+02  0.51100000000E-03 0.  1.
    9900012    2    1    2    0    0  0.59985612977E+00 -0.20966081510E+00 -0.99454966028E+00  0.90007782198E+02  0.90000044123E+02 0.  0.
         12    1    1    2    0    0 -0.59985612977E+00  0.20966081510E+00  0.99454966028E+00  0.11802178022E+01  0.00000000000E+00 0. -1.
         11    1    3    3    0    0  0.19369992708E+02 -0.34607204055E+02  0.12242946385E+02  0.41505962541E+02  0.51100000000E-03 0. -1.
        -11    1    3    3    0    0  0.63268780080E+01  0.54780186251E+01 -0.22823535778E+01  0.86745150585E+01  0.51100000000E-03 0.  1.
        -12    1    3    3    0    0 -0.25097014586E+02  0.28919524615E+02 -0.10955142467E+02  0.39827304598E+02  0.00000000000E+00 0.  1.
</event>
<event>
 7    1  0.2084210E-015  0.9000753E+02  0.7816164E-02  0.1186339E+00
        -11   -1    0    0    0    0  0.00000000000E+00  0.00000000000E+00  0.45593999997E+02  0.45594000000E+02  0.51100000000E-03 0.  1.
         11   -1    0    0    0    0 -0.00000000000E+00 -0.00000000000E+00 -0.45593999997E+02  0.45594000000E+02  0.51100000000E-03 0. -1.
    9900012    2    1    2    0    0  0.74038390005E+00  0.57696995491E-01 -0.91761673712E+00  0.90007526477E+02  0.89999785026E+02 0.  0.
         12    1    1    2    0    0 -0.74038390005E+00 -0.57696995491E-01  0.91761673712E+00  0.11804735232E+01  0.00000000000E+00 0. -1.
         11    1    3    3    0    0 -0.11155298384E+01 -0.70232805470E+01  0.92638879539E+01  0.11678634199E+02  0.51100000000E-03 0. -1.
        -11    1    3    3    0    0  0.12274673136E+02 -0.23222062987E+02  0.20991029099E+02  0.33623728420E+02  0.51100000000E-03 0.  1.
         12    1    3    3    0    0 -0.10418759397E+02  0.30303040530E+02 -0.31172533790E+02  0.44705163858E+02  0.00000000000E+00 0. -1.
</event>
<event>
 7    1  0.2084210E-015  0.9000779E+02  0.7816164E-02  0.1186339E+00
        -11   -1    0    0    0    0  0.00000000000E+00  0.00000000000E+00  0.45593999997E+02  0.45594000000E+02  0.51100000000E-03 0.  1.
         11   -1    0    0    0    0 -0.00000000000E+00 -0.00000000000E+00 -0.45593999997E+02  0.45594000000E+02  0.51100000000E-03 0. -1.
    9900012    2    1    2    0    0  0.46866630657E+00 -0.84864662454E+00 -0.67308953616E+00  0.90007788695E+02  0.90000050706E+02 0.  0.
         12    1    1    2    0    0 -0.46866630657E+00  0.84864662454E+00  0.67308953616E+00  0.11802113048E+01  0.00000000000E+00 0. -1.
         11    1    3    3    0    0 -0.11070745498E+01  0.73805034312E+01 -0.70674050415E+01  0.10278407427E+02  0.51100000000E-03 0. -1.
        -11    1    3    3    0    0 -0.18535387528E+02  0.14740654417E+02  0.32050467680E+02  0.39850720975E+02  0.51100000000E-03 0.  1.
         12    1    3    3    0    0  0.20111128384E+02 -0.22969804472E+02 -0.25656152175E+02  0.39878660293E+02  0.00000000000E+00 0. -1.
</event>
<event>
 7    1  0.2084210E-015  0.9000768E+02  0.7816164E-02  0.1186339E+00
        -11   -1    0    0    0    0  0.00000000000E+00  0.00000000000E+00  0.45593999997E+02  0.45594000000E+02  0.51100000000E-03 0.  1.
         11   -1    0    0    0    0 -0.00000000000E+00 -0.00000000000E+00 -0.45593999997E+02  0.45594000000E+02  0.51100000000E-03 0. -1.
    9900012    2    1    2    0    0 -0.24164328325E-01  0.38732764506E+00  0.11146934864E+01  0.90007683014E+02  0.89999943629E+02 0.  0.
         12    1    1    2    0    0  0.24164328325E-01 -0.38732764506E+00 -0.11146934864E+01  0.11803169863E+01  0.00000000000E+00 0. -1.
         11    1    3    3    0    0 -0.10874681193E+02  0.27218954056E+02 -0.18672013806E+02  0.34753046640E+02  0.51100000000E-03 0. -1.
        -11    1    3    3    0    0 -0.83817324639E+01 -0.48736957899E+01 -0.97344656276E+01  0.13739220177E+02  0.51100000000E-03 0.  1.
        -12    1    3    3    0    0  0.19232249329E+02 -0.21957930621E+02  0.29521172920E+02  0.41515416197E+02  0.00000000000E+00 0.  1.
</event>
<event>
 7    1  0.2084210E-015  0.9000763E+02  0.7816164E-02  0.1186339E+00
        -11   -1    0    0    0    0  0.00000000000E+00  0.00000000000E+00  0.45593999997E+02  0.45594000000E+02  0.51100000000E-03 0.  1.
         11   -1    0    0    0    0 -0.00000000000E+00 -0.00000000000E+00 -0.45593999997E+02  0.45594000000E+02  0.51100000000E-03 0. -1.
    9900012    2    1    2    0    0  0.11801236848E+01 -0.20060136250E-02 -0.24191136631E-01  0.90007626692E+02  0.89999886564E+02 0.  0.
         12    1    1    2    0    0 -0.11801236848E+01  0.20060136250E-02  0.24191136631E-01  0.11803733082E+01  0.00000000000E+00 0. -1.
         11    1    3    3    0    0 -0.24310050833E+02  0.29270567041E+02 -0.11000094170E+01  0.38065137428E+02  0.51100000000E-03 0. -1.
        -11    1    3    3    0    0 -0.48933377434E+01  0.43555315974E+01 -0.68806441936E+00  0.65870207737E+01  0.51100000000E-03 0.  1.
        -12    1    3    3    0    0  0.30383512261E+02 -0.33628104652E+02  0.17638826997E+01  0.45355468491E+02  0.00000000000E+00 0.  1.
</event>
<event>
 7    1  0.2084210E-015  0.9000744E+02  0.7816164E-02  0.1186340E+00
        -11   -1    0    0    0    0  0.00000000000E+00  0.00000000000E+00  0.45593999997E+02  0.45594000000E+02  0.51100000000E-03 0. -1.
         11   -1    0    0    0    0 -0.00000000000E+00 -0.00000000000E+00 -0.45593999997E+02  0.45594000000E+02  0.51100000000E-03 0.  1.
    9900012    2    1    2    0    0  0.57302714685E+00 -0.93372559418E+00 -0.43991406192E+00  0.90007437432E+02  0.89999694805E+02 0.  0.
         12    1    1    2    0    0 -0.57302714685E+00  0.93372559418E+00  0.43991406192E+00  0.11805625685E+01  0.00000000000E+00 0. -1.
         11    1    3    3    0    0  0.89911819011E+01 -0.35753895201E+02  0.82321807090E+01  0.37775007260E+02  0.51100000000E-03 0. -1.
        -11    1    3    3    0    0  0.52106746267E+00 -0.72220679619E+01 -0.55759437952E+01  0.91389784120E+01  0.51100000000E-03 0.  1.
        -12    1    3    3    0    0 -0.89392222169E+01  0.42042237569E+02 -0.30961509757E+01  0.43093451759E+02  0.00000000000E+00 0.  1.
</event>
<event>
 7    1  0.2084210E-015  0.9000790E+02  0.7816164E-02  0.1186339E+00
        -11   -1    0    0    0    0  0.00000000000E+00  0.00000000000E+00  0.45593999997E+02  0.45594000000E+02  0.51100000000E-03 0.  1.
         11   -1    0    0    0    0 -0.00000000000E+00 -0.00000000000E+00 -0.45593999997E+02  0.45594000000E+02  0.51100000000E-03 0. -1.
    9900012    2    1    2    0    0  0.14324075509E+00 -0.11251871840E+01  0.32567274124E+00  0.90007903882E+02  0.90000167413E+02 0.  0.
         12    1    1    2    0    0 -0.14324075509E+00  0.11251871840E+01 -0.32567274124E+00  0.11800961178E+01  0.00000000000E+00 0. -1.
         11    1    3    3    0    0  0.40017548698E+01 -0.31300025894E+01 -0.83450273659E+01  0.97698741162E+01  0.51100000000E-03 0. -1.
        -11    1    3    3    0    0  0.33483232343E+01  0.85655337978E+01 -0.34642216750E+02  0.35842193283E+02  0.51100000000E-03 0.  1.
         12    1    3    3    0    0 -0.72068373491E+01 -0.65607183924E+01  0.43312916857E+02  0.44395836483E+02  0.00000000000E+00 0. -1.
</event>
<event>
 7    1  0.2084210E-015  0.9000772E+02  0.7816164E-02  0.1186339E+00
        -11   -1    0    0    0    0  0.00000000000E+00  0.00000000000E+00  0.45593999997E+02  0.45594000000E+02  0.51100000000E-03 0. -1.
         11   -1    0    0    0    0 -0.00000000000E+00 -0.00000000000E+00 -0.45593999997E+02  0.45594000000E+02  0.51100000000E-03 0.  1.
    9900012    2    1    2    0    0  0.92468407270E+00  0.67825667718E-01  0.73036210159E+00  0.90007716240E+02  0.89999977294E+02 0.  0.
         12    1    1    2    0    0 -0.92468407270E+00 -0.67825667718E-01 -0.73036210159E+00  0.11802837603E+01  0.00000000000E+00 0. -1.
         11    1    3    3    0    0  0.17308031515E+02 -0.98398180496E+01 -0.57370776058E+01  0.20719653324E+02  0.51100000000E-03 0. -1.
        -11    1    3    3    0    0  0.15138288148E+02 -0.14629480709E+02 -0.13112191705E+02  0.24801593606E+02  0.51100000000E-03 0.  1.
         12    1    3    3    0    0 -0.31521635590E+02  0.24537124426E+02  0.19579631412E+02  0.44486469309E+02  0.00000000000E+00 0. -1.
</event>
<event>
 7    1  0.2084210E-015  0.9000758E+02  0.7816164E-02  0.1186339E+00
        -11   -1    0    0    0    0  0.00000000000E+00  0.00000000000E+00  0.45593999997E+02  0.45594000000E+02  0.51100000000E-03 0.  1.
         11   -1    0    0    0    0 -0.00000000000E+00 -0.00000000000E+00 -0.45593999997E+02  0.45594000000E+02  0.51100000000E-03 0. -1.
    9900012    2    1    2    0    0 -0.10296534998E+01 -0.54672544012E+00  0.18517517084E+00  0.90007582752E+02  0.89999842044E+02 0.  0.
         12    1    1    2    0    0  0.10296534998E+01  0.54672544012E+00 -0.18517517084E+00  0.11804172485E+01  0.00000000000E+00 0. -1.
         11    1    3    3    0    0 -0.83408608064E+01 -0.37324050444E+01  0.55962025774E+01  0.10715329671E+02  0.51100000000E-03 0. -1.
        -11    1    3    3    0    0 -0.26365232485E+02 -0.21762711363E+02  0.83284783782E+01  0.35186711160E+02  0.51100000000E-03 0.  1.
         12    1    3    3    0    0  0.33676439792E+02  0.24948390967E+02 -0.13739505785E+02  0.44105541921E+02  0.00000000000E+00 0. -1.
</event>
<event>
 7    1  0.2149677E-015  0.9000775E+02  0.7816164E-02  0.1186339E+00
        -11   -1    0    0    0    0  0.00000000000E+00  0.00000000000E+00  0.45593999997E+02  0.45594000000E+02  0.51100000000E-03 0.  1.
         11   -1    0    0    0    0 -0.00000000000E+00 -0.00000000000E+00 -0.45593999997E+02  0.45594000000E+02  0.51100000000E-03 0. -1.
    9900012    2    1    2    0    0 -0.28814290410E+00  0.64268769244E+00  0.94706150393E+00  0.90007746089E+02  0.90000007537E+02 0.  0.
         12    1    1    2    0    0  0.28814290410E+00 -0.64268769244E+00 -0.94706150393E+00  0.11802539114E+01  0.00000000000E+00 0. -1.
         11    1    3    3    0    0  0.16766202080E+02 -0.19388781608E+02 -0.24724153677E+02  0.35613398598E+02  0.51100000000E-03 0. -1.
        -11    1    3    3    0    0  0.60995854754E+01 -0.90910178128E+00 -0.69160835666E+01  0.92662625250E+01  0.51100000000E-03 0.  1.
        -12    1    3    3    0    0 -0.23153930459E+02  0.20940571081E+02  0.32587298748E+02  0.45128084965E+02  0.00000000000E+00 0.  1.
</event>
<event>
 7    1  0.2084210E-015  0.9000758E+02  0.7816164E-02  0.1186339E+00
        -11   -1    0    0    0    0  0.00000000000E+00  0.00000000000E+00  0.45593999997E+02  0.45594000000E+02  0.51100000000E-03 0. -1.
         11   -1    0    0    0    0 -0.00000000000E+00 -0.00000000000E+00 -0.45593999997E+02  0.45594000000E+02  0.51100000000E-03 0.  1.
    9900012    2    1    2    0    0 -0.29425941529E+00 -0.10239195459E+01 -0.50833321987E+00  0.90007575287E+02  0.89999834481E+02 0.  0.
         12    1    1    2    0    0  0.29425941529E+00  0.10239195459E+01  0.50833321987E+00  0.11804247127E+01  0.00000000000E+00 0. -1.
         11    1    3    3    0    0  0.13064075803E+02 -0.17149375092E+01 -0.72239317378E+01  0.15026519133E+02  0.51100000000E-03 0. -1.
        -11    1    3    3    0    0  0.14457605372E+01 -0.33432317651E+02 -0.89201895645E+01  0.34632064177E+02  0.51100000000E-03 0.  1.
         12    1    3    3    0    0 -0.14804095755E+02  0.34123335615E+02  0.15635788082E+02  0.40348991977E+02  0.00000000000E+00 0. -1.
</event>
<event>
 7    1  0.2084210E-015  0.9000775E+02  0.7816164E-02  0.1186339E+00
        -11   -1    0    0    0    0  0.00000000000E+00  0.00000000000E+00  0.45593999997E+02  0.45594000000E+02  0.51100000000E-03 0. -1.
         11   -1    0    0    0    0 -0.00000000000E+00 -0.00000000000E+00 -0.45593999997E+02  0.45594000000E+02  0.51100000000E-03 0.  1.
    9900012    2    1    2    0    0 -0.10631696100E+01  0.34028318411E+00 -0.38322507033E+00  0.90007752687E+02  0.90000014223E+02 0.  0.
         12    1    1    2    0    0  0.10631696100E+01 -0.34028318411E+00  0.38322507033E+00  0.11802473129E+01  0.00000000000E+00 0. -1.
         11    1    3    3    0    0  0.81787170045E+01  0.38985384056E+02  0.83443877865E+01  0.40698653413E+02  0.51100000000E-03 0. -1.
        -11    1    3    3    0    0 -0.47929364099E+01  0.33109905143E+01 -0.34980015378E+01  0.67949181477E+01  0.51100000000E-03 0.  1.
        -12    1    3    3    0    0 -0.44489502045E+01 -0.41956091386E+02 -0.52296113190E+01  0.42514181127E+02  0.00000000000E+00 0.  1.
</event>
<event>
 7    1  0.2084210E-015  0.9000778E+02  0.7816164E-02  0.1186339E+00
        -11   -1    0    0    0    0  0.00000000000E+00  0.00000000000E+00  0.45593999997E+02  0.45594000000E+02  0.51100000000E-03 0. -1.
         11   -1    0    0    0    0 -0.00000000000E+00 -0.00000000000E+00 -0.45593999997E+02  0.45594000000E+02  0.51100000000E-03 0.  1.
    9900012    2    1    2    0    0  0.50788103225E+00  0.65456725352E+00 -0.84054317526E+00  0.90007782113E+02  0.90000044036E+02 0.  0.
         12    1    1    2    0    0 -0.50788103225E+00 -0.65456725352E+00  0.84054317526E+00  0.11802178874E+01  0.00000000000E+00 0. -1.
         11    1    3    3    0    0 -0.20268724094E+02  0.13047284740E+02  0.31442497042E+02  0.39619230633E+02  0.51100000000E-03 0. -1.
        -11    1    3    3    0    0 -0.37504472667E+01  0.56085639009E+01 -0.12176527987E+02  0.13920836103E+02  0.51100000000E-03 0.  1.
        -12    1    3    3    0    0  0.24527052393E+02 -0.18001281387E+02 -0.20106512230E+02  0.36467715376E+02  0.00000000000E+00 0.  1.
</event>
<event>
 7    1  0.2084210E-015  0.9000764E+02  0.7816164E-02  0.1186339E+00
        -11   -1    0    0    0    0  0.00000000000E+00  0.00000000000E+00  0.45593999997E+02  0.45594000000E+02  0.51100000000E-03 0.  1.
         11   -1    0    0    0    0 -0.00000000000E+00 -0.00000000000E+00 -0.45593999997E+02  0.45594000000E+02  0.51100000000E-03 0. -1.
    9900012    2    1    2    0    0 -0.10652533141E-01 -0.11729814969E+01 -0.13135034454E+00  0.90007639046E+02  0.89999899081E+02 0.  0.
         12    1    1    2    0    0  0.10652533141E-01  0.11729814969E+01  0.13135034454E+00  0.11803609539E+01  0.00000000000E+00 0. -1.
         11    1    3    3    0    0  0.84251731231E+01 -0.23415895205E+01  0.33528832007E+01  0.93652768061E+01  0.51100000000E-03 0. -1.
        -11    1    3    3    0    0 -0.29113353879E+02  0.30398593926E+02  0.83923528204E+01  0.42919616411E+02  0.51100000000E-03 0.  1.
         12    1    3    3    0    0  0.20677528222E+02 -0.29229985902E+02 -0.11876586366E+02  0.37722745829E+02  0.00000000000E+00 0. -1.
</event>
<event>
 7    1  0.3549623E-015  0.9000773E+02  0.7816164E-02  0.1186339E+00
        -11   -1    0    0    0    0  0.00000000000E+00  0.00000000000E+00  0.45593999997E+02  0.45594000000E+02  0.51100000000E-03 0. -1.
         11   -1    0    0    0    0 -0.00000000000E+00 -0.00000000000E+00 -0.45593999997E+02  0.45594000000E+02  0.51100000000E-03 0.  1.
    9900012    2    1    2    0    0 -0.39042108242E+00  0.19582512763E+00 -0.10964779880E+01  0.90007728811E+02  0.89999990031E+02 0.  0.
         12    1    1    2    0    0  0.39042108242E+00 -0.19582512763E+00  0.10964779880E+01  0.11802711894E+01  0.00000000000E+00 0. -1.
         11    1    3    3    0    0  0.68758529833E+01  0.10206807958E+02  0.34868195732E+02  0.36976308047E+02  0.51100000000E-03 0. -1.
        -11    1    3    3    0    0 -0.64932966134E+01 -0.25800277596E+01  0.67221674090E+01  0.96957196270E+01  0.51100000000E-03 0.  1.
        -12    1    3    3    0    0 -0.77297745230E+00 -0.74309550713E+01 -0.42686841129E+02  0.43335701136E+02  0.00000000000E+00 0.  1.
</event>
<event>
 7    1  0.2084210E-015  0.9000764E+02  0.7816164E-02  0.1186339E+00
        -11   -1    0    0    0    0  0.00000000000E+00  0.00000000000E+00  0.45593999997E+02  0.45594000000E+02  0.51100000000E-03 0.  1.
         11   -1    0    0    0    0 -0.00000000000E+00 -0.00000000000E+00 -0.45593999997E+02  0.45594000000E+02  0.51100000000E-03 0. -1.
    9900012    2    1    2    0    0 -0.93528952829E+00 -0.71027714237E+00 -0.11824282260E+00  0.90007643492E+02  0.89999903586E+02 0.  0.
         12    1    1    2    0    0  0.93528952829E+00  0.71027714237E+00  0.11824282260E+00  0.11803565079E+01  0.00000000000E+00 0. -1.
         11    1    3    3    0    0 -0.22840837754E+01  0.54906746654E+01 -0.89254226790E+01  0.10725097540E+02  0.51100000000E-03 0. -1.
        -11    1    3    3    0    0  0.84173241104E+01 -0.32711646183E+02 -0.20198812604E+02  0.39356005540E+02  0.51100000000E-03 0.  1.
         12    1    3    3    0    0 -0.70685298633E+01  0.26510694376E+02  0.29005992460E+02  0.39926540412E+02  0.00000000000E+00 0. -1.
</event>
<event>
 7    1  0.2084210E-015  0.9000784E+02  0.7816164E-02  0.1186339E+00
        -11   -1    0    0    0    0  0.00000000000E+00  0.00000000000E+00  0.45593999997E+02  0.45594000000E+02  0.51100000000E-03 0.  1.
         11   -1    0    0    0    0 -0.00000000000E+00 -0.00000000000E+00 -0.45593999997E+02  0.45594000000E+02  0.51100000000E-03 0. -1.
    9900012    2    1    2    0    0  0.54401186356E+00 -0.10294719921E+01 -0.19242088539E+00  0.90007835907E+02  0.90000098541E+02 0.  0.
         12    1    1    2    0    0 -0.54401186356E+00  0.10294719921E+01  0.19242088539E+00  0.11801640934E+01  0.00000000000E+00 0. -1.
         11    1    3    3    0    0  0.93327993023E+01  0.10615721669E+01 -0.18419850379E+01  0.95718852596E+01  0.51100000000E-03 0. -1.
        -11    1    3    3    0    0  0.18827734392E+02  0.82176156800E+01  0.32064139544E+02  0.38080465265E+02  0.51100000000E-03 0.  1.
         12    1    3    3    0    0 -0.27616521831E+02 -0.10308659839E+02 -0.30414575392E+02  0.42355485382E+02  0.00000000000E+00 0. -1.
</event>
<event>
 7    1  0.2084210E-015  0.9000696E+02  0.7816164E-02  0.1186341E+00
        -11   -1    0    0    0    0  0.00000000000E+00  0.00000000000E+00  0.45593999997E+02  0.45594000000E+02  0.51100000000E-03 0. -1.
         11   -1    0    0    0    0 -0.00000000000E+00 -0.00000000000E+00 -0.45593999997E+02  0.45594000000E+02  0.51100000000E-03 0.  1.
    9900012    2    1    2    0    0  0.10518400055E+01 -0.29543808869E+00 -0.44856834077E+00  0.90006956132E+02  0.89999207150E+02 0.  0.
         12    1    1    2    0    0 -0.10518400055E+01  0.29543808869E+00  0.44856834077E+00  0.11810438678E+01  0.00000000000E+00 0. -1.
         11    1    3    3    0    0  0.60559940321E+00 -0.85308797688E+01  0.32146976420E+02  0.33265158252E+02  0.51100000000E-03 0. -1.
        -11    1    3    3    0    0 -0.70550670736E+01 -0.59238758364E+01  0.85609743494E+01  0.12576031107E+02  0.51100000000E-03 0.  1.
        -12    1    3    3    0    0  0.75013076759E+01  0.14159317517E+02 -0.41156519111E+02  0.44165766773E+02  0.00000000000E+00 0.  1.
</event>
<event>
 7    1  0.2084210E-015  0.9000773E+02  0.7816164E-02  0.1186339E+00
        -11   -1    0    0    0    0  0.00000000000E+00  0.00000000000E+00  0.45593999997E+02  0.45594000000E+02  0.51100000000E-03 0. -1.
         11   -1    0    0    0    0 -0.00000000000E+00 -0.00000000000E+00 -0.45593999997E+02  0.45594000000E+02  0.51100000000E-03 0.  1.
    9900012    2    1    2    0    0  0.61153424000E+00  0.30730942470E+00 -0.96157723123E+00  0.90007727158E+02  0.89999988357E+02 0.  0.
         12    1    1    2    0    0 -0.61153424000E+00 -0.30730942470E+00  0.96157723123E+00  0.11802728417E+01  0.00000000000E+00 0. -1.
         11    1    3    3    0    0 -0.58342076564E+01  0.27210363126E+02  0.18627894037E+02  0.33487912400E+02  0.51100000000E-03 0. -1.
        -11    1    3    3    0    0 -0.67705443661E+01  0.74659341160E+01  0.59530798645E+01  0.11705537295E+02  0.51100000000E-03 0.  1.
        -12    1    3    3    0    0  0.13216286263E+02 -0.34368987817E+02 -0.25542551133E+02  0.44814277463E+02  0.00000000000E+00 0.  1.
</event>
<event>
 7    1  0.2084210E-015  0.9000781E+02  0.7816164E-02  0.1186339E+00
        -11   -1    0    0    0    0  0.00000000000E+00  0.00000000000E+00  0.45593999997E+02  0.45594000000E+02  0.51100000000E-03 0.  1.
         11   -1    0    0    0    0 -0.00000000000E+00 -0.00000000000E+00 -0.45593999997E+02  0.45594000000E+02  0.51100000000E-03 0. -1.
    9900012    2    1    2    0    0  0.30818056280E+00  0.24040527055E+00  0.11135839131E+01  0.90007813962E+02  0.90000076306E+02 0.  0.
         12    1    1    2    0    0 -0.30818056280E+00 -0.24040527055E+00 -0.11135839131E+01  0.11801860382E+01  0.00000000000E+00 0. -1.
         11    1    3    3    0    0 -0.52856455350E+01 -0.37355533292E+02 -0.62789225641E+01  0.38246552591E+02  0.51100000000E-03 0. -1.
        -11    1    3    3    0    0 -0.26011997190E+01  0.74029832063E+00 -0.98790477291E+01  0.10242551727E+02  0.51100000000E-03 0.  1.
        -12    1    3    3    0    0  0.81950258168E+01  0.36855640242E+02  0.17271554206E+02  0.41518709644E+02  0.00000000000E+00 0.  1.
</event>
<event>
 7    1  0.2084210E-015  0.9000789E+02  0.7816164E-02  0.1186339E+00
        -11   -1    0    0    0    0  0.00000000000E+00  0.00000000000E+00  0.45593999997E+02  0.45594000000E+02  0.51100000000E-03 0. -1.
         11   -1    0    0    0    0 -0.00000000000E+00 -0.00000000000E+00 -0.45593999997E+02  0.45594000000E+02  0.51100000000E-03 0.  1.
    9900012    2    1    2    0    0  0.60393559300E+00 -0.10073676788E+01 -0.11461972327E+00  0.90007887496E+02  0.90000150811E+02 0.  0.
         12    1    1    2    0    0 -0.60393559300E+00  0.10073676788E+01  0.11461972327E+00  0.11801125038E+01  0.00000000000E+00 0. -1.
         11    1    3    3    0    0 -0.14673889811E+01 -0.10279648680E+02 -0.12856216216E+01  0.10463136749E+02  0.51100000000E-03 0. -1.
        -11    1    3    3    0    0  0.15586666548E+02 -0.18937468090E+01 -0.35544779297E+02  0.38858226756E+02  0.51100000000E-03 0.  1.
         12    1    3    3    0    0 -0.13515341974E+02  0.11166027810E+02  0.36715781195E+02  0.40686523992E+02  0.00000000000E+00 0. -1.
</event>
<event>
 7    1  0.2084210E-015  0.9000763E+02  0.7816164E-02  0.1186339E+00
        -11   -1    0    0    0    0  0.00000000000E+00  0.00000000000E+00  0.45593999997E+02  0.45594000000E+02  0.51100000000E-03 0.  1.
         11   -1    0    0    0    0 -0.00000000000E+00 -0.00000000000E+00 -0.45593999997E+02  0.45594000000E+02  0.51100000000E-03 0. -1.
    9900012    2    1    2    0    0  0.10686586361E+01  0.39836879248E+00  0.30422797495E+00  0.90007625637E+02  0.89999885496E+02 0.  0.
         12    1    1    2    0    0 -0.10686586361E+01 -0.39836879248E+00 -0.30422797495E+00  0.11803743627E+01  0.00000000000E+00 0. -1.
         11    1    3    3    0    0  0.34136618697E+00 -0.81934419068E+01  0.10356416998E+02  0.13210011145E+02  0.51100000000E-03 0. -1.
        -11    1    3    3    0    0  0.19237228445E+02  0.26986161622E+02  0.18631966524E+02  0.38019390502E+02  0.51100000000E-03 0.  1.
         12    1    3    3    0    0 -0.18509935996E+02 -0.18394350923E+02 -0.28684155547E+02  0.38778223991E+02  0.00000000000E+00 0. -1.
</event>
<event>
 7    1  0.2084210E-015  0.9000775E+02  0.7816164E-02  0.1186339E+00
        -11   -1    0    0    0    0  0.00000000000E+00  0.00000000000E+00  0.45593999997E+02  0.45594000000E+02  0.51100000000E-03 0. -1.
         11   -1    0    0    0    0 -0.00000000000E+00 -0.00000000000E+00 -0.45593999997E+02  0.45594000000E+02  0.51100000000E-03 0.  1.
    9900012    2    1    2    0    0  0.99626410623E+00  0.55660746796E+00  0.30106283718E+00  0.90007748809E+02  0.90000010293E+02 0.  0.
         12    1    1    2    0    0 -0.99626410623E+00 -0.55660746796E+00 -0.30106283718E+00  0.11802511914E+01  0.00000000000E+00 0. -1.
         11    1    3    3    0    0  0.16417117285E+02  0.32965048508E+02  0.15452017219E+02  0.39937213216E+02  0.51100000000E-03 0. -1.
        -11    1    3    3    0    0  0.48723876499E+01  0.35914423332E+01 -0.40397574930E+01  0.72772426308E+01  0.51100000000E-03 0.  1.
        -12    1    3    3    0    0 -0.20293240829E+02 -0.35999883373E+02 -0.11111196889E+02  0.42793292962E+02  0.00000000000E+00 0.  1.
</event>
<event>
 7    1  0.2084210E-015  0.9000752E+02  0.7816164E-02  0.1186339E+00
        -11   -1    0    0    0    0  0.00000000000E+00  0.00000000000E+00  0.45593999997E+02  0.45594000000E+02  0.51100000000E-03 0.  1.
         11   -1    0    0    0    0 -0.00000000000E+00 -0.00000000000E+00 -0.45593999997E+02  0.45594000000E+02  0.51100000000E-03 0. -1.
    9900012    2    1    2    0    0 -0.62654423512E+00  0.96141712516E+00  0.27684087691E+00  0.90007524910E+02  0.89999783438E+02 0.  0.
         12    1    1    2    0    0  0.62654423512E+00 -0.96141712516E+00 -0.27684087691E+00  0.11804750901E+01  0.00000000000E+00 0. -1.
         11    1    3    3    0    0  0.22160221101E+01 -0.51368865299E+01  0.51168626315E+01  0.75815988198E+01  0.51100000000E-03 0. -1.
        -11    1    3    3    0    0  0.12987442175E+02 -0.95786046368E+01  0.34008128857E+02  0.37642743652E+02  0.51100000000E-03 0.  1.
         12    1    3    3    0    0 -0.15830008520E+02  0.15676908292E+02 -0.38848150612E+02  0.44783182438E+02  0.00000000000E+00 0. -1.
</event>
<event>
 7    1  0.2084210E-015  0.9000769E+02  0.7816164E-02  0.1186339E+00
        -11   -1    0    0    0    0  0.00000000000E+00  0.00000000000E+00  0.45593999997E+02  0.45594000000E+02  0.51100000000E-03 0.  1.
         11   -1    0    0    0    0 -0.00000000000E+00 -0.00000000000E+00 -0.45593999997E+02  0.45594000000E+02  0.51100000000E-03 0. -1.
    9900012    2    1    2    0    0 -0.33826955100E+00 -0.10553861038E+01  0.40602545713E+00  0.90007693773E+02  0.89999954531E+02 0.  0.
         12    1    1    2    0    0  0.33826955100E+00  0.10553861038E+01 -0.40602545713E+00  0.11803062269E+01  0.00000000000E+00 0. -1.
         11    1    3    3    0    0 -0.22211298454E+01 -0.38006311044E+02  0.19048371195E+02  0.42570571319E+02  0.51100000000E-03 0. -1.
        -11    1    3    3    0    0  0.92866090459E+01  0.44930216204E+01 -0.39317272550E+01  0.11040236878E+02  0.51100000000E-03 0.  1.
        -12    1    3    3    0    0 -0.74037487515E+01  0.32457903320E+02 -0.14710618483E+02  0.36396885576E+02  0.00000000000E+00 0.  1.
</event>
<event>
 7    1  0.2084210E-015  0.9000803E+02  0.7816164E-02  0.1186338E+00
        -11   -1    0    0    0    0  0.00000000000E+00  0.00000000000E+00  0.45593999997E+02  0.45594000000E+02  0.51100000000E-03 0.  1.
         11   -1    0    0    0    0 -0.00000000000E+00 -0.00000000000E+00 -0.45593999997E+02  0.45594000000E+02  0.51100000000E-03 0. -1.
    9900012    2    1    2    0    0 -0.27845812817E+00 -0.70571764723E+00  0.90373793213E+00  0.90008034502E+02  0.90000299757E+02 0.  0.
         12    1    1    2    0    0  0.27845812817E+00  0.70571764723E+00 -0.90373793213E+00  0.11799654981E+01  0.00000000000E+00 0. -1.
         11    1    3    3    0    0 -0.50285060427E+01 -0.20790421551E+02 -0.26565945747E+02  0.34106846453E+02  0.51100000000E-03 0. -1.
        -11    1    3    3    0    0  0.11396317286E+02 -0.11321543077E+02  0.54101800830E+01  0.16950617515E+02  0.51100000000E-03 0.  1.
        -12    1    3    3    0    0 -0.66462693716E+01  0.31406246981E+02  0.22059503596E+02  0.38950570534E+02  0.00000000000E+00 0.  1.
</event>
<event>
 7    1  0.2084210E-015  0.9000774E+02  0.7816164E-02  0.1186339E+00
        -11   -1    0    0    0    0  0.00000000000E+00  0.00000000000E+00  0.45593999997E+02  0.45594000000E+02  0.51100000000E-03 0. -1.
         11   -1    0    0    0    0 -0.00000000000E+00 -0.00000000000E+00 -0.45593999997E+02  0.45594000000E+02  0.51100000000E-03 0.  1.
    9900012    2    1    2    0    0 -0.57373287553E+00 -0.26804778554E-02 -0.10314253995E+01  0.90007739456E+02  0.90000000817E+02 0.  0.
         12    1    1    2    0    0  0.57373287553E+00  0.26804778554E-02  0.10314253995E+01  0.11802605442E+01  0.00000000000E+00 0. -1.
         11    1    3    3    0    0  0.53554351011E+01 -0.65378256560E+01  0.14490714262E+01  0.85745937332E+01  0.51100000000E-03 0. -1.
        -11    1    3    3    0    0  0.23816765569E+02 -0.19599280308E+02  0.19158727593E+02  0.36310149463E+02  0.51100000000E-03 0.  1.
         12    1    3    3    0    0 -0.29745933545E+02  0.26134425486E+02 -0.21639224419E+02  0.45122996260E+02  0.00000000000E+00 0. -1.
</event>
<event>
 7    1  0.2084210E-015  0.9000767E+02  0.7816164E-02  0.1186339E+00
        -11   -1    0    0    0    0  0.00000000000E+00  0.00000000000E+00  0.45593999997E+02  0.45594000000E+02  0.51100000000E-03 0. -1.
         11   -1    0    0    0    0 -0.00000000000E+00 -0.00000000000E+00 -0.45593999997E+02  0.45594000000E+02  0.51100000000E-03 0.  1.
    9900012    2    1    2    0    0 -0.29803117515E+00 -0.92931552157E+00 -0.66387057502E+00  0.90007672054E+02  0.89999932525E+02 0.  0.
         12    1    1    2    0    0  0.29803117515E+00  0.92931552157E+00  0.66387057502E+00  0.11803279461E+01  0.00000000000E+00 0. -1.
         11    1    3    3    0    0  0.56360862421E+00  0.10008828854E+02 -0.25931288844E+02  0.27801547638E+02  0.51100000000E-03 0. -1.
        -11    1    3    3    0    0 -0.26190259316E+02  0.41799480553E+01  0.67118907361E+01  0.27357834825E+02  0.51100000000E-03 0.  1.
         12    1    3    3    0    0  0.25328619517E+02 -0.15118092431E+02  0.18555527533E+02  0.34848289591E+02  0.00000000000E+00 0. -1.
</event>
<event>
 7    1  0.2084210E-015  0.9000765E+02  0.7816164E-02  0.1186339E+00
        -11   -1    0    0    0    0  0.00000000000E+00  0.00000000000E+00  0.45593999997E+02  0.45594000000E+02  0.51100000000E-03 0.  1.
         11   -1    0    0    0    0 -0.00000000000E+00 -0.00000000000E+00 -0.45593999997E+02  0.45594000000E+02  0.51100000000E-03 0. -1.
    9900012    2    1    2    0    0 -0.29244536459E+00 -0.10745916604E+01  0.39110535944E+00  0.90007646269E+02  0.89999906400E+02 0.  0.
         12    1    1    2    0    0  0.29244536459E+00  0.10745916604E+01 -0.39110535944E+00  0.11803537309E+01  0.00000000000E+00 0. -1.
         11    1    3    3    0    0  0.31374847090E+02  0.76735799621E+01 -0.16178208634E+02  0.36124773968E+02  0.51100000000E-03 0. -1.
        -11    1    3    3    0    0  0.85050227418E+01 -0.14401021825E+01  0.87922755514E+01  0.12317199997E+02  0.51100000000E-03 0.  1.
        -12    1    3    3    0    0 -0.40172315196E+02 -0.73080694401E+01  0.77770384417E+01  0.41565672304E+02  0.00000000000E+00 0.  1.
</event>
<event>
 7    1  0.2084210E-015  0.9000771E+02  0.7816164E-02  0.1186339E+00
        -11   -1    0    0    0    0  0.00000000000E+00  0.00000000000E+00  0.45593999997E+02  0.45594000000E+02  0.51100000000E-03 0.  1.
         11   -1    0    0    0    0 -0.00000000000E+00 -0.00000000000E+00 -0.45593999997E+02  0.45594000000E+02  0.51100000000E-03 0. -1.
    9900012    2    1    2    0    0  0.50258286990E+00 -0.83941236793E+00  0.66021349952E+00  0.90007709981E+02  0.89999970953E+02 0.  0.
         12    1    1    2    0    0 -0.50258286990E+00  0.83941236793E+00 -0.66021349952E+00  0.11802900192E+01  0.00000000000E+00 0. -1.
         11    1    3    3    0    0 -0.37025708116E+01  0.86350816603E+00 -0.94203511443E+01  0.10158626527E+02  0.51100000000E-03 0. -1.
        -11    1    3    3    0    0 -0.15036849396E+02 -0.35701149658E+02 -0.24686621242E+01  0.38817176863E+02  0.51100000000E-03 0.  1.
         12    1    3    3    0    0  0.19242003077E+02  0.33998229124E+02  0.12549226768E+02  0.41031906591E+02  0.00000000000E+00 0. -1.
</event>
<event>
 7    1  0.2084210E-015  0.9000760E+02  0.7816164E-02  0.1186339E+00
        -11   -1    0    0    0    0  0.00000000000E+00  0.00000000000E+00  0.45593999997E+02  0.45594000000E+02  0.51100000000E-03 0.  1.
         11   -1    0    0    0    0 -0.00000000000E+00 -0.00000000000E+00 -0.45593999997E+02  0.45594000000E+02  0.51100000000E-03 0. -1.
    9900012    2    1    2    0    0  0.43176035823E+00 -0.10908956173E+01 -0.12987392861E+00  0.90007602824E+02  0.89999862382E+02 0.  0.
         12    1    1    2    0    0 -0.43176035823E+00  0.10908956173E+01  0.12987392861E+00  0.11803971755E+01  0.00000000000E+00 0. -1.
         11    1    3    3    0    0  0.42006865797E+01 -0.27673218081E+01 -0.69778735824E+01  0.86020089353E+01  0.51100000000E-03 0. -1.
        -11    1    3    3    0    0  0.11584036022E+02 -0.34077879044E+02  0.18922633661E+02  0.40663961878E+02  0.51100000000E-03 0.  1.
         12    1    3    3    0    0 -0.15352962244E+02  0.35754305235E+02 -0.12074634007E+02  0.40741632011E+02  0.00000000000E+00 0. -1.
</event>
<event>
 7    1  0.2084210E-015  0.9000773E+02  0.7816164E-02  0.1186339E+00
        -11   -1    0    0    0    0  0.00000000000E+00  0.00000000000E+00  0.45593999997E+02  0.45594000000E+02  0.51100000000E-03 0.  1.
         11   -1    0    0    0    0 -0.00000000000E+00 -0.00000000000E+00 -0.45593999997E+02  0.45594000000E+02  0.51100000000E-03 0. -1.
    9900012    2    1    2    0    0  0.38716284717E+00 -0.47161037325E+00  0.10103139085E+01  0.90007726469E+02  0.89999987658E+02 0.  0.
         12    1    1    2    0    0 -0.38716284717E+00  0.47161037325E+00 -0.10103139085E+01  0.11802735311E+01  0.00000000000E+00 0. -1.
         11    1    3    3    0    0  0.34444953353E+01 -0.13224236106E+02  0.15432202892E+01  0.13752326997E+02  0.51100000000E-03 0. -1.
        -11    1    3    3    0    0  0.27087190147E+02 -0.18420913682E+02  0.19881365019E+01  0.32817657106E+02  0.51100000000E-03 0.  1.
         12    1    3    3    0    0 -0.30144522635E+02  0.31173539415E+02 -0.25210428826E+01  0.43437742365E+02  0.00000000000E+00 0. -1.
</event>
<event>
 7    1  0.2084210E-015  0.9000707E+02  0.7816164E-02  0.1186340E+00
        -11   -1    0    0    0    0  0.00000000000E+00  0.00000000000E+00  0.45593999997E+02  0.45594000000E+02  0.51100000000E-03 0.  1.
         11   -1    0    0    0    0 -0.00000000000E+00 -0.00000000000E+00 -0.45593999997E+02  0.45594000000E+02  0.51100000000E-03 0. -1.
    9900012    2    1    2    0    0  0.31832311493E+00  0.11071819656E+01  0.25965706832E+00  0.90007066766E+02  0.89999319245E+02 0.  0.
         12    1    1    2    0    0 -0.31832311493E+00 -0.11071819656E+01 -0.25965706832E+00  0.11809332342E+01  0.00000000000E+00 0. -1.
         11    1    3    3    0    0 -0.98473783959E+01 -0.53226293098E+01  0.70186773377E+01  0.13212232055E+02  0.51100000000E-03 0. -1.
        -11    1    3    3    0    0  0.26788150918E+02 -0.27155535074E+02  0.23926130644E+01  0.38219794771E+02  0.51100000000E-03 0.  1.
         12    1    3    3    0    0 -0.16622449407E+02  0.33585346350E+02 -0.91516333338E+01  0.38575039940E+02  0.00000000000E+00 0. -1.
</event>
<event>
 7    1  0.2084210E-015  0.9000773E+02  0.7816164E-02  0.1186339E+00
        -11   -1    0    0    0    0  0.00000000000E+00  0.00000000000E+00  0.45593999997E+02  0.45594000000E+02  0.51100000000E-03 0.  1.
         11   -1    0    0    0    0 -0.00000000000E+00 -0.00000000000E+00 -0.45593999997E+02  0.45594000000E+02  0.51100000000E-03 0. -1.
    9900012    2    1    2    0    0  0.15506489366E+00 -0.47433589475E+00  0.10695808669E+01  0.90007727619E+02  0.89999988824E+02 0.  0.
         12    1    1    2    0    0 -0.15506489366E+00  0.47433589475E+00 -0.10695808669E+01  0.11802723809E+01  0.00000000000E+00 0. -1.
         11    1    3    3    0    0 -0.54112780461E+01  0.59776174935E+00  0.64691435544E+01  0.84551208028E+01  0.51100000000E-03 0. -1.
        -11    1    3    3    0    0 -0.28603606588E+02  0.15480279901E+02  0.17781627300E+02  0.37067393291E+02  0.51100000000E-03 0.  1.
         12    1    3    3    0    0  0.34169949528E+02 -0.16552377546E+02 -0.23181189987E+02  0.44485213525E+02  0.00000000000E+00 0. -1.
</event>
<event>
 7    1  0.2084210E-015  0.9000771E+02  0.7816164E-02  0.1186339E+00
        -11   -1    0    0    0    0  0.00000000000E+00  0.00000000000E+00  0.45593999997E+02  0.45594000000E+02  0.51100000000E-03 0. -1.
         11   -1    0    0    0    0 -0.00000000000E+00 -0.00000000000E+00 -0.45593999997E+02  0.45594000000E+02  0.51100000000E-03 0.  1.
    9900012    2    1    2    0    0  0.87489466002E+00 -0.76413311319E+00 -0.20912982897E+00  0.90007713863E+02  0.89999974886E+02 0.  0.
         12    1    1    2    0    0 -0.87489466002E+00  0.76413311319E+00  0.20912982897E+00  0.11802861374E+01  0.00000000000E+00 0. -1.
         11    1    3    3    0    0 -0.48534359991E+00  0.97115568926E+01 -0.39874985669E+00  0.97318496391E+01  0.51100000000E-03 0. -1.
        -11    1    3    3    0    0 -0.90902251160E+01  0.11274797794E+02 -0.34845053423E+02  0.37735010352E+02  0.51100000000E-03 0.  1.
         12    1    3    3    0    0  0.10450463376E+02 -0.21750487800E+02  0.35034673451E+02  0.42540853871E+02  0.00000000000E+00 0. -1.
</event>
<event>
 7    1  0.2084210E-015  0.9000771E+02  0.7816164E-02  0.1186339E+00
        -11   -1    0    0    0    0  0.00000000000E+00  0.00000000000E+00  0.45593999997E+02  0.45594000000E+02  0.51100000000E-03 0. -1.
         11   -1    0    0    0    0 -0.00000000000E+00 -0.00000000000E+00 -0.45593999997E+02  0.45594000000E+02  0.51100000000E-03 0.  1.
    9900012    2    1    2    0    0 -0.87357682400E+00 -0.76548307244E+00  0.20972258790E+00  0.90007710050E+02  0.89999971023E+02 0.  0.
         12    1    1    2    0    0  0.87357682400E+00  0.76548307244E+00 -0.20972258790E+00  0.11802899498E+01  0.00000000000E+00 0. -1.
         11    1    3    3    0    0  0.39695565789E+01 -0.32705397786E+02 -0.21895482822E+02  0.39557712169E+02  0.51100000000E-03 0. -1.
        -11    1    3    3    0    0 -0.75156266738E+01 -0.43568391386E+01  0.21749654624E+01  0.89552870755E+01  0.51100000000E-03 0.  1.
        -12    1    3    3    0    0  0.26724932710E+01  0.36296753852E+02  0.19930239948E+02  0.41494710806E+02  0.00000000000E+00 0.  1.
</event>
<event>
 7    1  0.2084210E-015  0.9000901E+02  0.7816164E-02  0.1186337E+00
        -11   -1    0    0    0    0  0.00000000000E+00  0.00000000000E+00  0.45593999997E+02  0.45594000000E+02  0.51100000000E-03 0.  1.
         11   -1    0    0    0    0 -0.00000000000E+00 -0.00000000000E+00 -0.45593999997E+02  0.45594000000E+02  0.51100000000E-03 0. -1.
    9900012    2    1    2    0    0 -0.10182211526E+01  0.59425147906E+00  0.10413662363E-01  0.90009009932E+02  0.90001288054E+02 0.  0.
         12    1    1    2    0    0  0.10182211526E+01 -0.59425147906E+00 -0.10413662363E-01  0.11789900679E+01  0.00000000000E+00 0. -1.
         11    1    3    3    0    0 -0.26525812623E+02 -0.93211997078E+01 -0.15632488407E+02  0.32169522740E+02  0.51100000000E-03 0. -1.
        -11    1    3    3    0    0  0.79404048423E+01 -0.15337692569E+02 -0.80068599172E+01  0.19036928544E+02  0.51100000000E-03 0.  1.
        -12    1    3    3    0    0  0.17567186628E+02  0.25253143756E+02  0.23649761987E+02  0.38802558648E+02  0.00000000000E+00 0.  1.
</event>
<event>
 7    1  0.2084210E-015  0.9000775E+02  0.7816164E-02  0.1186339E+00
        -11   -1    0    0    0    0  0.00000000000E+00  0.00000000000E+00  0.45593999997E+02  0.45594000000E+02  0.51100000000E-03 0. -1.
         11   -1    0    0    0    0 -0.00000000000E+00 -0.00000000000E+00 -0.45593999997E+02  0.45594000000E+02  0.51100000000E-03 0.  1.
    9900012    2    1    2    0    0  0.61726267589E+00  0.80445041941E+00  0.60402412831E+00  0.90007746283E+02  0.90000007734E+02 0.  0.
         12    1    1    2    0    0 -0.61726267589E+00 -0.80445041941E+00 -0.60402412831E+00  0.11802537168E+01  0.00000000000E+00 0. -1.
         11    1    3    3    0    0 -0.69714763074E+01  0.30457722570E+02 -0.21733387046E+02  0.38060668134E+02  0.51100000000E-03 0. -1.
        -11    1    3    3    0    0 -0.52251108686E+01 -0.98685622319E+01 -0.78479324773E+01  0.13648455903E+02  0.51100000000E-03 0.  1.
        -12    1    3    3    0    0  0.12813849852E+02 -0.19784709918E+02  0.30185343652E+02  0.38298622246E+02  0.00000000000E+00 0.  1.
</event>
<event>
 7    1  0.2084210E-015  0.9000781E+02  0.7816164E-02  0.1186339E+00
        -11   -1    0    0    0    0  0.00000000000E+00  0.00000000000E+00  0.45593999997E+02  0.45594000000E+02  0.51100000000E-03 0.  1.
         11   -1    0    0    0    0 -0.00000000000E+00 -0.00000000000E+00 -0.45593999997E+02  0.45594000000E+02  0.51100000000E-03 0. -1.
    9900012    2    1    2    0    0  0.86761982332E+00  0.73022767750E+00  0.32689788692E+00  0.90007805589E+02  0.90000067823E+02 0.  0.
         12    1    1    2    0    0 -0.86761982332E+00 -0.73022767750E+00 -0.32689788692E+00  0.11801944108E+01  0.00000000000E+00 0. -1.
         11    1    3    3    0    0  0.45974498895E+01 -0.44089431532E+01  0.34672043246E+01  0.72523672897E+01  0.51100000000E-03 0. -1.
        -11    1    3    3    0    0  0.32015899689E+02  0.10526400732E+02 -0.23669628746E+02  0.41183422277E+02  0.51100000000E-03 0.  1.
         12    1    3    3    0    0 -0.35745729755E+02 -0.53872299017E+01  0.20529322308E+02  0.41572016022E+02  0.00000000000E+00 0. -1.
</event>
<event>
 7    1  0.2084210E-015  0.9000773E+02  0.7816164E-02  0.1186339E+00
        -11   -1    0    0    0    0  0.00000000000E+00  0.00000000000E+00  0.45593999997E+02  0.45594000000E+02  0.51100000000E-03 0.  1.
         11   -1    0    0    0    0 -0.00000000000E+00 -0.00000000000E+00 -0.45593999997E+02  0.45594000000E+02  0.51100000000E-03 0. -1.
    9900012    2    1    2    0    0 -0.45084706380E+00 -0.53347482909E+00  0.95141332562E+00  0.90007726394E+02  0.89999987583E+02 0.  0.
         12    1    1    2    0    0  0.45084706380E+00  0.53347482909E+00 -0.95141332562E+00  0.11802736057E+01  0.00000000000E+00 0. -1.
         11    1    3    3    0    0  0.69895809668E+01 -0.87577878291E+01  0.58289501547E+01  0.12630508696E+02  0.51100000000E-03 0. -1.
        -11    1    3    3    0    0 -0.51409043766E+01 -0.32298661815E+02 -0.14323668336E+02  0.35704340460E+02  0.51100000000E-03 0.  1.
         12    1    3    3    0    0 -0.22995236540E+01  0.40522974815E+02  0.94461315073E+01  0.41672877238E+02  0.00000000000E+00 0. -1.
</event>
<event>
 7    1  0.2084210E-015  0.9000775E+02  0.7816164E-02  0.1186339E+00
        -11   -1    0    0    0    0  0.00000000000E+00  0.00000000000E+00  0.45593999997E+02  0.45594000000E+02  0.51100000000E-03 0. -1.
         11   -1    0    0    0    0 -0.00000000000E+00 -0.00000000000E+00 -0.45593999997E+02  0.45594000000E+02  0.51100000000E-03 0.  1.
    9900012    2    1    2    0    0 -0.78941008218E+00  0.30618271447E-01 -0.87685987163E+00  0.90007750454E+02  0.90000011960E+02 0.  0.
         12    1    1    2    0    0  0.78941008218E+00 -0.30618271447E-01  0.87685987163E+00  0.11802495460E+01  0.00000000000E+00 0. -1.
         11    1    3    3    0    0 -0.84928604315E+01  0.22296263261E+00  0.22054420382E+01  0.87773780532E+01  0.51100000000E-03 0. -1.
        -11    1    3    3    0    0 -0.32236906132E+02  0.75999291763E+01  0.15412694292E+02  0.36531194698E+02  0.51100000000E-03 0.  1.
         12    1    3    3    0    0  0.39940356482E+02 -0.77922735374E+01 -0.18494996202E+02  0.44699177703E+02  0.00000000000E+00 0. -1.
</event>
<event>
 7    1  0.2084210E-015  0.9000780E+02  0.7816164E-02  0.1186339E+00
        -11   -1    0    0    0    0  0.00000000000E+00  0.00000000000E+00  0.45593999997E+02  0.45594000000E+02  0.51100000000E-03 0.  1.
         11   -1    0    0    0    0 -0.00000000000E+00 -0.00000000000E+00 -0.45593999997E+02  0.45594000000E+02  0.51100000000E-03 0. -1.
    9900012    2    1    2    0    0  0.50233747637E+00  0.10466778522E+01 -0.21213537001E+00  0.90007797102E+02  0.90000059223E+02 0.  0.
         12    1    1    2    0    0 -0.50233747637E+00 -0.10466778522E+01  0.21213537001E+00  0.11802028985E+01  0.00000000000E+00 0. -1.
         11    1    3    3    0    0 -0.43437483847E+01 -0.19514081119E+02  0.33563682218E+02  0.39066459735E+02  0.51100000000E-03 0. -1.
        -11    1    3    3    0    0 -0.44391371561E+01  0.15326012186E+02 -0.46075333068E+00  0.15962608876E+02  0.51100000000E-03 0.  1.
        -12    1    3    3    0    0  0.92852230172E+01  0.52347467848E+01 -0.33315064257E+02  0.34978728491E+02  0.00000000000E+00 0.  1.
</event>
<event>
 7    1  0.2084210E-015  0.9000759E+02  0.7816164E-02  0.1186339E+00
        -11   -1    0    0    0    0  0.00000000000E+00  0.00000000000E+00  0.45593999997E+02  0.45594000000E+02  0.51100000000E-03 0.  1.
         11   -1    0    0    0    0 -0.00000000000E+00 -0.00000000000E+00 -0.45593999997E+02  0.45594000000E+02  0.51100000000E-03 0. -1.
    9900012    2    1    2    0    0 -0.52674100023E+00 -0.47838642391E+00  0.94183339672E+00  0.90007593376E+02  0.89999852808E+02 0.  0.
         12    1    1    2    0    0  0.52674100023E+00  0.47838642391E+00 -0.94183339672E+00  0.11804066245E+01  0.00000000000E+00 0. -1.
         11    1    3    3    0    0  0.35887562847E+01  0.13454002773E+02 -0.32126377412E+01  0.14290220565E+02  0.51100000000E-03 0. -1.
        -11    1    3    3    0    0  0.11788527576E+02  0.13579884925E+02  0.29851287683E+02  0.34849419416E+02  0.51100000000E-03 0.  1.
         12    1    3    3    0    0 -0.15904024861E+02 -0.27512274121E+02 -0.25696816545E+02  0.40867953395E+02  0.00000000000E+00 0. -1.
</event>
<event>
 7    1  0.2084210E-015  0.9000792E+02  0.7816164E-02  0.1186339E+00
        -11   -1    0    0    0    0  0.00000000000E+00  0.00000000000E+00  0.45593999997E+02  0.45594000000E+02  0.51100000000E-03 0. -1.
         11   -1    0    0    0    0 -0.00000000000E+00 -0.00000000000E+00 -0.45593999997E+02  0.45594000000E+02  0.51100000000E-03 0.  1.
    9900012    2    1    2    0    0  0.25161626639E+00 -0.10351679127E+01 -0.50764011067E+00  0.90007922954E+02  0.90000186737E+02 0.  0.
         12    1    1    2    0    0 -0.25161626639E+00  0.10351679127E+01  0.50764011067E+00  0.11800770462E+01  0.00000000000E+00 0. -1.
         11    1    3    3    0    0 -0.35688240488E+01 -0.56864298839E+01  0.24339102072E+01  0.71411420006E+01  0.51100000000E-03 0. -1.
        -11    1    3    3    0    0 -0.21213782385E+02 -0.31342198280E+02  0.54217017605E+01  0.38232875989E+02  0.51100000000E-03 0.  1.
         12    1    3    3    0    0  0.25034222700E+02  0.35993460251E+02 -0.83632520783E+01  0.44633904965E+02  0.00000000000E+00 0. -1.
</event>
<event>
 7    1  0.2084210E-015  0.9000707E+02  0.7816164E-02  0.1186340E+00
        -11   -1    0    0    0    0  0.00000000000E+00  0.00000000000E+00  0.45593999997E+02  0.45594000000E+02  0.51100000000E-03 0. -1.
         11   -1    0    0    0    0 -0.00000000000E+00 -0.00000000000E+00 -0.45593999997E+02  0.45594000000E+02  0.51100000000E-03 0.  1.
    9900012    2    1    2    0    0  0.98585014175E+00 -0.43309156275E+00  0.48489799772E+00  0.90007070336E+02  0.89999322862E+02 0.  0.
         12    1    1    2    0    0 -0.98585014175E+00  0.43309156275E+00 -0.48489799772E+00  0.11809296642E+01  0.00000000000E+00 0. -1.
         11    1    3    3    0    0  0.19955001146E+02  0.28107494167E+02  0.68148485659E-01  0.34470827427E+02  0.51100000000E-03 0. -1.
        -11    1    3    3    0    0 -0.49840870881E+00  0.89836681811E+00  0.16998438028E+02  0.17029455947E+02  0.51100000000E-03 0.  1.
        -12    1    3    3    0    0 -0.18470742295E+02 -0.29438952548E+02 -0.16581688516E+02  0.38506786961E+02  0.00000000000E+00 0.  1.
</event>
<event>
 7    1  0.2084210E-015  0.9000770E+02  0.7816164E-02  0.1186339E+00
        -11   -1    0    0    0    0  0.00000000000E+00  0.00000000000E+00  0.45593999997E+02  0.45594000000E+02  0.51100000000E-03 0.  1.
         11   -1    0    0    0    0 -0.00000000000E+00 -0.00000000000E+00 -0.45593999997E+02  0.45594000000E+02  0.51100000000E-03 0. -1.
    9900012    2    1    2    0    0  0.42990220665E+00  0.10336300000E+01  0.37401815787E+00  0.90007704924E+02  0.89999965829E+02 0.  0.
         12    1    1    2    0    0 -0.42990220665E+00 -0.10336300000E+01 -0.37401815787E+00  0.11802950761E+01  0.00000000000E+00 0. -1.
         11    1    3    3    0    0  0.15325866281E+01 -0.66836190189E+01 -0.58470076409E+01  0.90114972993E+01  0.51100000000E-03 0. -1.
        -11    1    3    3    0    0  0.19187787451E+02 -0.29241588547E+02 -0.90952289848E+01  0.36138136070E+02  0.51100000000E-03 0.  1.
         12    1    3    3    0    0 -0.20290471873E+02  0.36958837566E+02  0.15316254784E+02  0.44858071555E+02  0.00000000000E+00 0. -1.
</event>
<event>
 7    1  0.2084210E-015  0.9000803E+02  0.7816164E-02  0.1186338E+00
        -11   -1    0    0    0    0  0.00000000000E+00  0.00000000000E+00  0.45593999997E+02  0.45594000000E+02  0.51100000000E-03 0.  1.
         11   -1    0    0    0    0 -0.00000000000E+00 -0.00000000000E+00 -0.45593999997E+02  0.45594000000E+02  0.51100000000E-03 0. -1.
    9900012    2    1    2    0    0  0.65187597382E+00  0.40847603488E+00  0.89472194036E+00  0.90008032921E+02  0.90000298155E+02 0.  0.
         12    1    1    2    0    0 -0.65187597382E+00 -0.40847603488E+00 -0.89472194036E+00  0.11799670787E+01  0.00000000000E+00 0. -1.
         11    1    3    3    0    0 -0.40529381080E+01  0.17112122717E+01 -0.26741887216E+02  0.27101348433E+02  0.51100000000E-03 0. -1.
        -11    1    3    3    0    0  0.26669037640E+01 -0.96297603565E+01 -0.15765867310E+02  0.18665669892E+02  0.51100000000E-03 0.  1.
        -12    1    3    3    0    0  0.20379103178E+01  0.83270241197E+01  0.43402476466E+02  0.44241014597E+02  0.00000000000E+00 0.  1.
</event>
<event>
 7    1  0.2084210E-015  0.9000775E+02  0.7816164E-02  0.1186339E+00
        -11   -1    0    0    0    0  0.00000000000E+00  0.00000000000E+00  0.45593999997E+02  0.45594000000E+02  0.51100000000E-03 0.  1.
         11   -1    0    0    0    0 -0.00000000000E+00 -0.00000000000E+00 -0.45593999997E+02  0.45594000000E+02  0.51100000000E-03 0. -1.
    9900012    2    1    2    0    0 -0.92314668318E+00 -0.37141418798E+00  0.63470063429E+00  0.90007748674E+02  0.90000010156E+02 0.  0.
         12    1    1    2    0    0  0.92314668318E+00  0.37141418798E+00 -0.63470063429E+00  0.11802513261E+01  0.00000000000E+00 0. -1.
         11    1    3    3    0    0  0.35736748729E+00  0.33114575572E+01 -0.33536830007E+02  0.33701816418E+02  0.51100000000E-03 0. -1.
        -11    1    3    3    0    0 -0.20681357051E+00 -0.14725884716E+01 -0.10983692726E+02  0.11083897997E+02  0.51100000000E-03 0.  1.
        -12    1    3    3    0    0 -0.10737006000E+01 -0.22102832736E+01  0.45155223367E+02  0.45222034259E+02  0.00000000000E+00 0.  1.
</event>
<event>
 7    1  0.2084210E-015  0.9000771E+02  0.7816164E-02  0.1186339E+00
        -11   -1    0    0    0    0  0.00000000000E+00  0.00000000000E+00  0.45593999997E+02  0.45594000000E+02  0.51100000000E-03 0. -1.
         11   -1    0    0    0    0 -0.00000000000E+00 -0.00000000000E+00 -0.45593999997E+02  0.45594000000E+02  0.51100000000E-03 0.  1.
    9900012    2    1    2    0    0 -0.25399419434E+00 -0.79385129529E-01 -0.11498982171E+01  0.90007711493E+02  0.89999972485E+02 0.  0.
         12    1    1    2    0    0  0.25399419434E+00  0.79385129529E-01  0.11498982171E+01  0.11802885068E+01  0.00000000000E+00 0. -1.
         11    1    3    3    0    0  0.22170433755E+02 -0.18175667577E+02 -0.28322960734E+02  0.40299790692E+02  0.51100000000E-03 0. -1.
        -11    1    3    3    0    0  0.71353190299E+01  0.94032934549E+00  0.68983126133E+01  0.99691380825E+01  0.51100000000E-03 0.  1.
        -12    1    3    3    0    0 -0.29559746980E+02  0.17155953102E+02  0.20274749904E+02  0.39738782719E+02  0.00000000000E+00 0.  1.
</event>
<event>
 7    1  0.2084210E-015  0.9000767E+02  0.7816164E-02  0.1186339E+00
        -11   -1    0    0    0    0  0.00000000000E+00  0.00000000000E+00  0.45593999997E+02  0.45594000000E+02  0.51100000000E-03 0.  1.
         11   -1    0    0    0    0 -0.00000000000E+00 -0.00000000000E+00 -0.45593999997E+02  0.45594000000E+02  0.51100000000E-03 0. -1.
    9900012    2    1    2    0    0 -0.17187353180E+00 -0.66795135118E+00  0.95784798757E+00  0.90007672806E+02  0.89999933287E+02 0.  0.
         12    1    1    2    0    0  0.17187353180E+00  0.66795135118E+00 -0.95784798757E+00  0.11803271944E+01  0.00000000000E+00 0. -1.
         11    1    3    3    0    0  0.10182208005E+01  0.62786772187E+01 -0.10241981898E+02  0.12056398910E+02  0.51100000000E-03 0. -1.
        -11    1    3    3    0    0 -0.38668012502E+02  0.23231658265E+00  0.21210147148E+01  0.38726836503E+02  0.51100000000E-03 0.  1.
         12    1    3    3    0    0  0.37477918170E+02 -0.71789451526E+01  0.90788151709E+01  0.39224437392E+02  0.00000000000E+00 0. -1.
</event>
<event>
 7    1  0.2084210E-015  0.9000773E+02  0.7816164E-02  0.1186339E+00
        -11   -1    0    0    0    0  0.00000000000E+00  0.00000000000E+00  0.45593999997E+02  0.45594000000E+02  0.51100000000E-03 0.  1.
         11   -1    0    0    0    0 -0.00000000000E+00 -0.00000000000E+00 -0.45593999997E+02  0.45594000000E+02  0.51100000000E-03 0. -1.
    9900012    2    1    2    0    0 -0.84170871722E+00  0.40957156538E+00  0.71890516684E+00  0.90007725849E+02  0.89999987031E+02 0.  0.
         12    1    1    2    0    0  0.84170871722E+00 -0.40957156538E+00 -0.71890516684E+00  0.11802741507E+01  0.00000000000E+00 0. -1.
         11    1    3    3    0    0  0.37082955485E+02  0.72043607110E+00 -0.98592847747E+01  0.38377989944E+02  0.51100000000E-03 0. -1.
        -11    1    3    3    0    0 -0.92975973828E+00 -0.58671480165E+01 -0.79168632969E+01  0.98977069941E+01  0.51100000000E-03 0.  1.
        -12    1    3    3    0    0 -0.36994904464E+02  0.55562835108E+01  0.18495053238E+02  0.41732028911E+02  0.00000000000E+00 0.  1.
</event>
<event>
 7    1  0.2084210E-015  0.9000773E+02  0.7816164E-02  0.1186339E+00
        -11   -1    0    0    0    0  0.00000000000E+00  0.00000000000E+00  0.45593999997E+02  0.45594000000E+02  0.51100000000E-03 0.  1.
         11   -1    0    0    0    0 -0.00000000000E+00 -0.00000000000E+00 -0.45593999997E+02  0.45594000000E+02  0.51100000000E-03 0. -1.
    9900012    2    1    2    0    0 -0.88345518847E-01  0.11619922059E+01  0.18708871186E+00  0.90007731809E+02  0.89999993069E+02 0.  0.
         12    1    1    2    0    0  0.88345518847E-01 -0.11619922059E+01 -0.18708871186E+00  0.11802681913E+01  0.00000000000E+00 0. -1.
         11    1    3    3    0    0 -0.14311951776E+02 -0.17252940387E+02  0.85020271122E+01  0.23974577805E+02  0.51100000000E-03 0. -1.
        -11    1    3    3    0    0 -0.21524049843E+02  0.56622842929E+01  0.93855252929E+01  0.24154384081E+02  0.51100000000E-03 0.  1.
         12    1    3    3    0    0  0.35747656100E+02  0.12752648300E+02 -0.17700463693E+02  0.41878769923E+02  0.00000000000E+00 0. -1.
</event>
<event>
 7    1  0.2084210E-015  0.9000777E+02  0.7816164E-02  0.1186339E+00
        -11   -1    0    0    0    0  0.00000000000E+00  0.00000000000E+00  0.45593999997E+02  0.45594000000E+02  0.51100000000E-03 0.  1.
         11   -1    0    0    0    0 -0.00000000000E+00 -0.00000000000E+00 -0.45593999997E+02  0.45594000000E+02  0.51100000000E-03 0. -1.
    9900012    2    1    2    0    0  0.45933780675E+00 -0.10188940408E+01  0.37923345866E+00  0.90007765149E+02  0.90000026849E+02 0.  0.
         12    1    1    2    0    0 -0.45933780675E+00  0.10188940408E+01 -0.37923345866E+00  0.11802348509E+01  0.00000000000E+00 0. -1.
         11    1    3    3    0    0 -0.43709530143E+01  0.64895321679E+01 -0.58229853478E+01  0.97532772253E+01  0.51100000000E-03 0. -1.
        -11    1    3    3    0    0  0.35353155583E+02 -0.89046880323E+01 -0.18574560756E+02  0.40916419518E+02  0.51100000000E-03 0.  1.
         12    1    3    3    0    0 -0.30522864762E+02  0.13962618236E+01  0.24776779563E+02  0.39338068405E+02  0.00000000000E+00 0. -1.
</event>
<event>
 7    1  0.2084210E-015  0.9000772E+02  0.7816164E-02  0.1186339E+00
        -11   -1    0    0    0    0  0.00000000000E+00  0.00000000000E+00  0.45593999997E+02  0.45594000000E+02  0.51100000000E-03 0.  1.
         11   -1    0    0    0    0 -0.00000000000E+00 -0.00000000000E+00 -0.45593999997E+02  0.45594000000E+02  0.51100000000E-03 0. -1.
    9900012    2    1    2    0    0 -0.43602743551E+00  0.67864513016E+00  0.86161344874E+00  0.90007721697E+02  0.89999982824E+02 0.  0.
         12    1    1    2    0    0  0.43602743551E+00 -0.67864513016E+00 -0.86161344874E+00  0.11802783029E+01  0.00000000000E+00 0. -1.
         11    1    3    3    0    0  0.96889077676E+01 -0.39848170432E+02  0.34204193115E+01  0.41151559983E+02  0.51100000000E-03 0. -1.
        -11    1    3    3    0    0  0.47505927141E+01  0.30863686946E+01  0.53588916763E+01  0.77981743449E+01  0.51100000000E-03 0.  1.
        -12    1    3    3    0    0 -0.14875527917E+02  0.37440446868E+02 -0.79176975391E+01  0.41057987369E+02  0.00000000000E+00 0.  1.
</event>
<event>
 7    1  0.2084210E-015  0.9000749E+02  0.7816164E-02  0.1186340E+00
        -11   -1    0    0    0    0  0.00000000000E+00  0.00000000000E+00  0.45593999997E+02  0.45594000000E+02  0.51100000000E-03 0. -1.
         11   -1    0    0    0    0 -0.00000000000E+00 -0.00000000000E+00 -0.45593999997E+02  0.45594000000E+02  0.51100000000E-03 0.  1.
    9900012    2    1    2    0    0 -0.83213636994E+00 -0.78863893775E+00 -0.28142848951E+00  0.90007489811E+02  0.89999747876E+02 0.  0.
         12    1    1    2    0    0  0.83213636994E+00  0.78863893775E+00  0.28142848951E+00  0.11805101893E+01  0.00000000000E+00 0. -1.
         11    1    3    3    0    0 -0.11250550641E+02  0.30735961828E+02  0.10519807559E+02  0.34379362859E+02  0.51100000000E-03 0. -1.
        -11    1    3    3    0    0 -0.34243878086E+01  0.10119789841E+02 -0.22561257223E+01  0.10919097115E+02  0.51100000000E-03 0.  1.
        -12    1    3    3    0    0  0.13842802080E+02 -0.41644390607E+02 -0.85451103258E+01  0.44709029836E+02  0.00000000000E+00 0.  1.
</event>
<event>
 7    1  0.2084210E-015  0.9000777E+02  0.7816164E-02  0.1186339E+00
        -11   -1    0    0    0    0  0.00000000000E+00  0.00000000000E+00  0.45593999997E+02  0.45594000000E+02  0.51100000000E-03 0.  1.
         11   -1    0    0    0    0 -0.00000000000E+00 -0.00000000000E+00 -0.45593999997E+02  0.45594000000E+02  0.51100000000E-03 0. -1.
    9900012    2    1    2    0    0 -0.15572770935E-01  0.41323303408E+00  0.11054095139E+01  0.90007773647E+02  0.90000035459E+02 0.  0.
         12    1    1    2    0    0  0.15572770935E-01 -0.41323303408E+00 -0.11054095139E+01  0.11802263534E+01  0.00000000000E+00 0. -1.
         11    1    3    3    0    0  0.78279910898E+01 -0.52393835364E+01 -0.54130015145E+01  0.10864123066E+02  0.51100000000E-03 0. -1.
        -11    1    3    3    0    0  0.29340997161E+02 -0.17250161491E+02  0.95973534260E+01  0.35363418654E+02  0.51100000000E-03 0.  1.
         12    1    3    3    0    0 -0.37184561021E+02  0.22902778061E+02 -0.30789423976E+01  0.43780231927E+02  0.00000000000E+00 0. -1.
</event>
<event>
 7    1  0.2084210E-015  0.9000771E+02  0.7816164E-02  0.1186339E+00
        -11   -1    0    0    0    0  0.00000000000E+00  0.00000000000E+00  0.45593999997E+02  0.45594000000E+02  0.51100000000E-03 0.  1.
         11   -1    0    0    0    0 -0.00000000000E+00 -0.00000000000E+00 -0.45593999997E+02  0.45594000000E+02  0.51100000000E-03 0. -1.
    9900012    2    1    2    0    0 -0.79518961693E+00 -0.77276353942E+00 -0.40447388909E+00  0.90007708027E+02  0.89999968973E+02 0.  0.
         12    1    1    2    0    0  0.79518961693E+00  0.77276353942E+00  0.40447388909E+00  0.11802919731E+01  0.00000000000E+00 0. -1.
         11    1    3    3    0    0  0.26953426789E+01 -0.10121785869E+01 -0.89345422474E+01  0.93869815745E+01  0.51100000000E-03 0. -1.
        -11    1    3    3    0    0 -0.10454294173E+02 -0.38225235629E+02 -0.33366459053E+01  0.39769260890E+02  0.51100000000E-03 0.  1.
         12    1    3    3    0    0  0.69637618776E+01  0.38464650677E+02  0.11866714264E+02  0.40851465562E+02  0.00000000000E+00 0. -1.
</event>
<event>
 7    1  0.2084210E-015  0.9000771E+02  0.7816164E-02  0.1186339E+00
        -11   -1    0    0    0    0  0.00000000000E+00  0.00000000000E+00  0.45593999997E+02  0.45594000000E+02  0.51100000000E-03 0. -1.
         11   -1    0    0    0    0 -0.00000000000E+00 -0.00000000000E+00 -0.45593999997E+02  0.45594000000E+02  0.51100000000E-03 0.  1.
    9900012    2    1    2    0    0 -0.11265824655E+00  0.11742442943E+01  0.39342536235E-01  0.90007707927E+02  0.89999968871E+02 0.  0.
         12    1    1    2    0    0  0.11265824655E+00 -0.11742442943E+01 -0.39342536235E-01  0.11802920734E+01  0.00000000000E+00 0. -1.
         11    1    3    3    0    0 -0.31898168969E+02 -0.43105035360E+01  0.19980509368E+02  0.37885279188E+02  0.51100000000E-03 0. -1.
        -11    1    3    3    0    0 -0.74059362520E+01 -0.30369714867E+01 -0.41729820527E+01  0.90268968674E+01  0.51100000000E-03 0.  1.
        -12    1    3    3    0    0  0.39191446974E+02  0.85217193170E+01 -0.15768184779E+02  0.43095531871E+02  0.00000000000E+00 0.  1.
</event>
<event>
 7    1  0.2084210E-015  0.9000774E+02  0.7816164E-02  0.1186339E+00
        -11   -1    0    0    0    0  0.00000000000E+00  0.00000000000E+00  0.45593999997E+02  0.45594000000E+02  0.51100000000E-03 0. -1.
         11   -1    0    0    0    0 -0.00000000000E+00 -0.00000000000E+00 -0.45593999997E+02  0.45594000000E+02  0.51100000000E-03 0.  1.
    9900012    2    1    2    0    0  0.55324473194E+00  0.74978534406E+00 -0.72439471653E+00  0.90007743460E+02  0.90000004873E+02 0.  0.
         12    1    1    2    0    0 -0.55324473194E+00 -0.74978534406E+00  0.72439471653E+00  0.11802565403E+01  0.00000000000E+00 0. -1.
         11    1    3    3    0    0 -0.72801109139E+01 -0.61907871509E+01  0.13861456824E+00  0.95574617303E+01  0.51100000000E-03 0. -1.
        -11    1    3    3    0    0  0.19785819571E+02 -0.32993749280E+02 -0.38203076252E+01  0.38660844511E+02  0.51100000000E-03 0.  1.
         12    1    3    3    0    0 -0.11952463926E+02  0.39934321775E+02  0.29572983405E+01  0.41789437218E+02  0.00000000000E+00 0. -1.
</event>
<event>
 7    1  0.2084210E-015  0.9000770E+02  0.7816164E-02  0.1186339E+00
        -11   -1    0    0    0    0  0.00000000000E+00  0.00000000000E+00  0.45593999997E+02  0.45594000000E+02  0.51100000000E-03 0.  1.
         11   -1    0    0    0    0 -0.00000000000E+00 -0.00000000000E+00 -0.45593999997E+02  0.45594000000E+02  0.51100000000E-03 0. -1.
    9900012    2    1    2    0    0  0.32426513382E+00 -0.84528673065E+00  0.75726727496E+00  0.90007698657E+02  0.89999959479E+02 0.  0.
         12    1    1    2    0    0 -0.32426513382E+00  0.84528673065E+00 -0.75726727496E+00  0.11803013428E+01  0.00000000000E+00 0. -1.
         11    1    3    3    0    0  0.24237221191E+01  0.18501468826E+01  0.93231757523E+01  0.98091324166E+01  0.51100000000E-03 0. -1.
        -11    1    3    3    0    0 -0.33792495807E+01  0.78068096692E+01  0.34664144836E+02  0.35692695925E+02  0.51100000000E-03 0.  1.
         12    1    3    3    0    0  0.12797925955E+01 -0.10502243282E+02 -0.43230053313E+02  0.44505870315E+02  0.00000000000E+00 0. -1.
</event>
<event>
 7    1  0.2084210E-015  0.9000757E+02  0.7816164E-02  0.1186339E+00
        -11   -1    0    0    0    0  0.00000000000E+00  0.00000000000E+00  0.45593999997E+02  0.45594000000E+02  0.51100000000E-03 0. -1.
         11   -1    0    0    0    0 -0.00000000000E+00 -0.00000000000E+00 -0.45593999997E+02  0.45594000000E+02  0.51100000000E-03 0.  1.
    9900012    2    1    2    0    0 -0.72262760261E+00  0.59481579798E-02 -0.93337118418E+00  0.90007573043E+02  0.89999832207E+02 0.  0.
         12    1    1    2    0    0  0.72262760261E+00 -0.59481579798E-02  0.93337118418E+00  0.11804269567E+01  0.00000000000E+00 0. -1.
         11    1    3    3    0    0 -0.35009946827E+01  0.23675595794E+02  0.34081284262E+02  0.41645224662E+02  0.51100000000E-03 0. -1.
        -11    1    3    3    0    0  0.71448324039E+01 -0.68562029279E+01 -0.73141131249E+00  0.99293056876E+01  0.51100000000E-03 0.  1.
        -12    1    3    3    0    0 -0.43664653239E+01 -0.16813444708E+02 -0.34283244133E+02  0.38433042694E+02  0.00000000000E+00 0.  1.
</event>
<event>
 7    1  0.2643805E-015  0.9000806E+02  0.7816164E-02  0.1186338E+00
        -11   -1    0    0    0    0  0.00000000000E+00  0.00000000000E+00  0.45593999997E+02  0.45594000000E+02  0.51100000000E-03 0. -1.
         11   -1    0    0    0    0 -0.00000000000E+00 -0.00000000000E+00 -0.45593999997E+02  0.45594000000E+02  0.51100000000E-03 0.  1.
    9900012    2    1    2    0    0  0.35103615460E+00 -0.62226311624E+00 -0.93905084357E+00  0.90008061758E+02  0.90000327373E+02 0.  0.
         12    1    1    2    0    0 -0.35103615460E+00  0.62226311624E+00  0.93905084357E+00  0.11799382418E+01  0.00000000000E+00 0. -1.
         11    1    3    3    0    0 -0.21017647462E+01 -0.24143725971E+02  0.31953222813E+02  0.40104181418E+02  0.51100000000E-03 0. -1.
        -11    1    3    3    0    0 -0.92093250194E+01 -0.59748262270E-01 -0.21785979121E+01  0.94636951711E+01  0.51100000000E-03 0.  1.
        -12    1    3    3    0    0  0.11662125920E+02  0.23581211117E+02 -0.30713675745E+02  0.40440185169E+02  0.00000000000E+00 0.  1.
</event>
<event>
 7    1  0.2084210E-015  0.9000751E+02  0.7816164E-02  0.1186340E+00
        -11   -1    0    0    0    0  0.00000000000E+00  0.00000000000E+00  0.45593999997E+02  0.45594000000E+02  0.51100000000E-03 0.  1.
         11   -1    0    0    0    0 -0.00000000000E+00 -0.00000000000E+00 -0.45593999997E+02  0.45594000000E+02  0.51100000000E-03 0. -1.
    9900012    2    1    2    0    0 -0.70538150616E+00 -0.88526594528E+00 -0.33511260062E+00  0.90007508866E+02  0.89999767182E+02 0.  0.
         12    1    1    2    0    0  0.70538150616E+00  0.88526594528E+00  0.33511260062E+00  0.11804911343E+01  0.00000000000E+00 0. -1.
         11    1    3    3    0    0  0.86163740695E+01 -0.56149388845E+01  0.28132592789E+01  0.10662263775E+02  0.51100000000E-03 0. -1.
        -11    1    3    3    0    0  0.22438405251E+02  0.27157679225E+02  0.12575269570E+02  0.37405333525E+02  0.51100000000E-03 0.  1.
         12    1    3    3    0    0 -0.31760160827E+02 -0.22428006285E+02 -0.15723641449E+02  0.41939911566E+02  0.00000000000E+00 0. -1.
</event>
<event>
 7    1  0.2084210E-015  0.9000781E+02  0.7816164E-02  0.1186339E+00
        -11   -1    0    0    0    0  0.00000000000E+00  0.00000000000E+00  0.45593999997E+02  0.45594000000E+02  0.51100000000E-03 0. -1.
         11   -1    0    0    0    0 -0.00000000000E+00 -0.00000000000E+00 -0.45593999997E+02  0.45594000000E+02  0.51100000000E-03 0.  1.
    9900012    2    1    2    0    0  0.72216827176E+00  0.40890667067E+00 -0.83911755789E+00  0.90007809357E+02  0.90000071640E+02 0.  0.
         12    1    1    2    0    0 -0.72216827176E+00 -0.40890667067E+00  0.83911755789E+00  0.11801906431E+01  0.00000000000E+00 0. -1.
         11    1    3    3    0    0 -0.51342451271E+00  0.24734955684E+01 -0.10799236009E+02  0.11090774711E+02  0.51100000000E-03 0. -1.
        -11    1    3    3    0    0  0.24395886835E+02 -0.29876356505E+02 -0.65723624051E+01  0.39127380699E+02  0.51100000000E-03 0.  1.
         12    1    3    3    0    0 -0.23160294051E+02  0.27811767608E+02  0.16532480856E+02  0.39789653947E+02  0.00000000000E+00 0. -1.
</event>
<event>
 7    1  0.2084210E-015  0.9000773E+02  0.7816164E-02  0.1186339E+00
        -11   -1    0    0    0    0  0.00000000000E+00  0.00000000000E+00  0.45593999997E+02  0.45594000000E+02  0.51100000000E-03 0.  1.
         11   -1    0    0    0    0 -0.00000000000E+00 -0.00000000000E+00 -0.45593999997E+02  0.45594000000E+02  0.51100000000E-03 0. -1.
    9900012    2    1    2    0    0  0.89893345414E+00  0.17357904231E+00 -0.74485925698E+00  0.90007734627E+02  0.89999995924E+02 0.  0.
         12    1    1    2    0    0 -0.89893345414E+00 -0.17357904231E+00  0.74485925698E+00  0.11802653734E+01  0.00000000000E+00 0. -1.
         11    1    3    3    0    0  0.10125363197E+02 -0.64753158677E+00  0.37337086823E+01  0.10811237571E+02  0.51100000000E-03 0. -1.
        -11    1    3    3    0    0  0.28858005990E+02 -0.44311499212E+01  0.18350630410E+02  0.34484275200E+02  0.51100000000E-03 0.  1.
         12    1    3    3    0    0 -0.38084435733E+02  0.52522605503E+01 -0.22829198350E+02  0.44712221856E+02  0.00000000000E+00 0. -1.
</event>
<event>
 7    1  0.2084210E-015  0.9000808E+02  0.7816164E-02  0.1186338E+00
        -11   -1    0    0    0    0  0.00000000000E+00  0.00000000000E+00  0.45593999997E+02  0.45594000000E+02  0.51100000000E-03 0. -1.
         11   -1    0    0    0    0 -0.00000000000E+00 -0.00000000000E+00 -0.45593999997E+02  0.45594000000E+02  0.51100000000E-03 0.  1.
    9900012    2    1    2    0    0  0.94385636072E+00 -0.36097843904E-02 -0.70805683494E+00  0.90008075281E+02  0.90000341074E+02 0.  0.
         12    1    1    2    0    0 -0.94385636072E+00  0.36097843904E-02  0.70805683494E+00  0.11799247187E+01  0.00000000000E+00 0. -1.
         11    1    3    3    0    0  0.10892285714E+02 -0.12335285626E+02  0.12692269611E+02  0.20782080446E+02  0.51100000000E-03 0. -1.
        -11    1    3    3    0    0  0.24362847359E+02  0.21355551260E+02 -0.51965446079E+01  0.32811765835E+02  0.51100000000E-03 0.  1.
         12    1    3    3    0    0 -0.34311276713E+02 -0.90238754189E+01 -0.82037818378E+01  0.36414229000E+02  0.00000000000E+00 0. -1.
</event>
<event>
 7    1  0.2084210E-015  0.9000740E+02  0.7816164E-02  0.1186340E+00
        -11   -1    0    0    0    0  0.00000000000E+00  0.00000000000E+00  0.45593999997E+02  0.45594000000E+02  0.51100000000E-03 0. -1.
         11   -1    0    0    0    0 -0.00000000000E+00 -0.00000000000E+00 -0.45593999997E+02  0.45594000000E+02  0.51100000000E-03 0.  1.
    9900012    2    1    2    0    0 -0.92588370954E-01 -0.10610369863E+01 -0.50936136677E+00  0.90007397995E+02  0.89999654848E+02 0.  0.
         12    1    1    2    0    0  0.92588370954E-01  0.10610369863E+01  0.50936136677E+00  0.11806020052E+01  0.00000000000E+00 0. -1.
         11    1    3    3    0    0  0.22728174576E+02  0.32750378947E+02  0.48535427226E+00  0.39867189639E+02  0.51100000000E-03 0. -1.
        -11    1    3    3    0    0  0.57111994187E+01 -0.89375935861E+01 -0.56253196959E+01  0.12005940190E+02  0.51100000000E-03 0.  1.
        -12    1    3    3    0    0 -0.28531962365E+02 -0.24873822347E+02  0.46306040568E+01  0.38134268165E+02  0.00000000000E+00 0.  1.
</event>
<event>
 7    1  0.2084210E-015  0.9000687E+02  0.7816164E-02  0.1186341E+00
        -11   -1    0    0    0    0  0.00000000000E+00  0.00000000000E+00  0.45593999997E+02  0.45594000000E+02  0.51100000000E-03 0. -1.
         11   -1    0    0    0    0 -0.00000000000E+00 -0.00000000000E+00 -0.45593999997E+02  0.45594000000E+02  0.51100000000E-03 0.  1.
    9900012    2    1    2    0    0 -0.45922765239E+00 -0.67651883730E-01 -0.10860971697E+01  0.90006867545E+02  0.89999117392E+02 0.  0.
         12    1    1    2    0    0  0.45922765239E+00  0.67651883730E-01  0.10860971697E+01  0.11811324549E+01  0.00000000000E+00 0. -1.
         11    1    3    3    0    0  0.11453506818E+02 -0.87522313443E+01  0.49938305590E+01  0.15255252074E+02  0.51100000000E-03 0. -1.
        -11    1    3    3    0    0  0.28922047297E+02 -0.47662380061E+01  0.63616282795E+01  0.29994535489E+02  0.51100000000E-03 0.  1.
         12    1    3    3    0    0 -0.40834781768E+02  0.13450817467E+02 -0.12441556008E+02  0.44757079981E+02  0.00000000000E+00 0. -1.
</event>
<event>
 7    1  0.2084210E-015  0.9000761E+02  0.7816164E-02  0.1186339E+00
        -11   -1    0    0    0    0  0.00000000000E+00  0.00000000000E+00  0.45593999997E+02  0.45594000000E+02  0.51100000000E-03 0.  1.
         11   -1    0    0    0    0 -0.00000000000E+00 -0.00000000000E+00 -0.45593999997E+02  0.45594000000E+02  0.51100000000E-03 0. -1.
    9900012    2    1    2    0    0 -0.24959266053E+00  0.10931774759E+01  0.36876511222E+00  0.90007609726E+02  0.89999869375E+02 0.  0.
         12    1    1    2    0    0  0.24959266053E+00 -0.10931774759E+01 -0.36876511222E+00  0.11803902736E+01  0.00000000000E+00 0. -1.
         11    1    3    3    0    0 -0.82461417250E+01 -0.34538762930E+01 -0.30323646327E+01  0.94405164225E+01  0.51100000000E-03 0. -1.
        -11    1    3    3    0    0 -0.21731746123E+01  0.31392741657E+02 -0.24996080378E+02  0.40187447681E+02  0.51100000000E-03 0.  1.
         12    1    3    3    0    0  0.10169723677E+02 -0.26845687888E+02  0.28397210123E+02  0.40379645623E+02  0.00000000000E+00 0. -1.
</event>
<event>
 7    1  0.2084210E-015  0.9000757E+02  0.7816164E-02  0.1186339E+00
        -11   -1    0    0    0    0  0.00000000000E+00  0.00000000000E+00  0.45593999997E+02  0.45594000000E+02  0.51100000000E-03 0.  1.
         11   -1    0    0    0    0 -0.00000000000E+00 -0.00000000000E+00 -0.45593999997E+02  0.45594000000E+02  0.51100000000E-03 0. -1.
    9900012    2    1    2    0    0 -0.65943786937E+00  0.67419914043E+00  0.70993038615E+00  0.90007574679E+02  0.89999833865E+02 0.  0.
         12    1    1    2    0    0  0.65943786937E+00 -0.67419914043E+00 -0.70993038615E+00  0.11804253207E+01  0.00000000000E+00 0. -1.
         11    1    3    3    0    0  0.52974857049E+01 -0.36515695735E+00  0.85862462957E+01  0.10095559425E+02  0.51100000000E-03 0. -1.
        -11    1    3    3    0    0 -0.92751954709E+01  0.39500868209E+02 -0.32773261898E+00  0.40576535698E+02  0.51100000000E-03 0.  1.
         12    1    3    3    0    0  0.33182718967E+01 -0.38461512111E+02 -0.75485832906E+01  0.39335479557E+02  0.00000000000E+00 0. -1.
</event>
<event>
 7    1  0.2084210E-015  0.9000766E+02  0.7816164E-02  0.1186339E+00
        -11   -1    0    0    0    0  0.00000000000E+00  0.00000000000E+00  0.45593999997E+02  0.45594000000E+02  0.51100000000E-03 0.  1.
         11   -1    0    0    0    0 -0.00000000000E+00 -0.00000000000E+00 -0.45593999997E+02  0.45594000000E+02  0.51100000000E-03 0. -1.
    9900012    2    1    2    0    0 -0.21150747312E+00 -0.39669842394E-01  0.11605582668E+01  0.90007659118E+02  0.89999919418E+02 0.  0.
         12    1    1    2    0    0  0.21150747312E+00  0.39669842394E-01 -0.11605582668E+01  0.11803408822E+01  0.00000000000E+00 0. -1.
         11    1    3    3    0    0  0.20580975282E+02 -0.96170127738E+01 -0.32063994150E+02  0.39295842011E+02  0.51100000000E-03 0. -1.
        -11    1    3    3    0    0  0.72363347894E+01 -0.26592125431E+01  0.73424936648E+01  0.10646509569E+02  0.51100000000E-03 0.  1.
        -12    1    3    3    0    0 -0.28028817545E+02  0.12236555474E+02  0.25882058752E+02  0.40065307537E+02  0.00000000000E+00 0.  1.
</event>
<event>
 7    1  0.2084210E-015  0.9000777E+02  0.7816164E-02  0.1186339E+00
        -11   -1    0    0    0    0  0.00000000000E+00  0.00000000000E+00  0.45593999997E+02  0.45594000000E+02  0.51100000000E-03 0.  1.
         11   -1    0    0    0    0 -0.00000000000E+00 -0.00000000000E+00 -0.45593999997E+02  0.45594000000E+02  0.51100000000E-03 0. -1.
    9900012    2    1    2    0    0 -0.39523324984E+00 -0.10981363602E+01  0.17559452759E+00  0.90007768571E+02  0.90000030316E+02 0.  0.
         12    1    1    2    0    0  0.39523324984E+00  0.10981363602E+01 -0.17559452759E+00  0.11802314287E+01  0.00000000000E+00 0. -1.
         11    1    3    3    0    0  0.17379665254E+02 -0.11588661270E+02 -0.29240024381E+02  0.35935064497E+02  0.51100000000E-03 0. -1.
        -11    1    3    3    0    0  0.54247591273E+01 -0.81146644865E+01 -0.28738880277E+01  0.10175216164E+02  0.51100000000E-03 0.  1.
        -12    1    3    3    0    0 -0.23199657631E+02  0.18605189396E+02  0.32289506936E+02  0.43897487910E+02  0.00000000000E+00 0.  1.
</event>
<event>
 7    1  0.2084210E-015  0.9000765E+02  0.7816164E-02  0.1186339E+00
        -11   -1    0    0    0    0  0.00000000000E+00  0.00000000000E+00  0.45593999997E+02  0.45594000000E+02  0.51100000000E-03 0.  1.
         11   -1    0    0    0    0 -0.00000000000E+00 -0.00000000000E+00 -0.45593999997E+02  0.45594000000E+02  0.51100000000E-03 0. -1.
    9900012    2    1    2    0    0  0.60891042534E+00 -0.93958746060E+00  0.37368141685E+00  0.90007646535E+02  0.89999906669E+02 0.  0.
         12    1    1    2    0    0 -0.60891042534E+00  0.93958746060E+00 -0.37368141685E+00  0.11803534655E+01  0.00000000000E+00 0. -1.
         11    1    3    3    0    0 -0.22171352696E+02  0.16643897196E+02  0.25349206176E+02  0.37565548688E+02  0.51100000000E-03 0. -1.
        -11    1    3    3    0    0  0.13260779231E+02  0.10007352266E+02 -0.61720544751E+01  0.17722573794E+02  0.51100000000E-03 0.  1.
        -12    1    3    3    0    0  0.95194838900E+01 -0.27590836923E+02 -0.18803470284E+02  0.34719524052E+02  0.00000000000E+00 0.  1.
</event>
<event>
 7    1  0.2084210E-015  0.9000771E+02  0.7816164E-02  0.1186339E+00
        -11   -1    0    0    0    0  0.00000000000E+00  0.00000000000E+00  0.45593999997E+02  0.45594000000E+02  0.51100000000E-03 0. -1.
         11   -1    0    0    0    0 -0.00000000000E+00 -0.00000000000E+00 -0.45593999997E+02  0.45594000000E+02  0.51100000000E-03 0.  1.
    9900012    2    1    2    0    0  0.40674035474E+00 -0.51089874757E+00 -0.98317539704E+00  0.90007708041E+02  0.89999968987E+02 0.  0.
         12    1    1    2    0    0 -0.40674035474E+00  0.51089874757E+00  0.98317539704E+00  0.11802919587E+01  0.00000000000E+00 0. -1.
         11    1    3    3    0    0  0.61123311560E+01 -0.75037043080E+01  0.19536134666E+01  0.98733366366E+01  0.51100000000E-03 0. -1.
        -11    1    3    3    0    0  0.17923870483E+02 -0.29444296789E+02  0.79215536308E+01  0.35369234636E+02  0.51100000000E-03 0.  1.
         12    1    3    3    0    0 -0.23629461285E+02  0.36437102350E+02 -0.10858342494E+02  0.44765136769E+02  0.00000000000E+00 0. -1.
</event>
<event>
 7    1  0.2084210E-015  0.9000776E+02  0.7816164E-02  0.1186339E+00
        -11   -1    0    0    0    0  0.00000000000E+00  0.00000000000E+00  0.45593999997E+02  0.45594000000E+02  0.51100000000E-03 0.  1.
         11   -1    0    0    0    0 -0.00000000000E+00 -0.00000000000E+00 -0.45593999997E+02  0.45594000000E+02  0.51100000000E-03 0. -1.
    9900012    2    1    2    0    0 -0.13555620602E+00  0.88452802292E+00  0.76953933584E+00  0.90007764389E+02  0.90000026079E+02 0.  0.
         12    1    1    2    0    0  0.13555620602E+00 -0.88452802292E+00 -0.76953933584E+00  0.11802356111E+01  0.00000000000E+00 0. -1.
         11    1    3    3    0    0  0.63185391625E-02 -0.34937393487E+01  0.69884895757E+01  0.78131454212E+01  0.51100000000E-03 0. -1.
        -11    1    3    3    0    0 -0.68207462517E+01 -0.89526785793E+01  0.35842761464E+02  0.37568292253E+02  0.51100000000E-03 0.  1.
         12    1    3    3    0    0  0.66788715065E+01  0.13330945951E+02 -0.42061711704E+02  0.44626326715E+02  0.00000000000E+00 0. -1.
</event>
<event>
 7    1  0.2084210E-015  0.9000776E+02  0.7816164E-02  0.1186339E+00
        -11   -1    0    0    0    0  0.00000000000E+00  0.00000000000E+00  0.45593999997E+02  0.45594000000E+02  0.51100000000E-03 0. -1.
         11   -1    0    0    0    0 -0.00000000000E+00 -0.00000000000E+00 -0.45593999997E+02  0.45594000000E+02  0.51100000000E-03 0.  1.
    9900012    2    1    2    0    0  0.88915342495E+00 -0.63014458318E+00 -0.45308227738E+00  0.90007762923E+02  0.90000024593E+02 0.  0.
         12    1    1    2    0    0 -0.88915342495E+00  0.63014458318E+00  0.45308227738E+00  0.11802370774E+01  0.00000000000E+00 0. -1.
         11    1    3    3    0    0  0.11438206417E+02 -0.62904772216E+01  0.81080472267E+01  0.15366948292E+02  0.51100000000E-03 0. -1.
        -11    1    3    3    0    0 -0.21706213389E+02 -0.29739956255E+02 -0.70870299837E+01  0.37494675515E+02  0.51100000000E-03 0.  1.
         12    1    3    3    0    0  0.11157160397E+02  0.35400288893E+02 -0.14740995204E+01  0.37146139116E+02  0.00000000000E+00 0. -1.
</event>
<event>
 7    1  0.2084210E-015  0.9000758E+02  0.7816164E-02  0.1186339E+00
        -11   -1    0    0    0    0  0.00000000000E+00  0.00000000000E+00  0.45593999997E+02  0.45594000000E+02  0.51100000000E-03 0. -1.
         11   -1    0    0    0    0 -0.00000000000E+00 -0.00000000000E+00 -0.45593999997E+02  0.45594000000E+02  0.51100000000E-03 0.  1.
    9900012    2    1    2    0    0  0.47069452583E+00  0.10735532557E+01  0.13901858091E+00  0.90007578001E+02  0.89999837231E+02 0.  0.
         12    1    1    2    0    0 -0.47069452583E+00 -0.10735532557E+01 -0.13901858091E+00  0.11804219989E+01  0.00000000000E+00 0. -1.
         11    1    3    3    0    0 -0.12665290009E+01 -0.64313477448E+00 -0.10245647243E+02  0.10343645670E+02  0.51100000000E-03 0. -1.
        -11    1    3    3    0    0 -0.24571819316E+02  0.12661064371E+01 -0.25323531146E+02  0.35308052339E+02  0.51100000000E-03 0.  1.
         12    1    3    3    0    0  0.26309042843E+02  0.45058159309E+00  0.35708196970E+02  0.44355879993E+02  0.00000000000E+00 0. -1.
</event>
<event>
 7    1  0.2084210E-015  0.9000775E+02  0.7816164E-02  0.1186339E+00
        -11   -1    0    0    0    0  0.00000000000E+00  0.00000000000E+00  0.45593999997E+02  0.45594000000E+02  0.51100000000E-03 0.  1.
         11   -1    0    0    0    0 -0.00000000000E+00 -0.00000000000E+00 -0.45593999997E+02  0.45594000000E+02  0.51100000000E-03 0. -1.
    9900012    2    1    2    0    0 -0.66657080525E+00 -0.96804224772E+00  0.10752361838E+00  0.90007752670E+02  0.90000014205E+02 0.  0.
         12    1    1    2    0    0  0.66657080525E+00  0.96804224772E+00 -0.10752361838E+00  0.11802473301E+01  0.00000000000E+00 0. -1.
         11    1    3    3    0    0  0.42286453109E+01 -0.58596591737E+01 -0.68531257240E+01  0.99590350560E+01  0.51100000000E-03 0. -1.
        -11    1    3    3    0    0  0.28151498791E+02  0.26544427235E+02 -0.43929525147E+01  0.38941129073E+02  0.51100000000E-03 0.  1.
         12    1    3    3    0    0 -0.33046714908E+02 -0.21652810309E+02  0.11353601857E+02  0.41107588540E+02  0.00000000000E+00 0. -1.
</event>
<event>
 7    1  0.2084210E-015  0.9000777E+02  0.7816164E-02  0.1186339E+00
        -11   -1    0    0    0    0  0.00000000000E+00  0.00000000000E+00  0.45593999997E+02  0.45594000000E+02  0.51100000000E-03 0. -1.
         11   -1    0    0    0    0 -0.00000000000E+00 -0.00000000000E+00 -0.45593999997E+02  0.45594000000E+02  0.51100000000E-03 0.  1.
    9900012    2    1    2    0    0  0.14654763565E-01  0.10857524108E+01 -0.46246963701E+00  0.90007766453E+02  0.90000028170E+02 0.  0.
         12    1    1    2    0    0 -0.14654763565E-01 -0.10857524108E+01  0.46246963701E+00  0.11802335467E+01  0.00000000000E+00 0. -1.
         11    1    3    3    0    0  0.82600084361E+01 -0.39481710717E+01  0.86328288024E+01  0.12583382994E+02  0.51100000000E-03 0. -1.
        -11    1    3    3    0    0  0.12811718682E+02 -0.31531965697E+02 -0.90920631100E+01  0.35228832058E+02  0.51100000000E-03 0.  1.
         12    1    3    3    0    0 -0.21057072354E+02  0.36565889180E+02 -0.32353293856E-02  0.42195551402E+02  0.00000000000E+00 0. -1.
</event>
<event>
 7    1  0.2084210E-015  0.9000780E+02  0.7816164E-02  0.1186339E+00
        -11   -1    0    0    0    0  0.00000000000E+00  0.00000000000E+00  0.45593999997E+02  0.45594000000E+02  0.51100000000E-03 0. -1.
         11   -1    0    0    0    0 -0.00000000000E+00 -0.00000000000E+00 -0.45593999997E+02  0.45594000000E+02  0.51100000000E-03 0.  1.
    9900012    2    1    2    0    0 -0.35667348536E+00 -0.11135027137E+01 -0.16053999755E+00  0.90007797746E+02  0.90000059877E+02 0.  0.
         12    1    1    2    0    0  0.35667348536E+00  0.11135027137E+01  0.16053999755E+00  0.11802022536E+01  0.00000000000E+00 0. -1.
         11    1    3    3    0    0  0.91986036215E-01  0.88802833383E+01 -0.20359430513E+01  0.91111447123E+01  0.51100000000E-03 0. -1.
        -11    1    3    3    0    0 -0.64556974455E+01  0.28393820913E+02  0.22600443653E+02  0.36860075273E+02  0.51100000000E-03 0.  1.
         12    1    3    3    0    0  0.60070379240E+01 -0.38387606965E+02 -0.20725040599E+02  0.44036577761E+02  0.00000000000E+00 0. -1.
</event>
<event>
 7    1  0.2084210E-015  0.9000778E+02  0.7816164E-02  0.1186339E+00
        -11   -1    0    0    0    0  0.00000000000E+00  0.00000000000E+00  0.45593999997E+02  0.45594000000E+02  0.51100000000E-03 0.  1.
         11   -1    0    0    0    0 -0.00000000000E+00 -0.00000000000E+00 -0.45593999997E+02  0.45594000000E+02  0.51100000000E-03 0. -1.
    9900012    2    1    2    0    0 -0.10125067673E+01 -0.60294608431E+00  0.64862665899E-01  0.90007779216E+02  0.90000041101E+02 0.  0.
         12    1    1    2    0    0  0.10125067673E+01  0.60294608431E+00 -0.64862665899E-01  0.11802207843E+01  0.00000000000E+00 0. -1.
         11    1    3    3    0    0 -0.23503672943E+02 -0.33308854419E+02 -0.28282169331E+01  0.40864425064E+02  0.51100000000E-03 0. -1.
        -11    1    3    3    0    0 -0.29306625393E+01  0.23859870019E+01  0.83845313804E+01  0.91968518322E+01  0.51100000000E-03 0.  1.
        -12    1    3    3    0    0  0.25421828715E+02  0.30319921333E+02 -0.54914517814E+01  0.39946502319E+02  0.00000000000E+00 0.  1.
</event>
<event>
 7    1  0.2084210E-015  0.9000750E+02  0.7816164E-02  0.1186340E+00
        -11   -1    0    0    0    0  0.00000000000E+00  0.00000000000E+00  0.45593999997E+02  0.45594000000E+02  0.51100000000E-03 0.  1.
         11   -1    0    0    0    0 -0.00000000000E+00 -0.00000000000E+00 -0.45593999997E+02  0.45594000000E+02  0.51100000000E-03 0. -1.
    9900012    2    1    2    0    0 -0.10025336787E+01 -0.82947357426E-01  0.61776341458E+00  0.90007497701E+02  0.89999755871E+02 0.  0.
         12    1    1    2    0    0  0.10025336787E+01  0.82947357426E-01 -0.61776341458E+00  0.11805022988E+01  0.00000000000E+00 0. -1.
         11    1    3    3    0    0  0.12027940180E+02 -0.29758224714E+02 -0.18563552412E+02  0.37078683385E+02  0.51100000000E-03 0. -1.
        -11    1    3    3    0    0  0.85310104795E+01  0.11018271943E+01 -0.47922015348E+01  0.98466927838E+01  0.51100000000E-03 0.  1.
        -12    1    3    3    0    0 -0.21561484338E+02  0.28573450163E+02  0.23973517361E+02  0.43082121533E+02  0.00000000000E+00 0.  1.
</event>
<event>
 7    1  0.2084210E-015  0.9000775E+02  0.7816164E-02  0.1186339E+00
        -11   -1    0    0    0    0  0.00000000000E+00  0.00000000000E+00  0.45593999997E+02  0.45594000000E+02  0.51100000000E-03 0.  1.
         11   -1    0    0    0    0 -0.00000000000E+00 -0.00000000000E+00 -0.45593999997E+02  0.45594000000E+02  0.51100000000E-03 0. -1.
    9900012    2    1    2    0    0 -0.99763165610E+00  0.58624062217E+00  0.23246975678E+00  0.90007750375E+02  0.90000011880E+02 0.  0.
         12    1    1    2    0    0  0.99763165610E+00 -0.58624062217E+00 -0.23246975678E+00  0.11802496245E+01  0.00000000000E+00 0. -1.
         11    1    3    3    0    0  0.70293219392E+01  0.54539600584E+01 -0.51849545207E+01  0.10297611417E+02  0.51100000000E-03 0. -1.
        -11    1    3    3    0    0 -0.40909344280E+02 -0.16579849529E+02 -0.13143067431E+01  0.44160992542E+02  0.51100000000E-03 0.  1.
         12    1    3    3    0    0  0.32882390685E+02  0.11712130093E+02  0.67317310206E+01  0.35549146417E+02  0.00000000000E+00 0. -1.
</event>
<event>
 7    1  0.2084210E-015  0.9000775E+02  0.7816164E-02  0.1186339E+00
        -11   -1    0    0    0    0  0.00000000000E+00  0.00000000000E+00  0.45593999997E+02  0.45594000000E+02  0.51100000000E-03 0.  1.
         11   -1    0    0    0    0 -0.00000000000E+00 -0.00000000000E+00 -0.45593999997E+02  0.45594000000E+02  0.51100000000E-03 0. -1.
    9900012    2    1    2    0    0 -0.71743724586E+00 -0.79713777075E+00  0.49280061236E+00  0.90007746946E+02  0.90000008406E+02 0.  0.
         12    1    1    2    0    0  0.71743724586E+00  0.79713777075E+00 -0.49280061236E+00  0.11802530537E+01  0.00000000000E+00 0. -1.
         11    1    3    3    0    0 -0.82366169003E+01  0.59438672154E+01  0.37793801205E+01  0.10837671788E+02  0.51100000000E-03 0. -1.
        -11    1    3    3    0    0 -0.25313292749E+02 -0.11262536795E+02  0.23677158106E+02  0.36444688792E+02  0.51100000000E-03 0.  1.
         12    1    3    3    0    0  0.32832472404E+02  0.45215318090E+01 -0.26963737614E+02  0.42725386366E+02  0.00000000000E+00 0. -1.
</event>
<event>
 7    1  0.2084210E-015  0.9000771E+02  0.7816164E-02  0.1186339E+00
        -11   -1    0    0    0    0  0.00000000000E+00  0.00000000000E+00  0.45593999997E+02  0.45594000000E+02  0.51100000000E-03 0. -1.
         11   -1    0    0    0    0 -0.00000000000E+00 -0.00000000000E+00 -0.45593999997E+02  0.45594000000E+02  0.51100000000E-03 0.  1.
    9900012    2    1    2    0    0 -0.54960715407E+00  0.49764137995E+00 -0.91834844436E+00  0.90007712394E+02  0.89999973398E+02 0.  0.
         12    1    1    2    0    0  0.54960715407E+00 -0.49764137995E+00  0.91834844436E+00  0.11802876057E+01  0.00000000000E+00 0. -1.
         11    1    3    3    0    0 -0.30970703556E+02 -0.25415531969E+01  0.24434369416E+02  0.39530777635E+02  0.51100000000E-03 0. -1.
        -11    1    3    3    0    0 -0.84252535638E+00  0.11275850985E+02 -0.70558494486E+01  0.13328153515E+02  0.51100000000E-03 0.  1.
        -12    1    3    3    0    0  0.31263621758E+02 -0.82366564084E+01 -0.18296868412E+02  0.37148781244E+02  0.00000000000E+00 0.  1.
</event>
<event>
 7    1  0.2084210E-015  0.9000788E+02  0.7816164E-02  0.1186339E+00
        -11   -1    0    0    0    0  0.00000000000E+00  0.00000000000E+00  0.45593999997E+02  0.45594000000E+02  0.51100000000E-03 0. -1.
         11   -1    0    0    0    0 -0.00000000000E+00 -0.00000000000E+00 -0.45593999997E+02  0.45594000000E+02  0.51100000000E-03 0.  1.
    9900012    2    1    2    0    0 -0.11005934144E+01 -0.11718694669E+00 -0.40944089669E+00  0.90007881153E+02  0.90000144384E+02 0.  0.
         12    1    1    2    0    0  0.11005934144E+01  0.11718694669E+00  0.40944089669E+00  0.11801188467E+01  0.00000000000E+00 0. -1.
         11    1    3    3    0    0  0.57796140277E+01  0.22408756834E+01 -0.61715638985E+01  0.87472088892E+01  0.51100000000E-03 0. -1.
        -11    1    3    3    0    0  0.27148035895E+02 -0.26975372890E+02  0.83873002539E+01  0.39179502311E+02  0.51100000000E-03 0.  1.
         12    1    3    3    0    0 -0.34028243337E+02  0.24617310260E+02 -0.26251772521E+01  0.42081169953E+02  0.00000000000E+00 0. -1.
</event>
<event>
 7    1  0.2084210E-015  0.9000774E+02  0.7816164E-02  0.1186339E+00
        -11   -1    0    0    0    0  0.00000000000E+00  0.00000000000E+00  0.45593999997E+02  0.45594000000E+02  0.51100000000E-03 0. -1.
         11   -1    0    0    0    0 -0.00000000000E+00 -0.00000000000E+00 -0.45593999997E+02  0.45594000000E+02  0.51100000000E-03 0.  1.
    9900012    2    1    2    0    0 -0.16036971604E+00  0.76547133925E-02 -0.11692898263E+01  0.90007739123E+02  0.90000000479E+02 0.  0.
         12    1    1    2    0    0  0.16036971604E+00 -0.76547133925E-02  0.11692898263E+01  0.11802608772E+01  0.00000000000E+00 0. -1.
         11    1    3    3    0    0  0.47331053569E+01 -0.42865155670E+01  0.80323801225E+01  0.10261366026E+02  0.51100000000E-03 0. -1.
        -11    1    3    3    0    0  0.19028015032E+01 -0.32944393619E+02 -0.22144891409E+02  0.39741035973E+02  0.51100000000E-03 0.  1.
         12    1    3    3    0    0 -0.67962765762E+01  0.37238563899E+02  0.12943221460E+02  0.40005337123E+02  0.00000000000E+00 0. -1.
</event>
<event>
 7    1  0.2084210E-015  0.9000776E+02  0.7816164E-02  0.1186339E+00
        -11   -1    0    0    0    0  0.00000000000E+00  0.00000000000E+00  0.45593999997E+02  0.45594000000E+02  0.51100000000E-03 0.  1.
         11   -1    0    0    0    0 -0.00000000000E+00 -0.00000000000E+00 -0.45593999997E+02  0.45594000000E+02  0.51100000000E-03 0. -1.
    9900012    2    1    2    0    0  0.20193172015E+00 -0.95093063857E+00  0.66926343122E+00  0.90007763143E+02  0.90000024816E+02 0.  0.
         12    1    1    2    0    0 -0.20193172015E+00  0.95093063857E+00 -0.66926343122E+00  0.11802368573E+01  0.00000000000E+00 0. -1.
         11    1    3    3    0    0  0.17778757768E+02 -0.22626648671E+02 -0.20359413156E+02  0.35249895917E+02  0.51100000000E-03 0. -1.
        -11    1    3    3    0    0  0.19279956467E+01 -0.53337333249E+01 -0.85140568674E+01  0.10230104740E+02  0.51100000000E-03 0.  1.
        -12    1    3    3    0    0 -0.19504821695E+02  0.27009451357E+02  0.29542733455E+02  0.44527762485E+02  0.00000000000E+00 0.  1.
</event>
<event>
 7    1  0.2119747E-015  0.9000774E+02  0.7816164E-02  0.1186339E+00
        -11   -1    0    0    0    0  0.00000000000E+00  0.00000000000E+00  0.45593999997E+02  0.45594000000E+02  0.51100000000E-03 0.  1.
         11   -1    0    0    0    0 -0.00000000000E+00 -0.00000000000E+00 -0.45593999997E+02  0.45594000000E+02  0.51100000000E-03 0. -1.
    9900012    2    1    2    0    0 -0.42221610553E+00 -0.70117527234E+00  0.85034827058E+00  0.90007743509E+02  0.90000004924E+02 0.  0.
         12    1    1    2    0    0  0.42221610553E+00  0.70117527234E+00 -0.85034827058E+00  0.11802564906E+01  0.00000000000E+00 0. -1.
         11    1    3    3    0    0 -0.97061302806E+01  0.28207600794E+02 -0.26866326042E+02  0.40145699431E+02  0.51100000000E-03 0. -1.
        -11    1    3    3    0    0  0.96725579468E+01  0.11361905286E+01  0.12473483547E+01  0.98186141757E+01  0.51100000000E-03 0.  1.
        -12    1    3    3    0    0 -0.38864377174E+00 -0.30044966595E+02  0.26469325958E+02  0.40043429902E+02  0.00000000000E+00 0.  1.
</event>
<event>
 7    1  0.2084210E-015  0.9000773E+02  0.7816164E-02  0.1186339E+00
        -11   -1    0    0    0    0  0.00000000000E+00  0.00000000000E+00  0.45593999997E+02  0.45594000000E+02  0.51100000000E-03 0.  1.
         11   -1    0    0    0    0 -0.00000000000E+00 -0.00000000000E+00 -0.45593999997E+02  0.45594000000E+02  0.51100000000E-03 0. -1.
    9900012    2    1    2    0    0  0.26628301037E-01  0.98886040940E+00 -0.64380937218E+00  0.90007726945E+02  0.89999988141E+02 0.  0.
         12    1    1    2    0    0 -0.26628301037E-01 -0.98886040940E+00  0.64380937218E+00  0.11802730546E+01  0.00000000000E+00 0. -1.
         11    1    3    3    0    0  0.12514203808E+02 -0.22004394595E+01  0.85667829147E+00  0.12735035482E+02  0.51100000000E-03 0. -1.
        -11    1    3    3    0    0  0.24780245115E+02  0.23867699379E+02 -0.36490266174E+01  0.34598309455E+02  0.51100000000E-03 0.  1.
         12    1    3    3    0    0 -0.37267820622E+02 -0.20678399510E+02  0.21485389538E+01  0.42674382009E+02  0.00000000000E+00 0. -1.
</event>
<event>
 7    1  0.2084210E-015  0.9000776E+02  0.7816164E-02  0.1186339E+00
        -11   -1    0    0    0    0  0.00000000000E+00  0.00000000000E+00  0.45593999997E+02  0.45594000000E+02  0.51100000000E-03 0. -1.
         11   -1    0    0    0    0 -0.00000000000E+00 -0.00000000000E+00 -0.45593999997E+02  0.45594000000E+02  0.51100000000E-03 0.  1.
    9900012    2    1    2    0    0  0.87326464104E+00  0.79344661919E+00  0.28485658508E-01  0.90007762692E+02  0.90000024359E+02 0.  0.
         12    1    1    2    0    0 -0.87326464104E+00 -0.79344661919E+00 -0.28485658508E-01  0.11802373081E+01  0.00000000000E+00 0. -1.
         11    1    3    3    0    0  0.32887557854E+01 -0.40355614836E+01 -0.30352823948E+01  0.60261605174E+01  0.51100000000E-03 0. -1.
        -11    1    3    3    0    0 -0.14939784681E+02 -0.36585696393E+02 -0.54268341373E+01  0.39889357928E+02  0.51100000000E-03 0.  1.
         12    1    3    3    0    0  0.12524293537E+02  0.41414704496E+02  0.84906021906E+01  0.44092244246E+02  0.00000000000E+00 0. -1.
</event>
<event>
 7    1  0.2084210E-015  0.9000772E+02  0.7816164E-02  0.1186339E+00
        -11   -1    0    0    0    0  0.00000000000E+00  0.00000000000E+00  0.45593999997E+02  0.45594000000E+02  0.51100000000E-03 0. -1.
         11   -1    0    0    0    0 -0.00000000000E+00 -0.00000000000E+00 -0.45593999997E+02  0.45594000000E+02  0.51100000000E-03 0.  1.
    9900012    2    1    2    0    0  0.52180835860E+00  0.10576509456E+01 -0.46312354480E-01  0.90007722778E+02  0.89999983919E+02 0.  0.
         12    1    1    2    0    0 -0.52180835860E+00 -0.10576509456E+01  0.46312354480E-01  0.11802772217E+01  0.00000000000E+00 0. -1.
         11    1    3    3    0    0  0.11902239675E+02  0.43102066411E+01  0.17493868880E+02  0.21593439727E+02  0.51100000000E-03 0. -1.
        -11    1    3    3    0    0 -0.14837259292E+02  0.27492974993E+02 -0.20449019858E+02  0.37338590636E+02  0.51100000000E-03 0.  1.
         12    1    3    3    0    0  0.34568279758E+01 -0.30745530688E+02  0.29088386235E+01  0.31075692416E+02  0.00000000000E+00 0. -1.
</event>
<event>
 7    1  0.2084210E-015  0.9000775E+02  0.7816164E-02  0.1186339E+00
        -11   -1    0    0    0    0  0.00000000000E+00  0.00000000000E+00  0.45593999997E+02  0.45594000000E+02  0.51100000000E-03 0. -1.
         11   -1    0    0    0    0 -0.00000000000E+00 -0.00000000000E+00 -0.45593999997E+02  0.45594000000E+02  0.51100000000E-03 0.  1.
    9900012    2    1    2    0    0  0.64885450518E+00  0.94462232659E+00  0.28225078480E+00  0.90007750444E+02  0.90000011950E+02 0.  0.
         12    1    1    2    0    0 -0.64885450518E+00 -0.94462232659E+00 -0.28225078480E+00  0.11802495559E+01  0.00000000000E+00 0. -1.
         11    1    3    3    0    0  0.62909463219E+01 -0.16924147640E+01  0.31066061787E+02  0.31741777968E+02  0.51100000000E-03 0. -1.
        -11    1    3    3    0    0  0.73860294446E+01  0.32104668466E+00  0.11660596818E+02  0.13806738223E+02  0.51100000000E-03 0.  1.
        -12    1    3    3    0    0 -0.13028121261E+02  0.23159904059E+01 -0.42444407820E+02  0.44459234253E+02  0.00000000000E+00 0.  1.
</event>
<event>
 7    1  0.2084210E-015  0.9000780E+02  0.7816164E-02  0.1186339E+00
        -11   -1    0    0    0    0  0.00000000000E+00  0.00000000000E+00  0.45593999997E+02  0.45594000000E+02  0.51100000000E-03 0.  1.
         11   -1    0    0    0    0 -0.00000000000E+00 -0.00000000000E+00 -0.45593999997E+02  0.45594000000E+02  0.51100000000E-03 0. -1.
    9900012    2    1    2    0    0  0.77107876425E+00 -0.40100987035E+00  0.79843259225E+00  0.90007802567E+02  0.90000064761E+02 0.  0.
         12    1    1    2    0    0 -0.77107876425E+00  0.40100987035E+00 -0.79843259225E+00  0.11801974331E+01  0.00000000000E+00 0. -1.
         11    1    3    3    0    0 -0.71878189858E+01 -0.37004900080E+01  0.65002189946E+01  0.10373582569E+02  0.51100000000E-03 0. -1.
        -11    1    3    3    0    0  0.32892460137E+02  0.26275831043E+02  0.83723068969E+01  0.42923522151E+02  0.51100000000E-03 0.  1.
         12    1    3    3    0    0 -0.24933562386E+02 -0.22976350905E+02 -0.14074093299E+02  0.36710697847E+02  0.00000000000E+00 0. -1.
</event>
<event>
 7    1  0.2084210E-015  0.9000775E+02  0.7816164E-02  0.1186339E+00
        -11   -1    0    0    0    0  0.00000000000E+00  0.00000000000E+00  0.45593999997E+02  0.45594000000E+02  0.51100000000E-03 0.  1.
         11   -1    0    0    0    0 -0.00000000000E+00 -0.00000000000E+00 -0.45593999997E+02  0.45594000000E+02  0.51100000000E-03 0. -1.
    9900012    2    1    2    0    0  0.93829845757E+00 -0.24351847704E-01  0.71553348407E+00  0.90007752071E+02  0.90000013598E+02 0.  0.
         12    1    1    2    0    0 -0.93829845757E+00  0.24351847704E-01 -0.71553348407E+00  0.11802479294E+01  0.00000000000E+00 0. -1.
         11    1    3    3    0    0  0.15649422223E+02 -0.30453434946E+02  0.10635236971E+02  0.35852815533E+02  0.51100000000E-03 0. -1.
        -11    1    3    3    0    0  0.57802464995E+00 -0.98882066661E+01  0.20388796916E-01  0.99051077496E+01  0.51100000000E-03 0.  1.
        -12    1    3    3    0    0 -0.15289148416E+02  0.40317289764E+02 -0.99400922842E+01  0.44249828788E+02  0.00000000000E+00 0.  1.
</event>
<event>
 7    1  0.2084210E-015  0.9000772E+02  0.7816164E-02  0.1186339E+00
        -11   -1    0    0    0    0  0.00000000000E+00  0.00000000000E+00  0.45593999997E+02  0.45594000000E+02  0.51100000000E-03 0.  1.
         11   -1    0    0    0    0 -0.00000000000E+00 -0.00000000000E+00 -0.45593999997E+02  0.45594000000E+02  0.51100000000E-03 0. -1.
    9900012    2    1    2    0    0  0.64742811989E-01 -0.91814569429E+00  0.73883217971E+00  0.90007722008E+02  0.89999983139E+02 0.  0.
         12    1    1    2    0    0 -0.64742811989E-01  0.91814569429E+00 -0.73883217971E+00  0.11802779916E+01  0.00000000000E+00 0. -1.
         11    1    3    3    0    0 -0.71386362115E+01  0.54173861060E+01  0.31848914987E+01  0.95106116155E+01  0.51100000000E-03 0. -1.
        -11    1    3    3    0    0 -0.19524307869E+01  0.41468109258E+01  0.37715144231E+02  0.37992632595E+02  0.51100000000E-03 0.  1.
         12    1    3    3    0    0  0.91558098104E+01 -0.10482342726E+02 -0.40161203550E+02  0.42504477798E+02  0.00000000000E+00 0. -1.
</event>
<event>
 7    1  0.2084210E-015  0.9000774E+02  0.7816164E-02  0.1186339E+00
        -11   -1    0    0    0    0  0.00000000000E+00  0.00000000000E+00  0.45593999997E+02  0.45594000000E+02  0.51100000000E-03 0.  1.
         11   -1    0    0    0    0 -0.00000000000E+00 -0.00000000000E+00 -0.45593999997E+02  0.45594000000E+02  0.51100000000E-03 0. -1.
    9900012    2    1    2    0    0  0.41421104612E+00  0.86453067263E+00  0.68849568090E+00  0.90007741394E+02  0.90000002780E+02 0.  0.
         12    1    1    2    0    0 -0.41421104612E+00 -0.86453067263E+00 -0.68849568090E+00  0.11802586061E+01  0.00000000000E+00 0. -1.
         11    1    3    3    0    0 -0.43099070435E+01 -0.72016588392E+01 -0.44024964016E+01  0.94774027870E+01  0.51100000000E-03 0. -1.
        -11    1    3    3    0    0  0.12121114646E+02 -0.34734930285E+02 -0.70396168395E-01  0.36789152722E+02  0.51100000000E-03 0.  1.
         12    1    3    3    0    0 -0.73969965559E+01  0.42801119797E+02  0.51613882509E+01  0.43741185885E+02  0.00000000000E+00 0. -1.
</event>
<event>
 7    1  0.2084210E-015  0.9000791E+02  0.7816164E-02  0.1186339E+00
        -11   -1    0    0    0    0  0.00000000000E+00  0.00000000000E+00  0.45593999997E+02  0.45594000000E+02  0.51100000000E-03 0. -1.
         11   -1    0    0    0    0 -0.00000000000E+00 -0.00000000000E+00 -0.45593999997E+02  0.45594000000E+02  0.51100000000E-03 0.  1.
    9900012    2    1    2    0    0 -0.56324516197E+00 -0.58566313058E+00 -0.85578756932E+00  0.90007907301E+02  0.90000170877E+02 0.  0.
         12    1    1    2    0    0  0.56324516197E+00  0.58566313058E+00  0.85578756932E+00  0.11800926992E+01  0.00000000000E+00 0. -1.
         11    1    3    3    0    0  0.20638703431E+02  0.36122602520E+00  0.34105746274E+02  0.39865881311E+02  0.51100000000E-03 0. -1.
        -11    1    3    3    0    0 -0.93239950836E+01  0.62490444332E+01  0.13120235213E+01  0.11300833891E+02  0.51100000000E-03 0.  1.
        -12    1    3    3    0    0 -0.11877953509E+02 -0.71959335890E+01 -0.36273557364E+02  0.38841192099E+02  0.00000000000E+00 0.  1.
</event>
<event>
 7    1  0.2530909E-015  0.9000772E+02  0.7816164E-02  0.1186339E+00
        -11   -1    0    0    0    0  0.00000000000E+00  0.00000000000E+00  0.45593999997E+02  0.45594000000E+02  0.51100000000E-03 0. -1.
         11   -1    0    0    0    0 -0.00000000000E+00 -0.00000000000E+00 -0.45593999997E+02  0.45594000000E+02  0.51100000000E-03 0.  1.
    9900012    2    1    2    0    0 -0.84322476277E+00  0.58958579564E+00 -0.57828476431E+00  0.90007723473E+02  0.89999984623E+02 0.  0.
         12    1    1    2    0    0  0.84322476277E+00 -0.58958579564E+00  0.57828476431E+00  0.11802765267E+01  0.00000000000E+00 0. -1.
         11    1    3    3    0    0  0.31410010576E+02 -0.23047646048E+02 -0.43124566865E+00  0.38961118128E+02  0.51100000000E-03 0. -1.
        -11    1    3    3    0    0 -0.54008485010E+01 -0.79253102329E+01 -0.52915344275E+00  0.96051918485E+01  0.51100000000E-03 0.  1.
        -12    1    3    3    0    0 -0.26852386837E+02  0.31562542077E+02  0.38211434710E+00  0.41441413496E+02  0.00000000000E+00 0.  1.
</event>
<event>
 7    1  0.2084210E-015  0.9000776E+02  0.7816164E-02  0.1186339E+00
        -11   -1    0    0    0    0  0.00000000000E+00  0.00000000000E+00  0.45593999997E+02  0.45594000000E+02  0.51100000000E-03 0.  1.
         11   -1    0    0    0    0 -0.00000000000E+00 -0.00000000000E+00 -0.45593999997E+02  0.45594000000E+02  0.51100000000E-03 0. -1.
    9900012    2    1    2    0    0 -0.98444433641E+00 -0.44399403318E-02  0.65100719066E+00  0.90007762428E+02  0.90000024092E+02 0.  0.
         12    1    1    2    0    0  0.98444433641E+00  0.44399403318E-02 -0.65100719066E+00  0.11802375722E+01  0.00000000000E+00 0. -1.
         11    1    3    3    0    0  0.12527731405E+02 -0.19459657103E+02 -0.16664559255E+02  0.28518938342E+02  0.51100000000E-03 0. -1.
        -11    1    3    3    0    0  0.77437694966E+01  0.14106957154E+01 -0.16128429825E+02  0.17946650866E+02  0.51100000000E-03 0.  1.
        -12    1    3    3    0    0 -0.21255945238E+02  0.18044521447E+02  0.33443996271E+02  0.43542173220E+02  0.00000000000E+00 0.  1.
</event>
<event>
 7    1  0.2084210E-015  0.9000779E+02  0.7816164E-02  0.1186339E+00
        -11   -1    0    0    0    0  0.00000000000E+00  0.00000000000E+00  0.45593999997E+02  0.45594000000E+02  0.51100000000E-03 0.  1.
         11   -1    0    0    0    0 -0.00000000000E+00 -0.00000000000E+00 -0.45593999997E+02  0.45594000000E+02  0.51100000000E-03 0. -1.
    9900012    2    1    2    0    0  0.22522659805E+00 -0.11316220913E+01 -0.24821548445E+00  0.90007785399E+02  0.90000047366E+02 0.  0.
         12    1    1    2    0    0 -0.22522659805E+00  0.11316220913E+01  0.24821548445E+00  0.11802146011E+01  0.00000000000E+00 0. -1.
         11    1    3    3    0    0 -0.12774390602E+02 -0.16717344793E+02 -0.83090854126E+00  0.21055761241E+02  0.51100000000E-03 0. -1.
        -11    1    3    3    0    0 -0.11980504986E+02 -0.20770181033E+02 -0.49874726971E+01  0.24490973930E+02  0.51100000000E-03 0.  1.
         12    1    3    3    0    0  0.24980122185E+02  0.36355903735E+02  0.55701657539E+01  0.44461050228E+02  0.00000000000E+00 0. -1.
</event>
<event>
 7    1  0.2084210E-015  0.9000765E+02  0.7816164E-02  0.1186339E+00
        -11   -1    0    0    0    0  0.00000000000E+00  0.00000000000E+00  0.45593999997E+02  0.45594000000E+02  0.51100000000E-03 0. -1.
         11   -1    0    0    0    0 -0.00000000000E+00 -0.00000000000E+00 -0.45593999997E+02  0.45594000000E+02  0.51100000000E-03 0.  1.
    9900012    2    1    2    0    0  0.11237432846E+01 -0.27612121032E+00 -0.23275416174E+00  0.90007654122E+02  0.89999914356E+02 0.  0.
         12    1    1    2    0    0 -0.11237432846E+01  0.27612121032E+00  0.23275416174E+00  0.11803458783E+01  0.00000000000E+00 0. -1.
         11    1    3    3    0    0 -0.61120231359E+01 -0.13786259420E+02 -0.22356787100E+01  0.15245197118E+02  0.51100000000E-03 0. -1.
        -11    1    3    3    0    0 -0.83174121695E+01 -0.43916626513E+01 -0.31973649952E+02  0.33328371361E+02  0.51100000000E-03 0.  1.
         12    1    3    3    0    0  0.15553178590E+02  0.17901800861E+02  0.33976574500E+02  0.41434085643E+02  0.00000000000E+00 0. -1.
</event>
<event>
 7    1  0.2084210E-015  0.9000764E+02  0.7816164E-02  0.1186339E+00
        -11   -1    0    0    0    0  0.00000000000E+00  0.00000000000E+00  0.45593999997E+02  0.45594000000E+02  0.51100000000E-03 0.  1.
         11   -1    0    0    0    0 -0.00000000000E+00 -0.00000000000E+00 -0.45593999997E+02  0.45594000000E+02  0.51100000000E-03 0. -1.
    9900012    2    1    2    0    0  0.61569014772E+00  0.92717719709E+00 -0.39308902534E+00  0.90007639506E+02  0.89999899548E+02 0.  0.
         12    1    1    2    0    0 -0.61569014772E+00 -0.92717719709E+00  0.39308902534E+00  0.11803604935E+01  0.00000000000E+00 0. -1.
         11    1    3    3    0    0 -0.16307683647E+02  0.17731071669E+02 -0.10916500825E+02  0.26448089514E+02  0.51100000000E-03 0. -1.
        -11    1    3    3    0    0 -0.19760311392E+02 -0.13969710621E+02 -0.29465420597E+01  0.24378368106E+02  0.51100000000E-03 0.  1.
        -12    1    3    3    0    0  0.36683685187E+02 -0.28341838506E+01  0.13469953859E+02  0.39181181886E+02  0.00000000000E+00 0.  1.
</event>
<event>
 7    1  0.2084210E-015  0.9000774E+02  0.7816164E-02  0.1186339E+00
        -11   -1    0    0    0    0  0.00000000000E+00  0.00000000000E+00  0.45593999997E+02  0.45594000000E+02  0.51100000000E-03 0.  1.
         11   -1    0    0    0    0 -0.00000000000E+00 -0.00000000000E+00 -0.45593999997E+02  0.45594000000E+02  0.51100000000E-03 0. -1.
    9900012    2    1    2    0    0 -0.91318473349E+00 -0.72066786069E+00 -0.19937283182E+00  0.90007738144E+02  0.89999999487E+02 0.  0.
         12    1    1    2    0    0  0.91318473349E+00  0.72066786069E+00  0.19937283182E+00  0.11802618561E+01  0.00000000000E+00 0. -1.
         11    1    3    3    0    0  0.29975009882E+02 -0.94375990247E+01  0.15186690818E+02  0.34902794603E+02  0.51100000000E-03 0. -1.
        -11    1    3    3    0    0  0.19365630108E+01  0.15712073580E+02  0.40241547990E+01  0.16334422383E+02  0.51100000000E-03 0.  1.
         12    1    3    3    0    0 -0.32824757627E+02 -0.69951424155E+01 -0.19410218449E+02  0.38770521159E+02  0.00000000000E+00 0. -1.
</event>
<event>
 7    1  0.2084210E-015  0.9000782E+02  0.7816164E-02  0.1186339E+00
        -11   -1    0    0    0    0  0.00000000000E+00  0.00000000000E+00  0.45593999997E+02  0.45594000000E+02  0.51100000000E-03 0.  1.
         11   -1    0    0    0    0 -0.00000000000E+00 -0.00000000000E+00 -0.45593999997E+02  0.45594000000E+02  0.51100000000E-03 0. -1.
    9900012    2    1    2    0    0 -0.99720442827E+00  0.29645544720E-01  0.63049185096E+00  0.90007823952E+02  0.90000086428E+02 0.  0.
         12    1    1    2    0    0  0.99720442827E+00 -0.29645544720E-01 -0.63049185096E+00  0.11801760480E+01  0.00000000000E+00 0. -1.
         11    1    3    3    0    0 -0.27614590388E+02  0.21757120357E+01 -0.31176370682E+02  0.41704501127E+02  0.51100000000E-03 0. -1.
        -11    1    3    3    0    0  0.82469564091E+01  0.32185761789E+01 -0.23421443475E+01  0.91573556794E+01  0.51100000000E-03 0.  1.
        -12    1    3    3    0    0  0.18370429550E+02 -0.53646426699E+01  0.34149006880E+02  0.39145967145E+02  0.00000000000E+00 0.  1.
</event>
<event>
 7    1  0.2084210E-015  0.9000774E+02  0.7816164E-02  0.1186339E+00
        -11   -1    0    0    0    0  0.00000000000E+00  0.00000000000E+00  0.45593999997E+02  0.45594000000E+02  0.51100000000E-03 0. -1.
         11   -1    0    0    0    0 -0.00000000000E+00 -0.00000000000E+00 -0.45593999997E+02  0.45594000000E+02  0.51100000000E-03 0.  1.
    9900012    2    1    2    0    0 -0.95391729724E+00  0.54307271073E+00  0.43373344490E+00  0.90007741181E+02  0.90000002564E+02 0.  0.
         12    1    1    2    0    0  0.95391729724E+00 -0.54307271073E+00 -0.43373344490E+00  0.11802588192E+01  0.00000000000E+00 0. -1.
         11    1    3    3    0    0 -0.34447198127E+00  0.17303461995E+02  0.36431949295E+02  0.40333799569E+02  0.51100000000E-03 0. -1.
        -11    1    3    3    0    0 -0.51175570295E+01 -0.83696891892E+01  0.24102650475E+01  0.10102003016E+02  0.51100000000E-03 0.  1.
        -12    1    3    3    0    0  0.45081117135E+01 -0.83907000956E+01 -0.38408480898E+02  0.39571938596E+02  0.00000000000E+00 0.  1.
</event>
<event>
 7    1  0.2084210E-015  0.9000779E+02  0.7816164E-02  0.1186339E+00
        -11   -1    0    0    0    0  0.00000000000E+00  0.00000000000E+00  0.45593999997E+02  0.45594000000E+02  0.51100000000E-03 0.  1.
         11   -1    0    0    0    0 -0.00000000000E+00 -0.00000000000E+00 -0.45593999997E+02  0.45594000000E+02  0.51100000000E-03 0. -1.
    9900012    2    1    2    0    0 -0.66755563580E+00  0.92834588423E+00  0.29230283909E+00  0.90007789189E+02  0.90000051207E+02 0.  0.
         12    1    1    2    0    0  0.66755563580E+00 -0.92834588423E+00 -0.29230283909E+00  0.11802108106E+01  0.00000000000E+00 0. -1.
         11    1    3    3    0    0 -0.31592200443E+02  0.67647217938E+01 -0.14241665297E+02  0.35307982390E+02  0.51100000000E-03 0. -1.
        -11    1    3    3    0    0 -0.69438595402E+01  0.26371221983E+01 -0.70969925289E+01  0.10273212838E+02  0.51100000000E-03 0.  1.
        -12    1    3    3    0    0  0.37868504347E+02 -0.84734981079E+01  0.21630960665E+02  0.44426593961E+02  0.00000000000E+00 0.  1.
</event>
<event>
 7    1  0.2084210E-015  0.9000774E+02  0.7816164E-02  0.1186339E+00
        -11   -1    0    0    0    0  0.00000000000E+00  0.00000000000E+00  0.45593999997E+02  0.45594000000E+02  0.51100000000E-03 0. -1.
         11   -1    0    0    0    0 -0.00000000000E+00 -0.00000000000E+00 -0.45593999997E+02  0.45594000000E+02  0.51100000000E-03 0.  1.
    9900012    2    1    2    0    0 -0.50108004231E+00 -0.10685901163E+01 -0.71831671940E-02  0.90007738316E+02  0.89999999662E+02 0.  0.
         12    1    1    2    0    0  0.50108004231E+00  0.10685901163E+01  0.71831671940E-02  0.11802616842E+01  0.00000000000E+00 0. -1.
         11    1    3    3    0    0  0.36879028979E+02 -0.68250439821E+01 -0.19869655235E+01  0.37557849194E+02  0.51100000000E-03 0. -1.
        -11    1    3    3    0    0 -0.11063588492E+01 -0.11573193049E+02 -0.28214768819E+01  0.11963425902E+02  0.51100000000E-03 0.  1.
        -12    1    3    3    0    0 -0.36273750172E+02  0.17329646915E+02  0.48012592382E+01  0.40486463220E+02  0.00000000000E+00 0.  1.
</event>
<event>
 7    1  0.2084210E-015  0.9000774E+02  0.7816164E-02  0.1186339E+00
        -11   -1    0    0    0    0  0.00000000000E+00  0.00000000000E+00  0.45593999997E+02  0.45594000000E+02  0.51100000000E-03 0.  1.
         11   -1    0    0    0    0 -0.00000000000E+00 -0.00000000000E+00 -0.45593999997E+02  0.45594000000E+02  0.51100000000E-03 0. -1.
    9900012    2    1    2    0    0 -0.10589354904E+01  0.10536306848E+00  0.51045551800E+00  0.90007741306E+02  0.90000002691E+02 0.  0.
         12    1    1    2    0    0  0.10589354904E+01 -0.10536306848E+00 -0.51045551800E+00  0.11802586941E+01  0.00000000000E+00 0. -1.
         11    1    3    3    0    0  0.18401854964E+01 -0.76294275291E+01 -0.80665731245E+01  0.11254512398E+02  0.51100000000E-03 0. -1.
        -11    1    3    3    0    0 -0.18125850614E+02  0.36637477192E+02  0.18130732561E+02  0.44716603839E+02  0.51100000000E-03 0.  1.
         12    1    3    3    0    0  0.15226729628E+02 -0.28902686594E+02 -0.95537039182E+01  0.34036625069E+02  0.00000000000E+00 0. -1.
</event>
<event>
 7    1  0.2084210E-015  0.9000776E+02  0.7816164E-02  0.1186339E+00
        -11   -1    0    0    0    0  0.00000000000E+00  0.00000000000E+00  0.45593999997E+02  0.45594000000E+02  0.51100000000E-03 0.  1.
         11   -1    0    0    0    0 -0.00000000000E+00 -0.00000000000E+00 -0.45593999997E+02  0.45594000000E+02  0.51100000000E-03 0. -1.
    9900012    2    1    2    0    0 -0.75230418867E+00  0.47561403081E-01  0.90815562937E+00  0.90007758361E+02  0.90000019971E+02 0.  0.
         12    1    1    2    0    0  0.75230418867E+00 -0.47561403081E-01 -0.90815562937E+00  0.11802416390E+01  0.00000000000E+00 0. -1.
         11    1    3    3    0    0 -0.30460895381E+02 -0.17867716532E+02  0.54729161891E+01  0.35736175695E+02  0.51100000000E-03 0. -1.
        -11    1    3    3    0    0 -0.86281223258E+01 -0.35746241390E+01  0.27099502354E+01  0.97245186587E+01  0.51100000000E-03 0.  1.
        -12    1    3    3    0    0  0.38336713518E+02  0.21489902074E+02 -0.72747107951E+01  0.44547064007E+02  0.00000000000E+00 0.  1.
</event>
<event>
 7    1  0.2084210E-015  0.9000762E+02  0.7816164E-02  0.1186339E+00
        -11   -1    0    0    0    0  0.00000000000E+00  0.00000000000E+00  0.45593999997E+02  0.45594000000E+02  0.51100000000E-03 0. -1.
         11   -1    0    0    0    0 -0.00000000000E+00 -0.00000000000E+00 -0.45593999997E+02  0.45594000000E+02  0.51100000000E-03 0.  1.
    9900012    2    1    2    0    0  0.83494818912E+00  0.80938042158E+00 -0.20265358143E+00  0.90007617173E+02  0.89999876919E+02 0.  0.
         12    1    1    2    0    0 -0.83494818912E+00 -0.80938042158E+00  0.20265358143E+00  0.11803828275E+01  0.00000000000E+00 0. -1.
         11    1    3    3    0    0  0.17446408314E+02 -0.23083975054E+02 -0.25262214639E+02  0.38411281625E+02  0.51100000000E-03 0. -1.
        -11    1    3    3    0    0 -0.61969261455E+01 -0.65265551387E+01 -0.23987242939E+01  0.93140589503E+01  0.51100000000E-03 0.  1.
        -12    1    3    3    0    0 -0.10414533980E+02  0.30419910614E+02  0.27458285351E+02  0.42282276597E+02  0.00000000000E+00 0.  1.
</event>
<event>
 7    1  0.2084210E-015  0.9000778E+02  0.7816164E-02  0.1186339E+00
        -11   -1    0    0    0    0  0.00000000000E+00  0.00000000000E+00  0.45593999997E+02  0.45594000000E+02  0.51100000000E-03 0. -1.
         11   -1    0    0    0    0 -0.00000000000E+00 -0.00000000000E+00 -0.45593999997E+02  0.45594000000E+02  0.51100000000E-03 0.  1.
    9900012    2    1    2    0    0  0.49450166328E+00 -0.16682706428E+00 -0.10585641870E+01  0.90007779130E+02  0.90000041014E+02 0.  0.
         12    1    1    2    0    0 -0.49450166328E+00  0.16682706428E+00  0.10585641870E+01  0.11802208702E+01  0.00000000000E+00 0. -1.
         11    1    3    3    0    0  0.23825268024E+02 -0.18742313921E+02 -0.13411315990E+02  0.33147867569E+02  0.51100000000E-03 0. -1.
        -11    1    3    3    0    0  0.91132379543E+01 -0.90487434402E+01  0.38660617039E+01  0.13411834223E+02  0.51100000000E-03 0.  1.
        -12    1    3    3    0    0 -0.32444004315E+02  0.27624230297E+02  0.84866900990E+01  0.43448077338E+02  0.00000000000E+00 0.  1.
</event>
<event>
 7    1  0.2084210E-015  0.9000762E+02  0.7816164E-02  0.1186339E+00
        -11   -1    0    0    0    0  0.00000000000E+00  0.00000000000E+00  0.45593999997E+02  0.45594000000E+02  0.51100000000E-03 0.  1.
         11   -1    0    0    0    0 -0.00000000000E+00 -0.00000000000E+00 -0.45593999997E+02  0.45594000000E+02  0.51100000000E-03 0. -1.
    9900012    2    1    2    0    0 -0.78041630476E+00 -0.27648123386E-01  0.88514061688E+00  0.90007623815E+02  0.89999883649E+02 0.  0.
         12    1    1    2    0    0  0.78041630476E+00  0.27648123386E-01 -0.88514061688E+00  0.11803761854E+01  0.00000000000E+00 0. -1.
         11    1    3    3    0    0  0.10300577438E+02 -0.30618821703E+01 -0.44960528209E+00  0.10755424824E+02  0.51100000000E-03 0. -1.
        -11    1    3    3    0    0 -0.33197126593E+02 -0.20101324504E+02  0.18434841853E+02  0.42964588387E+02  0.51100000000E-03 0.  1.
         12    1    3    3    0    0  0.22116132851E+02  0.23135558550E+02 -0.17100095954E+02  0.36287610604E+02  0.00000000000E+00 0. -1.
</event>
<event>
 7    1  0.2084210E-015  0.9000765E+02  0.7816164E-02  0.1186339E+00
        -11   -1    0    0    0    0  0.00000000000E+00  0.00000000000E+00  0.45593999997E+02  0.45594000000E+02  0.51100000000E-03 0. -1.
         11   -1    0    0    0    0 -0.00000000000E+00 -0.00000000000E+00 -0.45593999997E+02  0.45594000000E+02  0.51100000000E-03 0.  1.
    9900012    2    1    2    0    0  0.69167005366E+00  0.83449100089E+00  0.46738948886E+00  0.90007645973E+02  0.89999906100E+02 0.  0.
         12    1    1    2    0    0 -0.69167005366E+00 -0.83449100089E+00 -0.46738948886E+00  0.11803540266E+01  0.00000000000E+00 0. -1.
         11    1    3    3    0    0  0.58043812242E+01 -0.59438364382E+01 -0.59894357509E+01  0.10241746622E+02  0.51100000000E-03 0. -1.
        -11    1    3    3    0    0 -0.13749624795E+02 -0.11681708159E+02 -0.31718569074E+02  0.36490849701E+02  0.51100000000E-03 0.  1.
         12    1    3    3    0    0  0.86369136248E+01  0.18460035598E+02  0.38175394314E+02  0.43275049650E+02  0.00000000000E+00 0. -1.
</event>
<event>
 7    1  0.2084210E-015  0.9000787E+02  0.7816164E-02  0.1186339E+00
        -11   -1    0    0    0    0  0.00000000000E+00  0.00000000000E+00  0.45593999997E+02  0.45594000000E+02  0.51100000000E-03 0.  1.
         11   -1    0    0    0    0 -0.00000000000E+00 -0.00000000000E+00 -0.45593999997E+02  0.45594000000E+02  0.51100000000E-03 0. -1.
    9900012    2    1    2    0    0  0.10672047236E+01 -0.21732112100E+00  0.45448034748E+00  0.90007870016E+02  0.90000133101E+02 0.  0.
         12    1    1    2    0    0 -0.10672047236E+01  0.21732112100E+00 -0.45448034748E+00  0.11801299835E+01  0.00000000000E+00 0. -1.
         11    1    3    3    0    0 -0.29386673791E+02 -0.11858272253E+02 -0.64074764965E+01  0.32330341363E+02  0.51100000000E-03 0. -1.
        -11    1    3    3    0    0 -0.10941047850E+02  0.11451100375E+02  0.28000036472E+01  0.16083353150E+02  0.51100000000E-03 0.  1.
        -12    1    3    3    0    0  0.41394926365E+02  0.18985075730E+00  0.40619531968E+01  0.41594175504E+02  0.00000000000E+00 0.  1.
</event>
<event>
 7    1  0.2084210E-015  0.9000771E+02  0.7816164E-02  0.1186339E+00
        -11   -1    0    0    0    0  0.00000000000E+00  0.00000000000E+00  0.45593999997E+02  0.45594000000E+02  0.51100000000E-03 0.  1.
         11   -1    0    0    0    0 -0.00000000000E+00 -0.00000000000E+00 -0.45593999997E+02  0.45594000000E+02  0.51100000000E-03 0. -1.
    9900012    2    1    2    0    0 -0.38057093201E+00  0.27297687891E+00  0.10833879729E+01  0.90007711853E+02  0.89999972849E+02 0.  0.
         12    1    1    2    0    0  0.38057093201E+00 -0.27297687891E+00 -0.10833879729E+01  0.11802881472E+01  0.00000000000E+00 0. -1.
         11    1    3    3    0    0  0.20176910496E+01 -0.84037062609E+01  0.28848161053E+01  0.91112853272E+01  0.51100000000E-03 0. -1.
        -11    1    3    3    0    0  0.26701706707E+02  0.27246627910E+02  0.16798675027E+02  0.41683994008E+02  0.51100000000E-03 0.  1.
         12    1    3    3    0    0 -0.29099968688E+02 -0.18569944770E+02 -0.18600103160E+02  0.39212432518E+02  0.00000000000E+00 0. -1.
</event>
<event>
 7    1  0.2084210E-015  0.9000780E+02  0.7816164E-02  0.1186339E+00
        -11   -1    0    0    0    0  0.00000000000E+00  0.00000000000E+00  0.45593999997E+02  0.45594000000E+02  0.51100000000E-03 0. -1.
         11   -1    0    0    0    0 -0.00000000000E+00 -0.00000000000E+00 -0.45593999997E+02  0.45594000000E+02  0.51100000000E-03 0.  1.
    9900012    2    1    2    0    0 -0.19936146882E+00 -0.95253002230E+00 -0.66769217047E+00  0.90007800325E+02  0.90000062489E+02 0.  0.
         12    1    1    2    0    0  0.19936146882E+00  0.95253002230E+00  0.66769217047E+00  0.11801996751E+01  0.00000000000E+00 0. -1.
         11    1    3    3    0    0 -0.94045951559E+01 -0.20130570171E+01  0.17515817171E+01  0.97758297537E+01  0.51100000000E-03 0. -1.
        -11    1    3    3    0    0 -0.30038978254E+02 -0.10088583386E+02  0.15966705561E+02  0.35483170884E+02  0.51100000000E-03 0.  1.
         12    1    3    3    0    0  0.39244211941E+02  0.11149110381E+02 -0.18385979449E+02  0.44748799687E+02  0.00000000000E+00 0. -1.
</event>
<event>
 7    1  0.2084210E-015  0.9000768E+02  0.7816164E-02  0.1186339E+00
        -11   -1    0    0    0    0  0.00000000000E+00  0.00000000000E+00  0.45593999997E+02  0.45594000000E+02  0.51100000000E-03 0. -1.
         11   -1    0    0    0    0 -0.00000000000E+00 -0.00000000000E+00 -0.45593999997E+02  0.45594000000E+02  0.51100000000E-03 0.  1.
    9900012    2    1    2    0    0 -0.36991309648E+00  0.47267000200E+00 -0.10163157013E+01  0.90007682147E+02  0.89999942751E+02 0.  0.
         12    1    1    2    0    0  0.36991309648E+00 -0.47267000200E+00  0.10163157013E+01  0.11803178531E+01  0.00000000000E+00 0. -1.
         11    1    3    3    0    0 -0.18098191476E+02 -0.51282623166E+01  0.23237863478E+01  0.18953722387E+02  0.51100000000E-03 0. -1.
        -11    1    3    3    0    0 -0.24202384801E+02 -0.26111501016E+01 -0.12486841700E+02  0.27358632107E+02  0.51100000000E-03 0.  1.
         12    1    3    3    0    0  0.41930663180E+02  0.82120824202E+01  0.91467396504E+01  0.43695327652E+02  0.00000000000E+00 0. -1.
</event>
<event>
 7    1  0.2084210E-015  0.9000725E+02  0.7816164E-02  0.1186340E+00
        -11   -1    0    0    0    0  0.00000000000E+00  0.00000000000E+00  0.45593999997E+02  0.45594000000E+02  0.51100000000E-03 0.  1.
         11   -1    0    0    0    0 -0.00000000000E+00 -0.00000000000E+00 -0.45593999997E+02  0.45594000000E+02  0.51100000000E-03 0. -1.
    9900012    2    1    2    0    0  0.11660662616E+01  0.17728726578E+00  0.55080939277E-01  0.90007248032E+02  0.89999502904E+02 0.  0.
         12    1    1    2    0    0 -0.11660662616E+01 -0.17728726578E+00 -0.55080939277E-01  0.11807519684E+01  0.00000000000E+00 0. -1.
         11    1    3    3    0    0  0.81008976716E+01 -0.30756561539E+01  0.19096393150E+01  0.88730449360E+01  0.51100000000E-03 0. -1.
        -11    1    3    3    0    0  0.90008238186E+01 -0.23885436371E+02  0.27906669799E+02  0.37819454248E+02  0.51100000000E-03 0.  1.
         12    1    3    3    0    0 -0.15935655229E+02  0.27138379791E+02 -0.29761228175E+02  0.43314748848E+02  0.00000000000E+00 0. -1.
</event>
<event>
 7    1  0.2084210E-015  0.9000773E+02  0.7816164E-02  0.1186339E+00
        -11   -1    0    0    0    0  0.00000000000E+00  0.00000000000E+00  0.45593999997E+02  0.45594000000E+02  0.51100000000E-03 0. -1.
         11   -1    0    0    0    0 -0.00000000000E+00 -0.00000000000E+00 -0.45593999997E+02  0.45594000000E+02  0.51100000000E-03 0.  1.
    9900012    2    1    2    0    0  0.10524595087E+01  0.51125650868E+00 -0.15485918221E+00  0.90007730708E+02  0.89999991953E+02 0.  0.
         12    1    1    2    0    0 -0.10524595087E+01 -0.51125650868E+00  0.15485918221E+00  0.11802692919E+01  0.00000000000E+00 0. -1.
         11    1    3    3    0    0 -0.52248773051E+00 -0.81723131794E+01 -0.61795183562E+01  0.10258954309E+02  0.51100000000E-03 0. -1.
        -11    1    3    3    0    0 -0.10076518919E+01  0.44009802682E+02  0.51047339921E+01  0.44316322093E+02  0.51100000000E-03 0.  1.
         12    1    3    3    0    0  0.25825991312E+01 -0.35326232994E+02  0.91992518192E+00  0.35432454306E+02  0.00000000000E+00 0. -1.
</event>
<event>
 7    1  0.2084210E-015  0.9000769E+02  0.7816164E-02  0.1186339E+00
        -11   -1    0    0    0    0  0.00000000000E+00  0.00000000000E+00  0.45593999997E+02  0.45594000000E+02  0.51100000000E-03 0. -1.
         11   -1    0    0    0    0 -0.00000000000E+00 -0.00000000000E+00 -0.45593999997E+02  0.45594000000E+02  0.51100000000E-03 0.  1.
    9900012    2    1    2    0    0 -0.69897066619E+00 -0.47673195173E+00 -0.82298197908E+00  0.90007689582E+02  0.89999950284E+02 0.  0.
         12    1    1    2    0    0  0.69897066619E+00  0.47673195173E+00  0.82298197908E+00  0.11803104184E+01  0.00000000000E+00 0. -1.
         11    1    3    3    0    0  0.33617924840E+02 -0.58583779301E+01  0.12027290933E+02  0.36182056188E+02  0.51100000000E-03 0. -1.
        -11    1    3    3    0    0  0.57812028957E+01 -0.43647408289E+01  0.50649175980E+01  0.88389286659E+01  0.51100000000E-03 0.  1.
        -12    1    3    3    0    0 -0.40098098402E+02  0.97463868073E+01 -0.17915190510E+02  0.44986704728E+02  0.00000000000E+00 0.  1.
</event>
<event>
 7    1  0.2084210E-015  0.9000769E+02  0.7816164E-02  0.1186339E+00
        -11   -1    0    0    0    0  0.00000000000E+00  0.00000000000E+00  0.45593999997E+02  0.45594000000E+02  0.51100000000E-03 0.  1.
         11   -1    0    0    0    0 -0.00000000000E+00 -0.00000000000E+00 -0.45593999997E+02  0.45594000000E+02  0.51100000000E-03 0. -1.
    9900012    2    1    2    0    0 -0.50406641493E-01 -0.11737944532E+01  0.11311207961E+00  0.90007691316E+02  0.89999952041E+02 0.  0.
         12    1    1    2    0    0  0.50406641493E-01  0.11737944532E+01 -0.11311207961E+00  0.11803086844E+01  0.00000000000E+00 0. -1.
         11    1    3    3    0    0 -0.70080768947E+01  0.10005981723E+01 -0.96362130552E+01  0.11957045654E+02  0.51100000000E-03 0. -1.
        -11    1    3    3    0    0 -0.31850784604E+02 -0.14764347920E+02  0.12230180334E+02  0.37175741561E+02  0.51100000000E-03 0.  1.
         12    1    3    3    0    0  0.38808454857E+02  0.12589955294E+02 -0.24808551990E+01  0.40874904100E+02  0.00000000000E+00 0. -1.
</event>
<event>
 7    1  0.2084210E-015  0.9000763E+02  0.7816164E-02  0.1186339E+00
        -11   -1    0    0    0    0  0.00000000000E+00  0.00000000000E+00  0.45593999997E+02  0.45594000000E+02  0.51100000000E-03 0. -1.
         11   -1    0    0    0    0 -0.00000000000E+00 -0.00000000000E+00 -0.45593999997E+02  0.45594000000E+02  0.51100000000E-03 0.  1.
    9900012    2    1    2    0    0 -0.11398240055E+01  0.14713097369E+00 -0.26913486410E+00  0.90007627236E+02  0.89999887115E+02 0.  0.
         12    1    1    2    0    0  0.11398240055E+01 -0.14713097369E+00  0.26913486410E+00  0.11803727640E+01  0.00000000000E+00 0. -1.
         11    1    3    3    0    0  0.34466261859E+02  0.20579849212E+01  0.11442966058E+02  0.36374441314E+02  0.51100000000E-03 0. -1.
        -11    1    3    3    0    0  0.48061493664E+01  0.92328666386E+01 -0.19265463744E+01  0.10585673304E+02  0.51100000000E-03 0.  1.
        -12    1    3    3    0    0 -0.40412235230E+02 -0.11143720586E+02 -0.97855545479E+01  0.43047512618E+02  0.00000000000E+00 0.  1.
</event>
<event>
 7    1  0.2084210E-015  0.9000783E+02  0.7816164E-02  0.1186339E+00
        -11   -1    0    0    0    0  0.00000000000E+00  0.00000000000E+00  0.45593999997E+02  0.45594000000E+02  0.51100000000E-03 0. -1.
         11   -1    0    0    0    0 -0.00000000000E+00 -0.00000000000E+00 -0.45593999997E+02  0.45594000000E+02  0.51100000000E-03 0.  1.
    9900012    2    1    2    0    0 -0.74055998843E+00 -0.81310028265E+00 -0.42805949186E+00  0.90007832175E+02  0.90000094760E+02 0.  0.
         12    1    1    2    0    0  0.74055998843E+00  0.81310028265E+00  0.42805949186E+00  0.11801678248E+01  0.00000000000E+00 0. -1.
         11    1    3    3    0    0  0.46200326414E+01  0.15766746895E+02  0.15746011385E+01  0.16504980408E+02  0.51100000000E-03 0. -1.
        -11    1    3    3    0    0 -0.25879950497E+01 -0.29270784349E+02 -0.30396875261E+02  0.42278204322E+02  0.51100000000E-03 0.  1.
         12    1    3    3    0    0 -0.27725975802E+01  0.12690937171E+02  0.28394214630E+02  0.31224647446E+02  0.00000000000E+00 0. -1.
</event>
<event>
 7    1  0.2084210E-015  0.9000759E+02  0.7816164E-02  0.1186339E+00
        -11   -1    0    0    0    0  0.00000000000E+00  0.00000000000E+00  0.45593999997E+02  0.45594000000E+02  0.51100000000E-03 0. -1.
         11   -1    0    0    0    0 -0.00000000000E+00 -0.00000000000E+00 -0.45593999997E+02  0.45594000000E+02  0.51100000000E-03 0.  1.
    9900012    2    1    2    0    0 -0.17807699432E+00  0.83085859918E+00 -0.81934927132E+00  0.90007588777E+02  0.89999848148E+02 0.  0.
         12    1    1    2    0    0  0.17807699432E+00 -0.83085859918E+00  0.81934927132E+00  0.11804112233E+01  0.00000000000E+00 0. -1.
         11    1    3    3    0    0  0.32647973486E+02  0.15919121107E+01 -0.16764860659E+02  0.36735335987E+02  0.51100000000E-03 0. -1.
        -11    1    3    3    0    0  0.86245380562E+01 -0.16547681331E+01 -0.18731435379E+00  0.87838488822E+01  0.51100000000E-03 0.  1.
        -12    1    3    3    0    0 -0.41450588536E+02  0.89371462158E+00  0.16132825741E+02  0.44488403908E+02  0.00000000000E+00 0.  1.
</event>
<event>
 7    1  0.2084210E-015  0.9000771E+02  0.7816164E-02  0.1186339E+00
        -11   -1    0    0    0    0  0.00000000000E+00  0.00000000000E+00  0.45593999997E+02  0.45594000000E+02  0.51100000000E-03 0. -1.
         11   -1    0    0    0    0 -0.00000000000E+00 -0.00000000000E+00 -0.45593999997E+02  0.45594000000E+02  0.51100000000E-03 0.  1.
    9900012    2    1    2    0    0 -0.10040683968E+01 -0.62042222204E+00  0.37891281354E-02  0.90007707055E+02  0.89999967988E+02 0.  0.
         12    1    1    2    0    0  0.10040683968E+01  0.62042222204E+00 -0.37891281354E-02  0.11802929452E+01  0.00000000000E+00 0. -1.
         11    1    3    3    0    0 -0.32752285061E+01  0.20705922473E+01 -0.11400113666E+02  0.12040642253E+02  0.51100000000E-03 0. -1.
        -11    1    3    3    0    0 -0.12790660626E+02 -0.37249129136E+02  0.71840205292E+01  0.40033845330E+02  0.51100000000E-03 0.  1.
         12    1    3    3    0    0  0.15061820735E+02  0.34558114667E+02  0.42198822645E+01  0.37933219472E+02  0.00000000000E+00 0. -1.
</event>
<event>
 7    1  0.2084210E-015  0.9000785E+02  0.7816164E-02  0.1186339E+00
        -11   -1    0    0    0    0  0.00000000000E+00  0.00000000000E+00  0.45593999997E+02  0.45594000000E+02  0.51100000000E-03 0.  1.
         11   -1    0    0    0    0 -0.00000000000E+00 -0.00000000000E+00 -0.45593999997E+02  0.45594000000E+02  0.51100000000E-03 0. -1.
    9900012    2    1    2    0    0 -0.94019622325E+00 -0.53349733554E+00  0.47345854791E+00  0.90007851136E+02  0.90000113971E+02 0.  0.
         12    1    1    2    0    0  0.94019622325E+00  0.53349733554E+00 -0.47345854791E+00  0.11801488643E+01  0.00000000000E+00 0. -1.
         11    1    3    3    0    0  0.33788950529E+02  0.16032711382E+02 -0.90346101698E+01  0.38475514205E+02  0.51100000000E-03 0. -1.
        -11    1    3    3    0    0 -0.59970243243E+01  0.95356007052E+01 -0.10234929164E+01  0.11311035300E+02  0.51100000000E-03 0.  1.
        -12    1    3    3    0    0 -0.28732122428E+02 -0.26101809423E+02  0.10531561634E+02  0.40221301631E+02  0.00000000000E+00 0.  1.
</event>
<event>
 7    1  0.2084210E-015  0.9000766E+02  0.7816164E-02  0.1186339E+00
        -11   -1    0    0    0    0  0.00000000000E+00  0.00000000000E+00  0.45593999997E+02  0.45594000000E+02  0.51100000000E-03 0.  1.
         11   -1    0    0    0    0 -0.00000000000E+00 -0.00000000000E+00 -0.45593999997E+02  0.45594000000E+02  0.51100000000E-03 0. -1.
    9900012    2    1    2    0    0  0.42903004118E+00  0.41921550196E+00  0.10165555226E+01  0.90007663800E+02  0.89999924163E+02 0.  0.
         12    1    1    2    0    0 -0.42903004118E+00 -0.41921550196E+00 -0.10165555226E+01  0.11803361995E+01  0.00000000000E+00 0. -1.
         11    1    3    3    0    0  0.54932609029E+01  0.25030911576E+01  0.21665387487E+01  0.64136784376E+01  0.51100000000E-03 0. -1.
        -11    1    3    3    0    0 -0.25797022696E+02 -0.18745753654E+02  0.29200108979E+02  0.43238131605E+02  0.51100000000E-03 0.  1.
         12    1    3    3    0    0  0.20732791834E+02  0.16661877998E+02 -0.30350092205E+02  0.40355853758E+02  0.00000000000E+00 0. -1.
</event>
<event>
 7    1  0.2084210E-015  0.9000773E+02  0.7816164E-02  0.1186339E+00
        -11   -1    0    0    0    0  0.00000000000E+00  0.00000000000E+00  0.45593999997E+02  0.45594000000E+02  0.51100000000E-03 0.  1.
         11   -1    0    0    0    0 -0.00000000000E+00 -0.00000000000E+00 -0.45593999997E+02  0.45594000000E+02  0.51100000000E-03 0. -1.
    9900012    2    1    2    0    0  0.58124890992E+00  0.13226563440E+00  0.10186746078E+01  0.90007727807E+02  0.89999989014E+02 0.  0.
         12    1    1    2    0    0 -0.58124890992E+00 -0.13226563440E+00 -0.10186746078E+01  0.11802721931E+01  0.00000000000E+00 0. -1.
         11    1    3    3    0    0 -0.75184220428E+01  0.46337475919E+01  0.16143103485E+01  0.89779889130E+01  0.51100000000E-03 0. -1.
        -11    1    3    3    0    0 -0.11762668491E+02 -0.23052235386E+01  0.36760017234E+02  0.38664884493E+02  0.51100000000E-03 0.  1.
         12    1    3    3    0    0  0.19862339443E+02 -0.21962584189E+01 -0.37355652975E+02  0.42364854400E+02  0.00000000000E+00 0. -1.
</event>
<event>
 7    1  0.2084210E-015  0.9000770E+02  0.7816164E-02  0.1186339E+00
        -11   -1    0    0    0    0  0.00000000000E+00  0.00000000000E+00  0.45593999997E+02  0.45594000000E+02  0.51100000000E-03 0.  1.
         11   -1    0    0    0    0 -0.00000000000E+00 -0.00000000000E+00 -0.45593999997E+02  0.45594000000E+02  0.51100000000E-03 0. -1.
    9900012    2    1    2    0    0  0.73279812946E+00  0.53836756715E+00  0.75250837891E+00  0.90007702751E+02  0.89999963627E+02 0.  0.
         12    1    1    2    0    0 -0.73279812946E+00 -0.53836756715E+00 -0.75250837891E+00  0.11802972491E+01  0.00000000000E+00 0. -1.
         11    1    3    3    0    0  0.13026191473E+01  0.62050861256E+01 -0.74943506280E+01  0.98165779203E+01  0.51100000000E-03 0. -1.
        -11    1    3    3    0    0  0.18073351057E+02 -0.84781290306E+00  0.39520142980E+02  0.43465003239E+02  0.51100000000E-03 0.  1.
         12    1    3    3    0    0 -0.18643172075E+02 -0.48189056554E+01 -0.31273283973E+02  0.36726121592E+02  0.00000000000E+00 0. -1.
</event>
<event>
 7    1  0.2084210E-015  0.9000795E+02  0.7816164E-02  0.1186339E+00
        -11   -1    0    0    0    0  0.00000000000E+00  0.00000000000E+00  0.45593999997E+02  0.45594000000E+02  0.51100000000E-03 0.  1.
         11   -1    0    0    0    0 -0.00000000000E+00 -0.00000000000E+00 -0.45593999997E+02  0.45594000000E+02  0.51100000000E-03 0. -1.
    9900012    2    1    2    0    0  0.85729982133E+00 -0.79416096967E+00 -0.16389938072E+00  0.90007950155E+02  0.90000214297E+02 0.  0.
         12    1    1    2    0    0 -0.85729982133E+00  0.79416096967E+00  0.16389938072E+00  0.11800498449E+01  0.00000000000E+00 0. -1.
         11    1    3    3    0    0 -0.34897166444E+02  0.40636005891E+01 -0.84452526671E+01  0.36133742796E+02  0.51100000000E-03 0. -1.
        -11    1    3    3    0    0 -0.26139976956E+01  0.48235737026E+01 -0.91223845924E+01  0.10645080936E+02  0.51100000000E-03 0.  1.
        -12    1    3    3    0    0  0.38368463961E+02 -0.96813352613E+01  0.17403737879E+02  0.43229126423E+02  0.00000000000E+00 0.  1.
</event>
<event>
 8    1  0.2084210E-015  0.9000832E+02  0.7816164E-02  0.1186338E+00
        -11   -1    0    0    0    0  0.00000000000E+00  0.00000000000E+00  0.45593999997E+02  0.45594000000E+02  0.51100000000E-03 0. -1.
         11   -1    0    0    0    0 -0.00000000000E+00 -0.00000000000E+00 -0.45593999997E+02  0.45594000000E+02  0.51100000000E-03 0.  1.
    9900012    2    1    2    0    0 -0.11626180906E+01  0.19985039213E+00  0.51538300968E-02  0.90008318871E+02  0.90000587878E+02 0.  0.
         23    2    3    3    0    0  0.80939249266E+01  0.77012219268E+01 -0.22940577791E+02  0.64153710710E+02  0.58860921235E+02 0.  0.
         12    1    1    2    0    0  0.11626180906E+01 -0.19985039213E+00 -0.51538300968E-02  0.11796811289E+01  0.00000000000E+00 0. -1.
         11    1    4    4    0    0  0.12707929521E+02  0.65466751850E+01 -0.42074953974E+02  0.44437058643E+02  0.51100000000E-03 0.  1.
        -11    1    4    4    0    0 -0.46140045948E+01  0.11545467418E+01  0.19134376183E+02  0.19716652067E+02  0.51100000000E-03 0. -1.
        -12    1    3    3    0    0 -0.92565430172E+01 -0.75013715347E+01  0.22945731621E+02  0.25854608161E+02  0.00000000000E+00 0.  1.
</event>
<event>
 7    1  0.2084210E-015  0.9000763E+02  0.7816164E-02  0.1186339E+00
        -11   -1    0    0    0    0  0.00000000000E+00  0.00000000000E+00  0.45593999997E+02  0.45594000000E+02  0.51100000000E-03 0. -1.
         11   -1    0    0    0    0 -0.00000000000E+00 -0.00000000000E+00 -0.45593999997E+02  0.45594000000E+02  0.51100000000E-03 0.  1.
    9900012    2    1    2    0    0 -0.78536275969E+00  0.87847145056E+00 -0.68974108772E-01  0.90007633878E+02  0.89999893845E+02 0.  0.
         12    1    1    2    0    0  0.78536275969E+00 -0.87847145056E+00  0.68974108772E-01  0.11803661218E+01  0.00000000000E+00 0. -1.
         11    1    3    3    0    0  0.40682229082E+01  0.17984973547E+02  0.33136092147E+02  0.37921106446E+02  0.51100000000E-03 0. -1.
        -11    1    3    3    0    0  0.85986373619E+01  0.58665669257E+01 -0.12330929981E+01  0.10482065187E+02  0.51100000000E-03 0.  1.
        -12    1    3    3    0    0 -0.13452223030E+02 -0.22973069022E+02 -0.31971973257E+02  0.41604462245E+02  0.00000000000E+00 0.  1.
</event>
<event>
 7    1  0.2084210E-015  0.9000780E+02  0.7816164E-02  0.1186339E+00
        -11   -1    0    0    0    0  0.00000000000E+00  0.00000000000E+00  0.45593999997E+02  0.45594000000E+02  0.51100000000E-03 0.  1.
         11   -1    0    0    0    0 -0.00000000000E+00 -0.00000000000E+00 -0.45593999997E+02  0.45594000000E+02  0.51100000000E-03 0. -1.
    9900012    2    1    2    0    0 -0.29099290047E+00 -0.11432613288E+01 -0.33951023335E-01  0.90007798320E+02  0.90000060458E+02 0.  0.
         12    1    1    2    0    0  0.29099290047E+00  0.11432613288E+01  0.33951023335E-01  0.11802016802E+01  0.00000000000E+00 0. -1.
         11    1    3    3    0    0 -0.17938441274E+02 -0.12813825071E+02  0.18517464236E+01  0.22122629893E+02  0.51100000000E-03 0. -1.
        -11    1    3    3    0    0  0.12871031423E+01 -0.61583636842E+01  0.28417786256E+02  0.29105886925E+02  0.51100000000E-03 0.  1.
         12    1    3    3    0    0  0.16360345231E+02  0.17828927426E+02 -0.30303483703E+02  0.38779281502E+02  0.00000000000E+00 0. -1.
</event>
<event>
 7    1  0.2084210E-015  0.9000774E+02  0.7816164E-02  0.1186339E+00
        -11   -1    0    0    0    0  0.00000000000E+00  0.00000000000E+00  0.45593999997E+02  0.45594000000E+02  0.51100000000E-03 0. -1.
         11   -1    0    0    0    0 -0.00000000000E+00 -0.00000000000E+00 -0.45593999997E+02  0.45594000000E+02  0.51100000000E-03 0.  1.
    9900012    2    1    2    0    0  0.94517765706E+00  0.82137458333E-01 -0.70206749282E+00  0.90007743193E+02  0.90000004603E+02 0.  0.
         12    1    1    2    0    0 -0.94517765706E+00 -0.82137458333E-01  0.70206749282E+00  0.11802568068E+01  0.00000000000E+00 0. -1.
         11    1    3    3    0    0  0.21718915656E+01 -0.79622227075E+01 -0.27171068782E+00  0.82575983418E+01  0.51100000000E-03 0. -1.
        -11    1    3    3    0    0  0.20924723093E+02 -0.55621571858E+01 -0.33375615570E+02  0.39783329976E+02  0.51100000000E-03 0.  1.
         12    1    3    3    0    0 -0.22151437001E+02  0.13606517352E+02  0.32945258765E+02  0.41966814875E+02  0.00000000000E+00 0. -1.
</event>
<event>
 7    1  0.2084210E-015  0.9000776E+02  0.7816164E-02  0.1186339E+00
        -11   -1    0    0    0    0  0.00000000000E+00  0.00000000000E+00  0.45593999997E+02  0.45594000000E+02  0.51100000000E-03 0.  1.
         11   -1    0    0    0    0 -0.00000000000E+00 -0.00000000000E+00 -0.45593999997E+02  0.45594000000E+02  0.51100000000E-03 0. -1.
    9900012    2    1    2    0    0  0.10002423100E+01 -0.62496864053E+00 -0.43610367761E-01  0.90007757506E+02  0.90000019105E+02 0.  0.
         12    1    1    2    0    0 -0.10002423100E+01  0.62496864053E+00  0.43610367761E-01  0.11802424939E+01  0.00000000000E+00 0. -1.
         11    1    3    3    0    0  0.54883193861E+01  0.32829735783E+02 -0.90936240657E+01  0.34505176426E+02  0.51100000000E-03 0. -1.
        -11    1    3    3    0    0 -0.15843937728E+01  0.83369375806E+01 -0.66329633982E+01  0.10770841915E+02  0.51100000000E-03 0.  1.
        -12    1    3    3    0    0 -0.29036833033E+01 -0.41791642004E+02  0.15682977096E+02  0.44731739165E+02  0.00000000000E+00 0.  1.
</event>
<event>
 8    1  0.2084210E-015  0.9000768E+02  0.7816164E-02  0.1186339E+00
        -11   -1    0    0    0    0  0.00000000000E+00  0.00000000000E+00  0.45593999997E+02  0.45594000000E+02  0.51100000000E-03 0.  1.
         11   -1    0    0    0    0 -0.00000000000E+00 -0.00000000000E+00 -0.45593999997E+02  0.45594000000E+02  0.51100000000E-03 0. -1.
    9900012    2    1    2    0    0  0.97282080239E+00  0.42616264763E+00  0.51493382525E+00  0.90007681501E+02  0.89999942096E+02 0.  0.
         23    2    3    3    0    0  0.15869866729E+02 -0.29296783044E+01  0.62412248095E+01  0.73698970507E+02  0.71639023455E+02 0.  0.
         12    1    1    2    0    0 -0.97282080239E+00 -0.42616264763E+00 -0.51493382525E+00  0.11803184995E+01  0.00000000000E+00 0. -1.
         11    1    4    4    0    0 -0.19199598953E+01 -0.34564785904E+02  0.12623876387E+02  0.36847970444E+02  0.51100000000E-03 0. -1.
        -11    1    4    4    0    0  0.17789826625E+02  0.31635107600E+02 -0.63826515772E+01  0.36851000062E+02  0.51100000000E-03 0.  1.
         12    1    3    3    0    0 -0.14897045927E+02  0.33558409520E+01 -0.57262909842E+01  0.16308710994E+02  0.00000000000E+00 0. -1.
</event>
<event>
 7    1  0.2084210E-015  0.9000769E+02  0.7816164E-02  0.1186339E+00
        -11   -1    0    0    0    0  0.00000000000E+00  0.00000000000E+00  0.45593999997E+02  0.45594000000E+02  0.51100000000E-03 0.  1.
         11   -1    0    0    0    0 -0.00000000000E+00 -0.00000000000E+00 -0.45593999997E+02  0.45594000000E+02  0.51100000000E-03 0. -1.
    9900012    2    1    2    0    0  0.62192439643E+00 -0.92034569056E+00  0.39913461943E+00  0.90007688774E+02  0.89999949466E+02 0.  0.
         12    1    1    2    0    0 -0.62192439643E+00  0.92034569056E+00 -0.39913461943E+00  0.11803112257E+01  0.00000000000E+00 0. -1.
         11    1    3    3    0    0 -0.30935137767E+01 -0.50856426912E+01 -0.35724785983E+02  0.36217315235E+02  0.51100000000E-03 0. -1.
        -11    1    3    3    0    0  0.12510587283E+02  0.62766101137E+00 -0.35338702132E+01  0.13015259945E+02  0.51100000000E-03 0.  1.
        -12    1    3    3    0    0 -0.87951491096E+01  0.35376359892E+01  0.39657790815E+02  0.40775113594E+02  0.00000000000E+00 0.  1.
</event>
<event>
 7    1  0.2084210E-015  0.9000774E+02  0.7816164E-02  0.1186339E+00
        -11   -1    0    0    0    0  0.00000000000E+00  0.00000000000E+00  0.45593999997E+02  0.45594000000E+02  0.51100000000E-03 0.  1.
         11   -1    0    0    0    0 -0.00000000000E+00 -0.00000000000E+00 -0.45593999997E+02  0.45594000000E+02  0.51100000000E-03 0. -1.
    9900012    2    1    2    0    0 -0.80216481508E+00 -0.82855028916E+00 -0.25110274808E+00  0.90007738774E+02  0.90000000126E+02 0.  0.
         12    1    1    2    0    0  0.80216481508E+00  0.82855028916E+00  0.25110274808E+00  0.11802612263E+01  0.00000000000E+00 0. -1.
         11    1    3    3    0    0 -0.67404055827E+01 -0.21802806090E+01  0.58104809028E+01  0.91623348299E+01  0.51100000000E-03 0. -1.
        -11    1    3    3    0    0 -0.23025221692E+02  0.23594743444E+02  0.17559997531E+02  0.37352727687E+02  0.51100000000E-03 0.  1.
         12    1    3    3    0    0  0.28963462459E+02 -0.22243013124E+02 -0.23621581181E+02  0.43492676257E+02  0.00000000000E+00 0. -1.
</event>
<event>
 7    1  0.2084210E-015  0.9000778E+02  0.7816164E-02  0.1186339E+00
        -11   -1    0    0    0    0  0.00000000000E+00  0.00000000000E+00  0.45593999997E+02  0.45594000000E+02  0.51100000000E-03 0. -1.
         11   -1    0    0    0    0 -0.00000000000E+00 -0.00000000000E+00 -0.45593999997E+02  0.45594000000E+02  0.51100000000E-03 0.  1.
    9900012    2    1    2    0    0  0.62360977436E+00  0.91440862235E+00  0.40974510698E+00  0.90007778270E+02  0.90000040143E+02 0.  0.
         12    1    1    2    0    0 -0.62360977436E+00 -0.91440862235E+00 -0.40974510698E+00  0.11802217300E+01  0.00000000000E+00 0. -1.
         11    1    3    3    0    0 -0.67690424801E+01 -0.45714908839E+01  0.30009076987E+01  0.87019487632E+01  0.51100000000E-03 0. -1.
        -11    1    3    3    0    0 -0.26568948951E+02 -0.11847111948E+01  0.25412893176E+02  0.36784884515E+02  0.51100000000E-03 0.  1.
         12    1    3    3    0    0  0.33961601205E+02  0.66706107011E+01 -0.28004055768E+02  0.44520944992E+02  0.00000000000E+00 0. -1.
</event>
<event>
 7    1  0.2084210E-015  0.9000772E+02  0.7816164E-02  0.1186339E+00
        -11   -1    0    0    0    0  0.00000000000E+00  0.00000000000E+00  0.45593999997E+02  0.45594000000E+02  0.51100000000E-03 0.  1.
         11   -1    0    0    0    0 -0.00000000000E+00 -0.00000000000E+00 -0.45593999997E+02  0.45594000000E+02  0.51100000000E-03 0. -1.
    9900012    2    1    2    0    0 -0.20181681733E+00  0.85540933273E+00  0.78778733654E+00  0.90007718660E+02  0.89999979746E+02 0.  0.
         12    1    1    2    0    0  0.20181681733E+00 -0.85540933273E+00 -0.78778733654E+00  0.11802813401E+01  0.00000000000E+00 0. -1.
         11    1    3    3    0    0  0.35869149221E+02 -0.12938889025E+02  0.16113101682E+01  0.38165521558E+02  0.51100000000E-03 0. -1.
        -11    1    3    3    0    0  0.30527143386E+01 -0.46019642948E+01  0.59093955933E+01  0.80881454452E+01  0.51100000000E-03 0.  1.
        -12    1    3    3    0    0 -0.39123680377E+02  0.18396262653E+02 -0.67329184250E+01  0.43754051657E+02  0.00000000000E+00 0.  1.
</event>
<event>
 7    1  0.2084210E-015  0.9000788E+02  0.7816164E-02  0.1186339E+00
        -11   -1    0    0    0    0  0.00000000000E+00  0.00000000000E+00  0.45593999997E+02  0.45594000000E+02  0.51100000000E-03 0.  1.
         11   -1    0    0    0    0 -0.00000000000E+00 -0.00000000000E+00 -0.45593999997E+02  0.45594000000E+02  0.51100000000E-03 0. -1.
    9900012    2    1    2    0    0 -0.10255507952E+01  0.54894107548E+00  0.19895716882E+00  0.90007883610E+02  0.90000146874E+02 0.  0.
         12    1    1    2    0    0  0.10255507952E+01 -0.54894107548E+00 -0.19895716882E+00  0.11801163896E+01  0.00000000000E+00 0. -1.
         11    1    3    3    0    0 -0.16809999845E+02 -0.20627210119E-01 -0.27198114525E+02  0.31973644682E+02  0.51100000000E-03 0. -1.
        -11    1    3    3    0    0 -0.29806038314E+01 -0.12752872709E+01 -0.13029426151E+02  0.13426701117E+02  0.51100000000E-03 0.  1.
        -12    1    3    3    0    0  0.18765052881E+02  0.18448555565E+01  0.40426497844E+02  0.44607537811E+02  0.00000000000E+00 0.  1.
</event>
<event>
 7    1  0.2084210E-015  0.9000786E+02  0.7816164E-02  0.1186339E+00
        -11   -1    0    0    0    0  0.00000000000E+00  0.00000000000E+00  0.45593999997E+02  0.45594000000E+02  0.51100000000E-03 0.  1.
         11   -1    0    0    0    0 -0.00000000000E+00 -0.00000000000E+00 -0.45593999997E+02  0.45594000000E+02  0.51100000000E-03 0. -1.
    9900012    2    1    2    0    0  0.98066376174E+00 -0.64328393800E+00  0.13123550669E+00  0.90007856620E+02  0.90000119528E+02 0.  0.
         12    1    1    2    0    0 -0.98066376174E+00  0.64328393800E+00 -0.13123550669E+00  0.11801433797E+01  0.00000000000E+00 0. -1.
         11    1    3    3    0    0 -0.60354130657E+01 -0.31646634769E+01 -0.86215094246E+01  0.10989619230E+02  0.51100000000E-03 0. -1.
        -11    1    3    3    0    0  0.41832897964E+02  0.95712476072E+01  0.67189273389E+01  0.43436667894E+02  0.51100000000E-03 0.  1.
         12    1    3    3    0    0 -0.34816821137E+02 -0.70498680683E+01  0.20338175924E+01  0.35581569497E+02  0.00000000000E+00 0. -1.
</event>
<event>
 7    1  0.2084210E-015  0.9000773E+02  0.7816164E-02  0.1186339E+00
        -11   -1    0    0    0    0  0.00000000000E+00  0.00000000000E+00  0.45593999997E+02  0.45594000000E+02  0.51100000000E-03 0. -1.
         11   -1    0    0    0    0 -0.00000000000E+00 -0.00000000000E+00 -0.45593999997E+02  0.45594000000E+02  0.51100000000E-03 0.  1.
    9900012    2    1    2    0    0 -0.69124378025E+00  0.91330157923E+00  0.28476660083E+00  0.90007733185E+02  0.89999994463E+02 0.  0.
         12    1    1    2    0    0  0.69124378025E+00 -0.91330157923E+00 -0.28476660083E+00  0.11802668153E+01  0.00000000000E+00 0. -1.
         11    1    3    3    0    0  0.98356272904E+00  0.11824850953E+02  0.68155564046E+01  0.13683797173E+02  0.51100000000E-03 0. -1.
        -11    1    3    3    0    0 -0.40813191816E+01 -0.17327277128E+02 -0.39142398922E+02  0.43000222006E+02  0.51100000000E-03 0.  1.
         12    1    3    3    0    0  0.24065126723E+01  0.64157277536E+01  0.32611609118E+02  0.33323714006E+02  0.00000000000E+00 0. -1.
</event>
<event>
 7    1  0.2084210E-015  0.9000779E+02  0.7816164E-02  0.1186339E+00
        -11   -1    0    0    0    0  0.00000000000E+00  0.00000000000E+00  0.45593999997E+02  0.45594000000E+02  0.51100000000E-03 0.  1.
         11   -1    0    0    0    0 -0.00000000000E+00 -0.00000000000E+00 -0.45593999997E+02  0.45594000000E+02  0.51100000000E-03 0. -1.
    9900012    2    1    2    0    0 -0.92054074042E+00 -0.60071176078E+00  0.42971360446E+00  0.90007786606E+02  0.90000048589E+02 0.  0.
         12    1    1    2    0    0  0.92054074042E+00  0.60071176078E+00 -0.42971360446E+00  0.11802133943E+01  0.00000000000E+00 0. -1.
         11    1    3    3    0    0 -0.80460214453E+01 -0.28147531792E+02 -0.16196921044E+02  0.33456871621E+02  0.51100000000E-03 0. -1.
        -11    1    3    3    0    0  0.15622522585E+02  0.51816954919E+00 -0.92641372985E+01  0.18170194048E+02  0.51100000000E-03 0.  1.
        -12    1    3    3    0    0 -0.84970418799E+01  0.27028650482E+02  0.25890771947E+02  0.38380720937E+02  0.00000000000E+00 0.  1.
</event>
<event>
 7    1  0.2084210E-015  0.9000901E+02  0.7816164E-02  0.1186337E+00
        -11   -1    0    0    0    0  0.00000000000E+00  0.00000000000E+00  0.45593999997E+02  0.45594000000E+02  0.51100000000E-03 0. -1.
         11   -1    0    0    0    0 -0.00000000000E+00 -0.00000000000E+00 -0.45593999997E+02  0.45594000000E+02  0.51100000000E-03 0.  1.
    9900012    2    1    2    0    0 -0.16395809186E+00 -0.10179055665E+01  0.57184216468E+00  0.90009009983E+02  0.90001288106E+02 0.  0.
         12    1    1    2    0    0  0.16395809186E+00  0.10179055665E+01 -0.57184216468E+00  0.11789900167E+01  0.00000000000E+00 0. -1.
         11    1    3    3    0    0 -0.45339170527E+01  0.35362727254E+01 -0.74089627665E+01  0.93783984862E+01  0.51100000000E-03 0. -1.
        -11    1    3    3    0    0  0.35014377060E+02  0.30205658666E+01 -0.18238530319E+02  0.39595131109E+02  0.51100000000E-03 0.  1.
         12    1    3    3    0    0 -0.30644418099E+02 -0.75747441585E+01  0.26219335250E+02  0.41035480388E+02  0.00000000000E+00 0. -1.
</event>
<event>
 7    1  0.2084210E-015  0.9000773E+02  0.7816164E-02  0.1186339E+00
        -11   -1    0    0    0    0  0.00000000000E+00  0.00000000000E+00  0.45593999997E+02  0.45594000000E+02  0.51100000000E-03 0. -1.
         11   -1    0    0    0    0 -0.00000000000E+00 -0.00000000000E+00 -0.45593999997E+02  0.45594000000E+02  0.51100000000E-03 0.  1.
    9900012    2    1    2    0    0 -0.38535640896E+00  0.10765232229E+01  0.29264175222E+00  0.90007728418E+02  0.89999989633E+02 0.  0.
         12    1    1    2    0    0  0.38535640896E+00 -0.10765232229E+01 -0.29264175222E+00  0.11802715817E+01  0.00000000000E+00 0. -1.
         11    1    3    3    0    0  0.15328669589E+01 -0.36039405053E+01 -0.93216110037E+01  0.10110909961E+02  0.51100000000E-03 0. -1.
        -11    1    3    3    0    0 -0.91064498297E+01  0.33232929008E+02 -0.18565593411E+02  0.39141234752E+02  0.51100000000E-03 0.  1.
         12    1    3    3    0    0  0.71882264618E+01 -0.28552465280E+02  0.28179846166E+02  0.40755583705E+02  0.00000000000E+00 0. -1.
</event>
<event>
 7    1  0.2084210E-015  0.9000783E+02  0.7816164E-02  0.1186339E+00
        -11   -1    0    0    0    0  0.00000000000E+00  0.00000000000E+00  0.45593999997E+02  0.45594000000E+02  0.51100000000E-03 0.  1.
         11   -1    0    0    0    0 -0.00000000000E+00 -0.00000000000E+00 -0.45593999997E+02  0.45594000000E+02  0.51100000000E-03 0. -1.
    9900012    2    1    2    0    0 -0.93697039293E-01 -0.29870485730E+00  0.11378928237E+01  0.90007828908E+02  0.90000091450E+02 0.  0.
         12    1    1    2    0    0  0.93697039293E-01  0.29870485730E+00 -0.11378928237E+01  0.11801710915E+01  0.00000000000E+00 0. -1.
         11    1    3    3    0    0  0.61180157525E+01  0.25372256604E+02 -0.30410957587E+02  0.40075027929E+02  0.51100000000E-03 0. -1.
        -11    1    3    3    0    0  0.72066531883E+01 -0.15692487651E+01 -0.80065261831E+00  0.74188568351E+01  0.51100000000E-03 0.  1.
        -12    1    3    3    0    0 -0.13418365980E+02 -0.24101712696E+02  0.32349503029E+02  0.42513944144E+02  0.00000000000E+00 0.  1.
</event>
<event>
 7    1  0.2866290E-015  0.9000771E+02  0.7816164E-02  0.1186339E+00
        -11   -1    0    0    0    0  0.00000000000E+00  0.00000000000E+00  0.45593999997E+02  0.45594000000E+02  0.51100000000E-03 0. -1.
         11   -1    0    0    0    0 -0.00000000000E+00 -0.00000000000E+00 -0.45593999997E+02  0.45594000000E+02  0.51100000000E-03 0.  1.
    9900012    2    1    2    0    0 -0.61911313192E+00  0.33858785413E+00 -0.94612004943E+00  0.90007709378E+02  0.89999970342E+02 0.  0.
         12    1    1    2    0    0  0.61911313192E+00 -0.33858785413E+00  0.94612004943E+00  0.11802906223E+01  0.00000000000E+00 0. -1.
         11    1    3    3    0    0 -0.60981946362E+01  0.24970911751E+02  0.29362235115E+02  0.39024034424E+02  0.51100000000E-03 0. -1.
        -11    1    3    3    0    0  0.50390699649E+01 -0.59445988752E+01  0.62063278626E+01  0.99623786164E+01  0.51100000000E-03 0.  1.
        -12    1    3    3    0    0  0.44001153947E+00 -0.18687725022E+02 -0.36514683027E+02  0.41021296338E+02  0.00000000000E+00 0.  1.
</event>
<event>
 7    1  0.2084210E-015  0.9000776E+02  0.7816164E-02  0.1186339E+00
        -11   -1    0    0    0    0  0.00000000000E+00  0.00000000000E+00  0.45593999997E+02  0.45594000000E+02  0.51100000000E-03 0.  1.
         11   -1    0    0    0    0 -0.00000000000E+00 -0.00000000000E+00 -0.45593999997E+02  0.45594000000E+02  0.51100000000E-03 0. -1.
    9900012    2    1    2    0    0 -0.18944313419E+00  0.59527129108E-01  0.11634098941E+01  0.90007764955E+02  0.90000026652E+02 0.  0.
         12    1    1    2    0    0  0.18944313419E+00 -0.59527129108E-01 -0.11634098941E+01  0.11802350452E+01  0.00000000000E+00 0. -1.
         11    1    3    3    0    0  0.31923542945E+02  0.16575472953E+02 -0.12170206328E+02  0.37973317212E+02  0.51100000000E-03 0. -1.
        -11    1    3    3    0    0  0.11881179162E+01  0.84801304312E+01  0.34990019207E+01  0.92502568080E+01  0.51100000000E-03 0.  1.
        -12    1    3    3    0    0 -0.33301103996E+02 -0.24996076255E+02  0.98346143010E+01  0.42784190935E+02  0.00000000000E+00 0.  1.
</event>
<event>
 7    1  0.2084210E-015  0.9000777E+02  0.7816164E-02  0.1186339E+00
        -11   -1    0    0    0    0  0.00000000000E+00  0.00000000000E+00  0.45593999997E+02  0.45594000000E+02  0.51100000000E-03 0.  1.
         11   -1    0    0    0    0 -0.00000000000E+00 -0.00000000000E+00 -0.45593999997E+02  0.45594000000E+02  0.51100000000E-03 0. -1.
    9900012    2    1    2    0    0  0.10520865052E+01  0.48737421480E+00  0.22026674574E+00  0.90007772446E+02  0.90000034242E+02 0.  0.
         12    1    1    2    0    0 -0.10520865052E+01 -0.48737421480E+00 -0.22026674574E+00  0.11802275539E+01  0.00000000000E+00 0. -1.
         11    1    3    3    0    0  0.13847744177E+02 -0.35699807448E+02  0.75157590067E+01  0.39022082265E+02  0.51100000000E-03 0. -1.
        -11    1    3    3    0    0  0.71283842097E+01  0.68174012541E+00 -0.73643969649E+01  0.10271950835E+02  0.51100000000E-03 0.  1.
        -12    1    3    3    0    0 -0.19924041882E+02  0.35505441537E+02  0.68904703946E-01  0.40713739346E+02  0.00000000000E+00 0.  1.
</event>
<event>
 7    1  0.2084210E-015  0.9000773E+02  0.7816164E-02  0.1186339E+00
        -11   -1    0    0    0    0  0.00000000000E+00  0.00000000000E+00  0.45593999997E+02  0.45594000000E+02  0.51100000000E-03 0. -1.
         11   -1    0    0    0    0 -0.00000000000E+00 -0.00000000000E+00 -0.45593999997E+02  0.45594000000E+02  0.51100000000E-03 0.  1.
    9900012    2    1    2    0    0  0.53863236825E+00  0.97945499471E+00 -0.37893301291E+00  0.90007725819E+02  0.89999987000E+02 0.  0.
         12    1    1    2    0    0 -0.53863236825E+00 -0.97945499471E+00  0.37893301291E+00  0.11802741813E+01  0.00000000000E+00 0. -1.
         11    1    3    3    0    0  0.41709733206E+01  0.80927254675E+01 -0.18645748984E+01  0.92933236114E+01  0.51100000000E-03 0. -1.
        -11    1    3    3    0    0 -0.41042932124E+02  0.33164121374E+01 -0.44875512497E+01  0.41420514039E+02  0.51100000000E-03 0.  1.
         12    1    3    3    0    0  0.37410591171E+02 -0.10429682610E+02  0.59731931351E+01  0.39293888168E+02  0.00000000000E+00 0. -1.
</event>
<event>
 7    1  0.2084210E-015  0.9000772E+02  0.7816164E-02  0.1186339E+00
        -11   -1    0    0    0    0  0.00000000000E+00  0.00000000000E+00  0.45593999997E+02  0.45594000000E+02  0.51100000000E-03 0. -1.
         11   -1    0    0    0    0 -0.00000000000E+00 -0.00000000000E+00 -0.45593999997E+02  0.45594000000E+02  0.51100000000E-03 0.  1.
    9900012    2    1    2    0    0 -0.50780977720E+00  0.98879726750E+00 -0.39681027375E+00  0.90007724948E+02  0.89999986117E+02 0.  0.
         12    1    1    2    0    0  0.50780977720E+00 -0.98879726750E+00  0.39681027375E+00  0.11802750524E+01  0.00000000000E+00 0. -1.
         11    1    3    3    0    0 -0.92597714443E+01 -0.57905161428E+01 -0.30544030350E+01  0.11340318451E+02  0.51100000000E-03 0. -1.
        -11    1    3    3    0    0  0.23271998253E+02 -0.92753954610E+00 -0.32425993099E+02  0.39923567739E+02  0.51100000000E-03 0.  1.
         12    1    3    3    0    0 -0.14520036586E+02  0.77068529564E+01  0.35083585860E+02  0.38743838758E+02  0.00000000000E+00 0. -1.
</event>
<event>
 7    1  0.2084210E-015  0.9000773E+02  0.7816164E-02  0.1186339E+00
        -11   -1    0    0    0    0  0.00000000000E+00  0.00000000000E+00  0.45593999997E+02  0.45594000000E+02  0.51100000000E-03 0.  1.
         11   -1    0    0    0    0 -0.00000000000E+00 -0.00000000000E+00 -0.45593999997E+02  0.45594000000E+02  0.51100000000E-03 0. -1.
    9900012    2    1    2    0    0 -0.33793279616E+00  0.11060392084E+01 -0.23563468604E+00  0.90007726722E+02  0.89999987915E+02 0.  0.
         12    1    1    2    0    0  0.33793279616E+00 -0.11060392084E+01  0.23563468604E+00  0.11802732779E+01  0.00000000000E+00 0. -1.
         11    1    3    3    0    0  0.32137216447E+01  0.23205817321E+01 -0.79011704749E+01  0.88397738387E+01  0.51100000000E-03 0. -1.
        -11    1    3    3    0    0  0.35233461677E+02 -0.49500788825E+01  0.19334620279E+02  0.40493550650E+02  0.51100000000E-03 0.  1.
         12    1    3    3    0    0 -0.38785116118E+02  0.37355363589E+01 -0.11669084490E+02  0.40674402233E+02  0.00000000000E+00 0. -1.
</event>
<event>
 7    1  0.2084210E-015  0.9000772E+02  0.7816164E-02  0.1186339E+00
        -11   -1    0    0    0    0  0.00000000000E+00  0.00000000000E+00  0.45593999997E+02  0.45594000000E+02  0.51100000000E-03 0.  1.
         11   -1    0    0    0    0 -0.00000000000E+00 -0.00000000000E+00 -0.45593999997E+02  0.45594000000E+02  0.51100000000E-03 0. -1.
    9900012    2    1    2    0    0 -0.94377521324E+00 -0.70542893251E+00 -0.68706785219E-01  0.90007719417E+02  0.89999980513E+02 0.  0.
         12    1    1    2    0    0  0.94377521324E+00  0.70542893251E+00  0.68706785219E-01  0.11802805829E+01  0.00000000000E+00 0. -1.
         11    1    3    3    0    0  0.69871112048E+01 -0.20416646431E+02  0.67666985309E+01  0.22615202492E+02  0.51100000000E-03 0. -1.
        -11    1    3    3    0    0 -0.86448107442E+01 -0.37610708921E+01  0.25638823707E+02  0.27317168382E+02  0.51100000000E-03 0.  1.
        -12    1    3    3    0    0  0.71392432611E+00  0.23472288391E+02 -0.32474229023E+02  0.40075348543E+02  0.00000000000E+00 0.  1.
</event>
<event>
 7    1  0.2084210E-015  0.9000767E+02  0.7816164E-02  0.1186339E+00
        -11   -1    0    0    0    0  0.00000000000E+00  0.00000000000E+00  0.45593999997E+02  0.45594000000E+02  0.51100000000E-03 0.  1.
         11   -1    0    0    0    0 -0.00000000000E+00 -0.00000000000E+00 -0.45593999997E+02  0.45594000000E+02  0.51100000000E-03 0. -1.
    9900012    2    1    2    0    0 -0.11740829852E+01  0.65281139445E-01 -0.10216079913E+00  0.90007674065E+02  0.89999934563E+02 0.  0.
         12    1    1    2    0    0  0.11740829852E+01 -0.65281139445E-01  0.10216079913E+00  0.11803259347E+01  0.00000000000E+00 0. -1.
         11    1    3    3    0    0  0.67711066928E+01  0.44628433584E+01 -0.87495643968E+00  0.81566172964E+01  0.51100000000E-03 0. -1.
        -11    1    3    3    0    0 -0.37448202422E+01 -0.42280976434E+02  0.76208771029E+01  0.43125194665E+02  0.51100000000E-03 0.  1.
         12    1    3    3    0    0 -0.42003694358E+01  0.37883414215E+02 -0.68480814623E+01  0.38725862104E+02  0.00000000000E+00 0. -1.
</event>
<event>
 7    1  0.2084210E-015  0.9000772E+02  0.7816164E-02  0.1186339E+00
        -11   -1    0    0    0    0  0.00000000000E+00  0.00000000000E+00  0.45593999997E+02  0.45594000000E+02  0.51100000000E-03 0. -1.
         11   -1    0    0    0    0 -0.00000000000E+00 -0.00000000000E+00 -0.45593999997E+02  0.45594000000E+02  0.51100000000E-03 0.  1.
    9900012    2    1    2    0    0 -0.48165407256E+00  0.10318642284E+01 -0.31037044190E+00  0.90007718575E+02  0.89999979660E+02 0.  0.
         12    1    1    2    0    0  0.48165407256E+00 -0.10318642284E+01  0.31037044190E+00  0.11802814252E+01  0.00000000000E+00 0. -1.
         11    1    3    3    0    0  0.17383898110E+02 -0.22852603431E+02  0.21079227861E+02  0.35619871484E+02  0.51100000000E-03 0. -1.
        -11    1    3    3    0    0  0.55198042985E+01 -0.44275349605E+01  0.54267137651E+01  0.89174283215E+01  0.51100000000E-03 0.  1.
        -12    1    3    3    0    0 -0.23385356481E+02  0.28312002620E+02 -0.26816312068E+02  0.45470418769E+02  0.00000000000E+00 0.  1.
</event>
<event>
 7    1  0.2084210E-015  0.9000779E+02  0.7816164E-02  0.1186339E+00
        -11   -1    0    0    0    0  0.00000000000E+00  0.00000000000E+00  0.45593999997E+02  0.45594000000E+02  0.51100000000E-03 0.  1.
         11   -1    0    0    0    0 -0.00000000000E+00 -0.00000000000E+00 -0.45593999997E+02  0.45594000000E+02  0.51100000000E-03 0. -1.
    9900012    2    1    2    0    0 -0.95320693170E+00 -0.35102279241E+00 -0.60090095240E+00  0.90007787134E+02  0.90000049124E+02 0.  0.
         12    1    1    2    0    0  0.95320693170E+00  0.35102279241E+00  0.60090095240E+00  0.11802128664E+01  0.00000000000E+00 0. -1.
         11    1    3    3    0    0  0.65234651736E+00  0.36073872547E+01  0.91358616484E+01  0.98439203117E+01  0.51100000000E-03 0. -1.
        -11    1    3    3    0    0  0.61928015646E+01  0.37068218491E+02 -0.76359191855E+01  0.38349848440E+02  0.51100000000E-03 0.  1.
         12    1    3    3    0    0 -0.77983550137E+01 -0.41026628538E+02 -0.21008434153E+01  0.41814018381E+02  0.00000000000E+00 0. -1.
</event>
<event>
 7    1  0.2084210E-015  0.9000773E+02  0.7816164E-02  0.1186339E+00
        -11   -1    0    0    0    0  0.00000000000E+00  0.00000000000E+00  0.45593999997E+02  0.45594000000E+02  0.51100000000E-03 0. -1.
         11   -1    0    0    0    0 -0.00000000000E+00 -0.00000000000E+00 -0.45593999997E+02  0.45594000000E+02  0.51100000000E-03 0.  1.
    9900012    2    1    2    0    0  0.48142903779E+00  0.44173171233E+00 -0.98291691796E+00  0.90007734567E+02  0.89999995864E+02 0.  0.
         12    1    1    2    0    0 -0.48142903779E+00 -0.44173171233E+00  0.98291691796E+00  0.11802654327E+01  0.00000000000E+00 0. -1.
         11    1    3    3    0    0  0.36790772191E+02  0.25849732212E+02 -0.33536859195E+01  0.45088987384E+02  0.51100000000E-03 0. -1.
        -11    1    3    3    0    0 -0.80533085112E+01 -0.31143025649E+01 -0.13331875353E+01  0.87368213732E+01  0.51100000000E-03 0.  1.
        -12    1    3    3    0    0 -0.28256034642E+02 -0.22293697935E+02  0.37039565368E+01  0.36181925810E+02  0.00000000000E+00 0.  1.
</event>
<event>
 7    1  0.2084210E-015  0.9000774E+02  0.7816164E-02  0.1186339E+00
        -11   -1    0    0    0    0  0.00000000000E+00  0.00000000000E+00  0.45593999997E+02  0.45594000000E+02  0.51100000000E-03 0. -1.
         11   -1    0    0    0    0 -0.00000000000E+00 -0.00000000000E+00 -0.45593999997E+02  0.45594000000E+02  0.51100000000E-03 0.  1.
    9900012    2    1    2    0    0 -0.10503661806E+01  0.51151423593E+00  0.16760969382E+00  0.90007742004E+02  0.90000003399E+02 0.  0.
         12    1    1    2    0    0  0.10503661806E+01 -0.51151423593E+00 -0.16760969382E+00  0.11802579957E+01  0.00000000000E+00 0. -1.
         11    1    3    3    0    0 -0.38733479422E+01  0.75819164269E+01  0.73879064340E+00  0.85459986462E+01  0.51100000000E-03 0. -1.
        -11    1    3    3    0    0  0.66316306335E+01  0.20533240950E+02 -0.32545804826E+02  0.39048968243E+02  0.51100000000E-03 0.  1.
         12    1    3    3    0    0 -0.38086488719E+01 -0.27603643141E+02  0.31974623877E+02  0.42412775115E+02  0.00000000000E+00 0. -1.
</event>
<event>
 7    1  0.2084210E-015  0.9000776E+02  0.7816164E-02  0.1186339E+00
        -11   -1    0    0    0    0  0.00000000000E+00  0.00000000000E+00  0.45593999997E+02  0.45594000000E+02  0.51100000000E-03 0. -1.
         11   -1    0    0    0    0 -0.00000000000E+00 -0.00000000000E+00 -0.45593999997E+02  0.45594000000E+02  0.51100000000E-03 0.  1.
    9900012    2    1    2    0    0 -0.77924790164E-01  0.50484779381E+00 -0.10639640899E+01  0.90007761400E+02  0.90000023051E+02 0.  0.
         12    1    1    2    0    0  0.77924790164E-01 -0.50484779381E+00  0.10639640899E+01  0.11802385997E+01  0.00000000000E+00 0. -1.
         11    1    3    3    0    0 -0.72155688026E+01 -0.65569117135E+01 -0.85963383518E+00  0.97875683883E+01  0.51100000000E-03 0. -1.
        -11    1    3    3    0    0 -0.11641102965E+02 -0.52910052215E+01 -0.35859613672E+02  0.38071274045E+02  0.51100000000E-03 0.  1.
         12    1    3    3    0    0  0.18778746978E+02  0.12352764729E+02  0.35655283417E+02  0.42148918967E+02  0.00000000000E+00 0. -1.
</event>
<event>
 7    1  0.2084210E-015  0.9000768E+02  0.7816164E-02  0.1186339E+00
        -11   -1    0    0    0    0  0.00000000000E+00  0.00000000000E+00  0.45593999997E+02  0.45594000000E+02  0.51100000000E-03 0.  1.
         11   -1    0    0    0    0 -0.00000000000E+00 -0.00000000000E+00 -0.45593999997E+02  0.45594000000E+02  0.51100000000E-03 0. -1.
    9900012    2    1    2    0    0  0.11432487912E+01 -0.45825793799E-01  0.28989922237E+00  0.90007678281E+02  0.89999938834E+02 0.  0.
         12    1    1    2    0    0 -0.11432487912E+01  0.45825793799E-01 -0.28989922237E+00  0.11803217193E+01  0.00000000000E+00 0. -1.
         11    1    3    3    0    0 -0.14536818143E+02 -0.10440449693E+02 -0.77471578645E+00  0.17914303121E+02  0.51100000000E-03 0. -1.
        -11    1    3    3    0    0 -0.17345421796E+02  0.27693080420E+02 -0.81750675095E+01  0.33683855027E+02  0.51100000000E-03 0.  1.
        -12    1    3    3    0    0  0.33025488729E+02 -0.17298456521E+02  0.92396825183E+01  0.38409520133E+02  0.00000000000E+00 0.  1.
</event>
<event>
 7    1  0.2084210E-015  0.9000762E+02  0.7816164E-02  0.1186339E+00
        -11   -1    0    0    0    0  0.00000000000E+00  0.00000000000E+00  0.45593999997E+02  0.45594000000E+02  0.51100000000E-03 0.  1.
         11   -1    0    0    0    0 -0.00000000000E+00 -0.00000000000E+00 -0.45593999997E+02  0.45594000000E+02  0.51100000000E-03 0. -1.
    9900012    2    1    2    0    0  0.85391428708E-01  0.11001313754E+01  0.41919438078E+00  0.90007616728E+02  0.89999876469E+02 0.  0.
         12    1    1    2    0    0 -0.85391428708E-01 -0.11001313754E+01 -0.41919438078E+00  0.11803832717E+01  0.00000000000E+00 0. -1.
         11    1    3    3    0    0  0.70219826961E+01  0.10000643997E+01 -0.57565699702E+01  0.91349038238E+01  0.51100000000E-03 0. -1.
        -11    1    3    3    0    0 -0.61742421948E+01  0.39967523057E+02  0.67094313392E+01  0.40994397607E+02  0.51100000000E-03 0.  1.
         12    1    3    3    0    0 -0.76234907260E+00 -0.39867456081E+02 -0.53366698825E+00  0.39878315297E+02  0.00000000000E+00 0. -1.
</event>
<event>
 7    1  0.2084210E-015  0.9000770E+02  0.7816164E-02  0.1186339E+00
        -11   -1    0    0    0    0  0.00000000000E+00  0.00000000000E+00  0.45593999997E+02  0.45594000000E+02  0.51100000000E-03 0.  1.
         11   -1    0    0    0    0 -0.00000000000E+00 -0.00000000000E+00 -0.45593999997E+02  0.45594000000E+02  0.51100000000E-03 0. -1.
    9900012    2    1    2    0    0  0.53610539341E+00  0.33722790738E+00 -0.99598424532E+00  0.90007696534E+02  0.89999957328E+02 0.  0.
         12    1    1    2    0    0 -0.53610539341E+00 -0.33722790738E+00  0.99598424532E+00  0.11803034658E+01  0.00000000000E+00 0. -1.
         11    1    3    3    0    0  0.10374868176E+02 -0.96531863420E+01  0.14391778919E+01  0.14244055936E+02  0.51100000000E-03 0. -1.
        -11    1    3    3    0    0 -0.41376456536E+00 -0.29606007069E+02 -0.14965229056E+02  0.33175969265E+02  0.51100000000E-03 0.  1.
         12    1    3    3    0    0 -0.94249982177E+01  0.39596421319E+02  0.12530066919E+02  0.42587671334E+02  0.00000000000E+00 0. -1.
</event>
<event>
 7    1  0.2084210E-015  0.9000788E+02  0.7816164E-02  0.1186339E+00
        -11   -1    0    0    0    0  0.00000000000E+00  0.00000000000E+00  0.45593999997E+02  0.45594000000E+02  0.51100000000E-03 0.  1.
         11   -1    0    0    0    0 -0.00000000000E+00 -0.00000000000E+00 -0.45593999997E+02  0.45594000000E+02  0.51100000000E-03 0. -1.
    9900012    2    1    2    0    0  0.10822717674E+01  0.17291709460E+00  0.43757036973E+00  0.90007881223E+02  0.90000144455E+02 0.  0.
         12    1    1    2    0    0 -0.10822717674E+01 -0.17291709460E+00 -0.43757036973E+00  0.11801187773E+01  0.00000000000E+00 0. -1.
         11    1    3    3    0    0 -0.16515678723E+02 -0.37207330946E+02  0.21493725681E+01  0.40764849105E+02  0.51100000000E-03 0. -1.
        -11    1    3    3    0    0  0.69935743357E+01 -0.13017507608E+01 -0.54479443395E+01  0.89601749324E+01  0.51100000000E-03 0.  1.
        -12    1    3    3    0    0  0.10604376155E+02  0.38681998802E+02  0.37361421412E+01  0.40282857185E+02  0.00000000000E+00 0.  1.
</event>
<event>
 7    1  0.2084210E-015  0.9000761E+02  0.7816164E-02  0.1186339E+00
        -11   -1    0    0    0    0  0.00000000000E+00  0.00000000000E+00  0.45593999997E+02  0.45594000000E+02  0.51100000000E-03 0. -1.
         11   -1    0    0    0    0 -0.00000000000E+00 -0.00000000000E+00 -0.45593999997E+02  0.45594000000E+02  0.51100000000E-03 0.  1.
    9900012    2    1    2    0    0  0.36186971157E-01  0.13172349490E+00 -0.11724563736E+01  0.90007612553E+02  0.89999872239E+02 0.  0.
         12    1    1    2    0    0 -0.36186971157E-01 -0.13172349490E+00  0.11724563736E+01  0.11803874466E+01  0.00000000000E+00 0. -1.
         11    1    3    3    0    0 -0.10608521288E+02  0.33854792320E+01 -0.16547292670E+01  0.11257900459E+02  0.51100000000E-03 0. -1.
        -11    1    3    3    0    0 -0.29862351426E+00 -0.12253591920E+01 -0.38341448351E+02  0.38362186370E+02  0.51100000000E-03 0.  1.
         12    1    3    3    0    0  0.10943331773E+02 -0.20283965451E+01  0.38823721245E+02  0.40387525724E+02  0.00000000000E+00 0. -1.
</event>
<event>
 7    1  0.2084210E-015  0.9000702E+02  0.7816164E-02  0.1186340E+00
        -11   -1    0    0    0    0  0.00000000000E+00  0.00000000000E+00  0.45593999997E+02  0.45594000000E+02  0.51100000000E-03 0. -1.
         11   -1    0    0    0    0 -0.00000000000E+00 -0.00000000000E+00 -0.45593999997E+02  0.45594000000E+02  0.51100000000E-03 0.  1.
    9900012    2    1    2    0    0 -0.10223589230E+01 -0.48897827115E+00  0.33226286225E+00  0.90007018998E+02  0.89999270846E+02 0.  0.
         12    1    1    2    0    0  0.10223589230E+01  0.48897827115E+00 -0.33226286225E+00  0.11809810019E+01  0.00000000000E+00 0. -1.
         11    1    3    3    0    0 -0.13810850942E+02  0.21041405957E+02  0.26519878003E+02  0.36562060910E+02  0.51100000000E-03 0. -1.
        -11    1    3    3    0    0 -0.30842633671E+01  0.94141972248E+01  0.55348738491E-02  0.99065544364E+01  0.51100000000E-03 0.  1.
        -12    1    3    3    0    0  0.15872755386E+02 -0.30944581453E+02 -0.26193150015E+02  0.43538403652E+02  0.00000000000E+00 0.  1.
</event>
<event>
 7    1  0.2084210E-015  0.9000769E+02  0.7816164E-02  0.1186339E+00
        -11   -1    0    0    0    0  0.00000000000E+00  0.00000000000E+00  0.45593999997E+02  0.45594000000E+02  0.51100000000E-03 0. -1.
         11   -1    0    0    0    0 -0.00000000000E+00 -0.00000000000E+00 -0.45593999997E+02  0.45594000000E+02  0.51100000000E-03 0.  1.
    9900012    2    1    2    0    0  0.45676288244E+00 -0.10072446651E+01  0.41226856554E+00  0.90007686687E+02  0.89999947351E+02 0.  0.
         12    1    1    2    0    0 -0.45676288244E+00  0.10072446651E+01 -0.41226856554E+00  0.11803133128E+01  0.00000000000E+00 0. -1.
         11    1    3    3    0    0  0.14704759769E+02  0.24657020789E+02  0.16858858202E+02  0.33292938203E+02  0.51100000000E-03 0. -1.
        -11    1    3    3    0    0  0.49499338635E-01  0.95964915816E+01  0.71280381915E+01  0.11954247345E+02  0.51100000000E-03 0.  1.
        -12    1    3    3    0    0 -0.14297496225E+02 -0.35260757035E+02 -0.23574627828E+02  0.44760501140E+02  0.00000000000E+00 0.  1.
</event>
<event>
 7    1  0.2084210E-015  0.9000780E+02  0.7816164E-02  0.1186339E+00
        -11   -1    0    0    0    0  0.00000000000E+00  0.00000000000E+00  0.45593999997E+02  0.45594000000E+02  0.51100000000E-03 0. -1.
         11   -1    0    0    0    0 -0.00000000000E+00 -0.00000000000E+00 -0.45593999997E+02  0.45594000000E+02  0.51100000000E-03 0.  1.
    9900012    2    1    2    0    0 -0.43470534613E+00 -0.73907387568E-01 -0.10947313352E+01  0.90007801823E+02  0.90000064007E+02 0.  0.
         12    1    1    2    0    0  0.43470534613E+00  0.73907387568E-01  0.10947313352E+01  0.11801981766E+01  0.00000000000E+00 0. -1.
         11    1    3    3    0    0 -0.29959763717E+02  0.18291374673E+02 -0.11903082510E+02  0.37065417884E+02  0.51100000000E-03 0. -1.
        -11    1    3    3    0    0 -0.86742400201E+01 -0.46027677990E+01  0.72058853456E+01  0.12180012119E+02  0.51100000000E-03 0.  1.
        -12    1    3    3    0    0  0.38199298391E+02 -0.13762514262E+02  0.36024658297E+01  0.40762371820E+02  0.00000000000E+00 0.  1.
</event>
<event>
 7    1  0.2084210E-015  0.9000772E+02  0.7816164E-02  0.1186339E+00
        -11   -1    0    0    0    0  0.00000000000E+00  0.00000000000E+00  0.45593999997E+02  0.45594000000E+02  0.51100000000E-03 0. -1.
         11   -1    0    0    0    0 -0.00000000000E+00 -0.00000000000E+00 -0.45593999997E+02  0.45594000000E+02  0.51100000000E-03 0.  1.
    9900012    2    1    2    0    0  0.51650624683E+00 -0.70148933612E+00 -0.79636967758E+00  0.90007715858E+02  0.89999976908E+02 0.  0.
         12    1    1    2    0    0 -0.51650624683E+00  0.70148933612E+00  0.79636967758E+00  0.11802841417E+01  0.00000000000E+00 0. -1.
         11    1    3    3    0    0  0.11327867922E+02  0.41368464278E+01  0.18682688063E+01  0.12203463386E+02  0.51100000000E-03 0. -1.
        -11    1    3    3    0    0  0.19297189439E+02 -0.16100652416E+02 -0.27446668924E+02  0.37214676725E+02  0.51100000000E-03 0.  1.
         12    1    3    3    0    0 -0.30108551114E+02  0.11262316653E+02  0.24782030440E+02  0.40589575747E+02  0.00000000000E+00 0. -1.
</event>
<event>
 7    1  0.2084210E-015  0.9000773E+02  0.7816164E-02  0.1186339E+00
        -11   -1    0    0    0    0  0.00000000000E+00  0.00000000000E+00  0.45593999997E+02  0.45594000000E+02  0.51100000000E-03 0.  1.
         11   -1    0    0    0    0 -0.00000000000E+00 -0.00000000000E+00 -0.45593999997E+02  0.45594000000E+02  0.51100000000E-03 0. -1.
    9900012    2    1    2    0    0 -0.49982949575E+00 -0.74670176716E+00  0.76527128946E+00  0.90007731725E+02  0.89999992984E+02 0.  0.
         12    1    1    2    0    0  0.49982949575E+00  0.74670176716E+00 -0.76527128946E+00  0.11802682747E+01  0.00000000000E+00 0. -1.
         11    1    3    3    0    0 -0.31160234419E+02 -0.76973814028E+01 -0.25437808592E+02  0.40954755472E+02  0.51100000000E-03 0. -1.
        -11    1    3    3    0    0 -0.34407689603E+01 -0.34118481210E+01  0.71548231251E+01  0.86412437098E+01  0.51100000000E-03 0.  1.
        -12    1    3    3    0    0  0.34101173884E+02  0.10362527757E+02  0.19048256756E+02  0.40411732544E+02  0.00000000000E+00 0.  1.
</event>
<event>
 7    1  0.2084210E-015  0.9000770E+02  0.7816164E-02  0.1186339E+00
        -11   -1    0    0    0    0  0.00000000000E+00  0.00000000000E+00  0.45593999997E+02  0.45594000000E+02  0.51100000000E-03 0.  1.
         11   -1    0    0    0    0 -0.00000000000E+00 -0.00000000000E+00 -0.45593999997E+02  0.45594000000E+02  0.51100000000E-03 0. -1.
    9900012    2    1    2    0    0 -0.31605497303E+00  0.43890552781E+00  0.10490866828E+01  0.90007698481E+02  0.89999959301E+02 0.  0.
         12    1    1    2    0    0  0.31605497303E+00 -0.43890552781E+00 -0.10490866828E+01  0.11803015193E+01  0.00000000000E+00 0. -1.
         11    1    3    3    0    0  0.25341208094E+02  0.28783507441E+02  0.74728218289E+01  0.39070579656E+02  0.51100000000E-03 0. -1.
        -11    1    3    3    0    0 -0.24207906336E+01  0.28863869249E+00  0.10200382835E+02  0.10487676093E+02  0.51100000000E-03 0.  1.
        -12    1    3    3    0    0 -0.23236472434E+02 -0.28633240606E+02 -0.16624117981E+02  0.40449442733E+02  0.00000000000E+00 0.  1.
</event>
<event>
 7    1  0.2084210E-015  0.9000785E+02  0.7816164E-02  0.1186339E+00
        -11   -1    0    0    0    0  0.00000000000E+00  0.00000000000E+00  0.45593999997E+02  0.45594000000E+02  0.51100000000E-03 0.  1.
         11   -1    0    0    0    0 -0.00000000000E+00 -0.00000000000E+00 -0.45593999997E+02  0.45594000000E+02  0.51100000000E-03 0. -1.
    9900012    2    1    2    0    0 -0.39358936976E+00 -0.44008997615E+00  0.10218469396E+01  0.90007846219E+02  0.90000108989E+02 0.  0.
         12    1    1    2    0    0  0.39358936976E+00  0.44008997615E+00 -0.10218469396E+01  0.11801537811E+01  0.00000000000E+00 0. -1.
         11    1    3    3    0    0 -0.39901221173E+02  0.96248226522E+01 -0.17559003210E+02  0.44643737032E+02  0.51100000000E-03 0. -1.
        -11    1    3    3    0    0  0.68916756115E+01 -0.45701102318E+01  0.45186675853E+01  0.94233463946E+01  0.51100000000E-03 0.  1.
        -12    1    3    3    0    0  0.32615956191E+02 -0.54948023965E+01  0.14062182564E+02  0.35940762793E+02  0.00000000000E+00 0.  1.
</event>
<event>
 7    1  0.2084210E-015  0.9000756E+02  0.7816164E-02  0.1186339E+00
        -11   -1    0    0    0    0  0.00000000000E+00  0.00000000000E+00  0.45593999997E+02  0.45594000000E+02  0.51100000000E-03 0.  1.
         11   -1    0    0    0    0 -0.00000000000E+00 -0.00000000000E+00 -0.45593999997E+02  0.45594000000E+02  0.51100000000E-03 0. -1.
    9900012    2    1    2    0    0  0.83392607032E+00  0.21489723784E+00  0.80736014693E+00  0.90007557744E+02  0.89999816706E+02 0.  0.
         12    1    1    2    0    0 -0.83392607032E+00 -0.21489723784E+00 -0.80736014693E+00  0.11804422563E+01  0.00000000000E+00 0. -1.
         11    1    3    3    0    0  0.44621422374E+01 -0.18245582300E+01  0.79303389067E+01  0.92806250607E+01  0.51100000000E-03 0. -1.
        -11    1    3    3    0    0  0.25139456438E+02 -0.19115202530E+02  0.18660870482E+02  0.36682575225E+02  0.51100000000E-03 0.  1.
         12    1    3    3    0    0 -0.28767672605E+02  0.21154657998E+02 -0.25783849242E+02  0.44044357458E+02  0.00000000000E+00 0. -1.
</event>
<event>
 7    1  0.2084210E-015  0.9000803E+02  0.7816164E-02  0.1186338E+00
        -11   -1    0    0    0    0  0.00000000000E+00  0.00000000000E+00  0.45593999997E+02  0.45594000000E+02  0.51100000000E-03 0. -1.
         11   -1    0    0    0    0 -0.00000000000E+00 -0.00000000000E+00 -0.45593999997E+02  0.45594000000E+02  0.51100000000E-03 0.  1.
    9900012    2    1    2    0    0 -0.31839862105E+00 -0.11320203524E+01  0.97354257955E-01  0.90008031521E+02  0.90000296737E+02 0.  0.
         12    1    1    2    0    0  0.31839862105E+00  0.11320203524E+01 -0.97354257955E-01  0.11799684791E+01  0.00000000000E+00 0. -1.
         11    1    3    3    0    0 -0.17808594177E+02  0.39012543818E+01 -0.57322485465E+01  0.19110847338E+02  0.51100000000E-03 0. -1.
        -11    1    3    3    0    0  0.33015166939E+02  0.21158778408E+02 -0.26144061023E+01  0.39300512354E+02  0.51100000000E-03 0.  1.
         12    1    3    3    0    0 -0.15524971383E+02 -0.26192053143E+02  0.84440089068E+01  0.31596671829E+02  0.00000000000E+00 0. -1.
</event>
<event>
 7    1  0.2084210E-015  0.9000765E+02  0.7816164E-02  0.1186339E+00
        -11   -1    0    0    0    0  0.00000000000E+00  0.00000000000E+00  0.45593999997E+02  0.45594000000E+02  0.51100000000E-03 0.  1.
         11   -1    0    0    0    0 -0.00000000000E+00 -0.00000000000E+00 -0.45593999997E+02  0.45594000000E+02  0.51100000000E-03 0. -1.
    9900012    2    1    2    0    0 -0.77825530072E+00 -0.46085952598E+00  0.75839062975E+00  0.90007648712E+02  0.89999908875E+02 0.  0.
         12    1    1    2    0    0  0.77825530072E+00  0.46085952598E+00 -0.75839062975E+00  0.11803512880E+01  0.00000000000E+00 0. -1.
         11    1    3    3    0    0 -0.30301988076E+01 -0.28610046192E+01  0.10335722468E+02  0.11144263611E+02  0.51100000000E-03 0. -1.
        -11    1    3    3    0    0 -0.11059119904E+02 -0.20091734471E+02  0.26031090806E+02  0.34692933228E+02  0.51100000000E-03 0.  1.
         12    1    3    3    0    0  0.13311063411E+02  0.22491879565E+02 -0.35608422644E+02  0.44170451873E+02  0.00000000000E+00 0. -1.
</event>
<event>
 7    1  0.2084210E-015  0.9000767E+02  0.7816164E-02  0.1186339E+00
        -11   -1    0    0    0    0  0.00000000000E+00  0.00000000000E+00  0.45593999997E+02  0.45594000000E+02  0.51100000000E-03 0.  1.
         11   -1    0    0    0    0 -0.00000000000E+00 -0.00000000000E+00 -0.45593999997E+02  0.45594000000E+02  0.51100000000E-03 0. -1.
    9900012    2    1    2    0    0  0.58889806194E+00  0.10003317107E+00  0.10180187803E+01  0.90007673859E+02  0.89999934354E+02 0.  0.
         12    1    1    2    0    0 -0.58889806194E+00 -0.10003317107E+00 -0.10180187803E+01  0.11803261412E+01  0.00000000000E+00 0. -1.
         11    1    3    3    0    0 -0.19398071362E+02  0.33160718886E+02  0.78369046613E+01  0.39208870483E+02  0.51100000000E-03 0. -1.
        -11    1    3    3    0    0 -0.17293260748E+01  0.86098991253E+00 -0.10198412705E+02  0.10379763690E+02  0.51100000000E-03 0.  1.
        -12    1    3    3    0    0  0.21716295498E+02 -0.33921675627E+02  0.33795268242E+01  0.40419039686E+02  0.00000000000E+00 0.  1.
</event>
<event>
 7    1  0.2084210E-015  0.9000775E+02  0.7816164E-02  0.1186339E+00
        -11   -1    0    0    0    0  0.00000000000E+00  0.00000000000E+00  0.45593999997E+02  0.45594000000E+02  0.51100000000E-03 0.  1.
         11   -1    0    0    0    0 -0.00000000000E+00 -0.00000000000E+00 -0.45593999997E+02  0.45594000000E+02  0.51100000000E-03 0. -1.
    9900012    2    1    2    0    0 -0.71713081016E+00  0.71984408503E+00 -0.60045742854E+00  0.90007745269E+02  0.90000006707E+02 0.  0.
         12    1    1    2    0    0  0.71713081016E+00 -0.71984408503E+00  0.60045742854E+00  0.11802547306E+01  0.00000000000E+00 0. -1.
         11    1    3    3    0    0  0.69010271164E+01 -0.10449581784E+02 -0.32848726633E+02  0.35154754677E+02  0.51100000000E-03 0. -1.
        -11    1    3    3    0    0  0.38728921390E+01 -0.47383581041E+01 -0.80018781338E+01  0.10073796949E+02  0.51100000000E-03 0.  1.
        -12    1    3    3    0    0 -0.11491050065E+02  0.15907783973E+02  0.40250147339E+02  0.44779193643E+02  0.00000000000E+00 0.  1.
</event>
<event>
 7    1  0.2084210E-015  0.9000752E+02  0.7816164E-02  0.1186339E+00
        -11   -1    0    0    0    0  0.00000000000E+00  0.00000000000E+00  0.45593999997E+02  0.45594000000E+02  0.51100000000E-03 0. -1.
         11   -1    0    0    0    0 -0.00000000000E+00 -0.00000000000E+00 -0.45593999997E+02  0.45594000000E+02  0.51100000000E-03 0.  1.
    9900012    2    1    2    0    0  0.55951142640E+00  0.10165459374E+01  0.21703874897E+00  0.90007523614E+02  0.89999782126E+02 0.  0.
         12    1    1    2    0    0 -0.55951142640E+00 -0.10165459374E+01 -0.21703874897E+00  0.11804763859E+01  0.00000000000E+00 0. -1.
         11    1    3    3    0    0  0.39215122378E+01  0.29278096215E+01 -0.80928468182E+01  0.94575101001E+01  0.51100000000E-03 0. -1.
        -11    1    3    3    0    0  0.92868243799E+01 -0.22804979314E+02 -0.27684987942E+02  0.37050920989E+02  0.51100000000E-03 0.  1.
         12    1    3    3    0    0 -0.12648825191E+02  0.20893715630E+02  0.35994873509E+02  0.43499092525E+02  0.00000000000E+00 0. -1.
</event>
<event>
 7    1  0.2084210E-015  0.9000793E+02  0.7816164E-02  0.1186339E+00
        -11   -1    0    0    0    0  0.00000000000E+00  0.00000000000E+00  0.45593999997E+02  0.45594000000E+02  0.51100000000E-03 0. -1.
         11   -1    0    0    0    0 -0.00000000000E+00 -0.00000000000E+00 -0.45593999997E+02  0.45594000000E+02  0.51100000000E-03 0.  1.
    9900012    2    1    2    0    0  0.95573693578E+00  0.69198980440E+00 -0.16981573578E-01  0.90007927395E+02  0.90000191236E+02 0.  0.
         12    1    1    2    0    0 -0.95573693578E+00 -0.69198980440E+00  0.16981573578E-01  0.11800726052E+01  0.00000000000E+00 0. -1.
         11    1    3    3    0    0 -0.74305075027E+01  0.65628288552E+01 -0.28448446142E+01  0.10313888960E+02  0.51100000000E-03 0. -1.
        -11    1    3    3    0    0 -0.12447381377E+02 -0.13084090992E+02 -0.33004588046E+02  0.37622248372E+02  0.51100000000E-03 0.  1.
         12    1    3    3    0    0  0.20833625816E+02  0.72132519416E+01  0.35832451087E+02  0.42071790063E+02  0.00000000000E+00 0. -1.
</event>
<event>
 7    1  0.2084210E-015  0.9000756E+02  0.7816164E-02  0.1186339E+00
        -11   -1    0    0    0    0  0.00000000000E+00  0.00000000000E+00  0.45593999997E+02  0.45594000000E+02  0.51100000000E-03 0.  1.
         11   -1    0    0    0    0 -0.00000000000E+00 -0.00000000000E+00 -0.45593999997E+02  0.45594000000E+02  0.51100000000E-03 0. -1.
    9900012    2    1    2    0    0 -0.98580992286E+00 -0.64494130468E+00  0.75339131482E-01  0.90007556662E+02  0.89999815609E+02 0.  0.
         12    1    1    2    0    0  0.98580992286E+00  0.64494130468E+00 -0.75339131482E-01  0.11804433384E+01  0.00000000000E+00 0. -1.
         11    1    3    3    0    0  0.14087806083E+01  0.82143874755E+01 -0.20722233317E+01  0.85880692939E+01  0.51100000000E-03 0. -1.
        -11    1    3    3    0    0 -0.17553345462E+02  0.21840172679E+02  0.27156424058E+02  0.39020308141E+02  0.51100000000E-03 0.  1.
         12    1    3    3    0    0  0.15158754931E+02 -0.30699501459E+02 -0.25008861594E+02  0.42399179227E+02  0.00000000000E+00 0. -1.
</event>
<event>
 7    1  0.2084210E-015  0.9000771E+02  0.7816164E-02  0.1186339E+00
        -11   -1    0    0    0    0  0.00000000000E+00  0.00000000000E+00  0.45593999997E+02  0.45594000000E+02  0.51100000000E-03 0.  1.
         11   -1    0    0    0    0 -0.00000000000E+00 -0.00000000000E+00 -0.45593999997E+02  0.45594000000E+02  0.51100000000E-03 0. -1.
    9900012    2    1    2    0    0 -0.62927506116E-01 -0.99310148869E+00  0.63473220857E+00  0.90007705370E+02  0.89999966281E+02 0.  0.
         12    1    1    2    0    0  0.62927506116E-01  0.99310148869E+00 -0.63473220857E+00  0.11802946304E+01  0.00000000000E+00 0. -1.
         11    1    3    3    0    0 -0.79352825727E+00 -0.27674342947E+01  0.76919603362E+01  0.82130769962E+01  0.51100000000E-03 0. -1.
        -11    1    3    3    0    0 -0.14063324828E+02 -0.11020292518E+02  0.32826075556E+02  0.37373455675E+02  0.51100000000E-03 0.  1.
         12    1    3    3    0    0  0.14793925579E+02  0.12794625324E+02 -0.39883303684E+02  0.44421172699E+02  0.00000000000E+00 0. -1.
</event>
<event>
 7    1  0.2084210E-015  0.9000814E+02  0.7816164E-02  0.1186338E+00
        -11   -1    0    0    0    0  0.00000000000E+00  0.00000000000E+00  0.45593999997E+02  0.45594000000E+02  0.51100000000E-03 0.  1.
         11   -1    0    0    0    0 -0.00000000000E+00 -0.00000000000E+00 -0.45593999997E+02  0.45594000000E+02  0.51100000000E-03 0. -1.
    9900012    2    1    2    0    0  0.33974127702E+00 -0.68612413629E+00  0.89771045565E+00  0.90008137920E+02  0.90000404540E+02 0.  0.
         12    1    1    2    0    0 -0.33974127702E+00  0.68612413629E+00 -0.89771045565E+00  0.11798620800E+01  0.00000000000E+00 0. -1.
         11    1    3    3    0    0 -0.43159025654E+01  0.21931441845E+02 -0.27210933839E+02  0.35214344762E+02  0.51100000000E-03 0. -1.
        -11    1    3    3    0    0 -0.57915840601E+01  0.53318916851E+01 -0.56865818506E+01  0.97112681083E+01  0.51100000000E-03 0.  1.
        -12    1    3    3    0    0  0.10447227902E+02 -0.27949457666E+02  0.33795226145E+02  0.45082525050E+02  0.00000000000E+00 0.  1.
</event>
<event>
 7    1  0.2501890E-015  0.9000776E+02  0.7816164E-02  0.1186339E+00
        -11   -1    0    0    0    0  0.00000000000E+00  0.00000000000E+00  0.45593999997E+02  0.45594000000E+02  0.51100000000E-03 0. -1.
         11   -1    0    0    0    0 -0.00000000000E+00 -0.00000000000E+00 -0.45593999997E+02  0.45594000000E+02  0.51100000000E-03 0.  1.
    9900012    2    1    2    0    0  0.48488762568E+00 -0.78250062372E+00 -0.73860490825E+00  0.90007762547E+02  0.90000024212E+02 0.  0.
         12    1    1    2    0    0 -0.48488762568E+00  0.78250062372E+00  0.73860490825E+00  0.11802374533E+01  0.00000000000E+00 0. -1.
         11    1    3    3    0    0  0.72391327279E+01  0.34878531337E+02 -0.87313362037E+01  0.36676330556E+02  0.51100000000E-03 0. -1.
        -11    1    3    3    0    0  0.35266167794E+01  0.37555572534E+01 -0.80446487517E+01  0.95528849041E+01  0.51100000000E-03 0.  1.
        -12    1    3    3    0    0 -0.10280861882E+02 -0.39416589214E+02  0.16037380047E+02  0.43778547087E+02  0.00000000000E+00 0.  1.
</event>
<event>
 7    1  0.2084210E-015  0.9000770E+02  0.7816164E-02  0.1186339E+00
        -11   -1    0    0    0    0  0.00000000000E+00  0.00000000000E+00  0.45593999997E+02  0.45594000000E+02  0.51100000000E-03 0.  1.
         11   -1    0    0    0    0 -0.00000000000E+00 -0.00000000000E+00 -0.45593999997E+02  0.45594000000E+02  0.51100000000E-03 0. -1.
    9900012    2    1    2    0    0  0.10068905859E+01  0.58770793553E+00 -0.18406112288E+00  0.90007700137E+02  0.89999960979E+02 0.  0.
         12    1    1    2    0    0 -0.10068905859E+01 -0.58770793553E+00  0.18406112288E+00  0.11802998629E+01  0.00000000000E+00 0. -1.
         11    1    3    3    0    0  0.63956142277E+01 -0.12619769546E+01 -0.50426864681E+01  0.82416718122E+01  0.51100000000E-03 0. -1.
        -11    1    3    3    0    0 -0.29191384973E+02 -0.29996917032E+02  0.29991045128E+01  0.41963634450E+02  0.51100000000E-03 0.  1.
         12    1    3    3    0    0  0.23802661332E+02  0.31846601922E+02  0.18595208324E+01  0.39802393875E+02  0.00000000000E+00 0. -1.
</event>
<event>
 7    1  0.2084210E-015  0.9000867E+02  0.7816164E-02  0.1186337E+00
        -11   -1    0    0    0    0  0.00000000000E+00  0.00000000000E+00  0.45593999997E+02  0.45594000000E+02  0.51100000000E-03 0. -1.
         11   -1    0    0    0    0 -0.00000000000E+00 -0.00000000000E+00 -0.45593999997E+02  0.45594000000E+02  0.51100000000E-03 0.  1.
    9900012    2    1    2    0    0  0.64672912722E-01  0.10982446255E+01 -0.42484567016E+00  0.90008670662E+02  0.90000944310E+02 0.  0.
         12    1    1    2    0    0 -0.64672912722E-01 -0.10982446255E+01  0.42484567016E+00  0.11793293376E+01  0.00000000000E+00 0. -1.
         11    1    3    3    0    0 -0.30515147699E+01  0.97492460317E+01  0.47774372119E+00  0.10226816704E+02  0.51100000000E-03 0. -1.
        -11    1    3    3    0    0 -0.15031070402E+02  0.28989824987E+02 -0.14651357319E+02  0.35791134402E+02  0.51100000000E-03 0.  1.
         12    1    3    3    0    0  0.18147258085E+02 -0.37640826393E+02  0.13748767928E+02  0.43990719556E+02  0.00000000000E+00 0. -1.
</event>
<event>
 7    1  0.2084210E-015  0.9000836E+02  0.7816164E-02  0.1186338E+00
        -11   -1    0    0    0    0  0.00000000000E+00  0.00000000000E+00  0.45593999997E+02  0.45594000000E+02  0.51100000000E-03 0. -1.
         11   -1    0    0    0    0 -0.00000000000E+00 -0.00000000000E+00 -0.45593999997E+02  0.45594000000E+02  0.51100000000E-03 0.  1.
    9900012    2    1    2    0    0 -0.86832751433E-01  0.71446684253E+00 -0.93463408673E+00  0.90008362907E+02  0.90000632495E+02 0.  0.
         12    1    1    2    0    0  0.86832751433E-01 -0.71446684253E+00  0.93463408673E+00  0.11796370933E+01  0.00000000000E+00 0. -1.
         11    1    3    3    0    0 -0.45205321944E+00 -0.10745219256E+02 -0.15598614423E+00  0.10755855192E+02  0.51100000000E-03 0. -1.
        -11    1    3    3    0    0 -0.14037674529E+02  0.14309107839E+02 -0.35938263347E+02  0.41150524250E+02  0.51100000000E-03 0.  1.
         12    1    3    3    0    0  0.14402894997E+02 -0.28494217406E+01  0.35159615405E+02  0.38101983465E+02  0.00000000000E+00 0. -1.
</event>
<event>
 7    1  0.2084210E-015  0.9000757E+02  0.7816164E-02  0.1186339E+00
        -11   -1    0    0    0    0  0.00000000000E+00  0.00000000000E+00  0.45593999997E+02  0.45594000000E+02  0.51100000000E-03 0. -1.
         11   -1    0    0    0    0 -0.00000000000E+00 -0.00000000000E+00 -0.45593999997E+02  0.45594000000E+02  0.51100000000E-03 0.  1.
    9900012    2    1    2    0    0  0.80065127076E+00 -0.81666065930E+00 -0.29230496550E+00  0.90007568180E+02  0.89999827279E+02 0.  0.
         12    1    1    2    0    0 -0.80065127076E+00  0.81666065930E+00  0.29230496550E+00  0.11804318204E+01  0.00000000000E+00 0. -1.
         11    1    3    3    0    0 -0.21664823860E+02 -0.19677754682E+02  0.28596992908E+02  0.40919025231E+02  0.51100000000E-03 0. -1.
        -11    1    3    3    0    0  0.10500577282E+02 -0.51331812652E+00  0.20115139122E+01  0.10703822085E+02  0.51100000000E-03 0.  1.
        -12    1    3    3    0    0  0.11964897848E+02  0.19374412150E+02 -0.30900811786E+02  0.38384720863E+02  0.00000000000E+00 0.  1.
</event>
<event>
 7    1  0.2084210E-015  0.9000771E+02  0.7816164E-02  0.1186339E+00
        -11   -1    0    0    0    0  0.00000000000E+00  0.00000000000E+00  0.45593999997E+02  0.45594000000E+02  0.51100000000E-03 0. -1.
         11   -1    0    0    0    0 -0.00000000000E+00 -0.00000000000E+00 -0.45593999997E+02  0.45594000000E+02  0.51100000000E-03 0.  1.
    9900012    2    1    2    0    0  0.11002845859E+01  0.36216198388E+00 -0.22650519448E+00  0.90007706784E+02  0.89999967714E+02 0.  0.
         12    1    1    2    0    0 -0.11002845859E+01 -0.36216198388E+00  0.22650519448E+00  0.11802932160E+01  0.00000000000E+00 0. -1.
         11    1    3    3    0    0  0.28002688659E+02 -0.18489155046E+02  0.25517777385E+02  0.42156332732E+02  0.51100000000E-03 0. -1.
        -11    1    3    3    0    0 -0.76890305069E+01  0.49497108372E+01  0.38547156529E+01  0.99236918803E+01  0.51100000000E-03 0.  1.
        -12    1    3    3    0    0 -0.19213373566E+02  0.13901606193E+02 -0.29598998233E+02  0.37927682172E+02  0.00000000000E+00 0.  1.
</event>
<event>
 7    1  0.2084210E-015  0.9000782E+02  0.7816164E-02  0.1186339E+00
        -11   -1    0    0    0    0  0.00000000000E+00  0.00000000000E+00  0.45593999997E+02  0.45594000000E+02  0.51100000000E-03 0. -1.
         11   -1    0    0    0    0 -0.00000000000E+00 -0.00000000000E+00 -0.45593999997E+02  0.45594000000E+02  0.51100000000E-03 0.  1.
    9900012    2    1    2    0    0 -0.93632854024E+00  0.53416120368E+00 -0.48039939487E+00  0.90007820816E+02  0.90000083251E+02 0.  0.
         12    1    1    2    0    0  0.93632854024E+00 -0.53416120368E+00  0.48039939487E+00  0.11801791836E+01  0.00000000000E+00 0. -1.
         11    1    3    3    0    0  0.13741481693E+02  0.10861822541E+02  0.37759579834E+02  0.41624432459E+02  0.51100000000E-03 0. -1.
        -11    1    3    3    0    0 -0.40785893051E+01  0.76345663780E+01 -0.92212852698E+01  0.12647276260E+02  0.51100000000E-03 0.  1.
        -12    1    3    3    0    0 -0.10599220928E+02 -0.17962227716E+02 -0.29018693959E+02  0.35736112098E+02  0.00000000000E+00 0.  1.
</event>
<event>
 7    1  0.2084210E-015  0.9000777E+02  0.7816164E-02  0.1186339E+00
        -11   -1    0    0    0    0  0.00000000000E+00  0.00000000000E+00  0.45593999997E+02  0.45594000000E+02  0.51100000000E-03 0. -1.
         11   -1    0    0    0    0 -0.00000000000E+00 -0.00000000000E+00 -0.45593999997E+02  0.45594000000E+02  0.51100000000E-03 0.  1.
    9900012    2    1    2    0    0  0.71404312094E+00 -0.90878815117E+00 -0.23914338800E+00  0.90007769920E+02  0.90000031683E+02 0.  0.
         12    1    1    2    0    0 -0.71404312094E+00  0.90878815117E+00  0.23914338800E+00  0.11802300802E+01  0.00000000000E+00 0. -1.
         11    1    3    3    0    0  0.11910473562E+01 -0.14088611826E+00  0.10556337637E+02  0.10624250904E+02  0.51100000000E-03 0. -1.
        -11    1    3    3    0    0  0.15855855491E+02 -0.24651033688E+02 -0.32088032400E+02  0.43459445910E+02  0.51100000000E-03 0.  1.
         12    1    3    3    0    0 -0.16332859726E+02  0.23883131655E+02  0.21292551375E+02  0.35924073106E+02  0.00000000000E+00 0. -1.
</event>
<event>
 7    1  0.2084210E-015  0.9000777E+02  0.7816164E-02  0.1186339E+00
        -11   -1    0    0    0    0  0.00000000000E+00  0.00000000000E+00  0.45593999997E+02  0.45594000000E+02  0.51100000000E-03 0.  1.
         11   -1    0    0    0    0 -0.00000000000E+00 -0.00000000000E+00 -0.45593999997E+02  0.45594000000E+02  0.51100000000E-03 0. -1.
    9900012    2    1    2    0    0  0.11515010217E+01  0.25167510028E+00  0.60410214211E-01  0.90007769364E+02  0.90000031120E+02 0.  0.
         12    1    1    2    0    0 -0.11515010217E+01 -0.25167510028E+00 -0.60410214211E-01  0.11802306355E+01  0.00000000000E+00 0. -1.
         11    1    3    3    0    0  0.22971098206E+02 -0.27687987637E+02  0.16181797131E+02  0.39448023662E+02  0.51100000000E-03 0. -1.
        -11    1    3    3    0    0 -0.26786191227E+01  0.27851106719E+01  0.92520327344E+01  0.10026562314E+02  0.51100000000E-03 0.  1.
        -12    1    3    3    0    0 -0.19140978062E+02  0.25154552066E+02 -0.25373419651E+02  0.40533183388E+02  0.00000000000E+00 0.  1.
</event>
<event>
 7    1  0.2084210E-015  0.9000773E+02  0.7816164E-02  0.1186339E+00
        -11   -1    0    0    0    0  0.00000000000E+00  0.00000000000E+00  0.45593999997E+02  0.45594000000E+02  0.51100000000E-03 0. -1.
         11   -1    0    0    0    0 -0.00000000000E+00 -0.00000000000E+00 -0.45593999997E+02  0.45594000000E+02  0.51100000000E-03 0.  1.
    9900012    2    1    2    0    0  0.72004863321E+00 -0.13891438567E+00 -0.92480625034E+00  0.90007731454E+02  0.89999992709E+02 0.  0.
         12    1    1    2    0    0 -0.72004863321E+00  0.13891438567E+00  0.92480625034E+00  0.11802685463E+01  0.00000000000E+00 0. -1.
         11    1    3    3    0    0  0.80014853225E+00 -0.62686177587E+01  0.40947519066E+02  0.41432295667E+02  0.51100000000E-03 0. -1.
        -11    1    3    3    0    0 -0.45785106899E+01 -0.63221546992E+01 -0.46904028176E+01  0.91067161497E+01  0.51100000000E-03 0.  1.
        -12    1    3    3    0    0  0.44984107909E+01  0.12451858072E+02 -0.37181922499E+02  0.39468719637E+02  0.00000000000E+00 0.  1.
</event>
<event>
 7    1  0.2084210E-015  0.9000785E+02  0.7816164E-02  0.1186339E+00
        -11   -1    0    0    0    0  0.00000000000E+00  0.00000000000E+00  0.45593999997E+02  0.45594000000E+02  0.51100000000E-03 0.  1.
         11   -1    0    0    0    0 -0.00000000000E+00 -0.00000000000E+00 -0.45593999997E+02  0.45594000000E+02  0.51100000000E-03 0. -1.
    9900012    2    1    2    0    0  0.88951676608E+00  0.74315761875E+00  0.22189817211E+00  0.90007846568E+02  0.90000109343E+02 0.  0.
         12    1    1    2    0    0 -0.88951676608E+00 -0.74315761875E+00 -0.22189817211E+00  0.11801534316E+01  0.00000000000E+00 0. -1.
         11    1    3    3    0    0  0.18172481663E+02  0.35560399357E+02 -0.54504806884E+01  0.40304947987E+02  0.51100000000E-03 0. -1.
        -11    1    3    3    0    0  0.61209994112E+01 -0.20988461712E+01  0.68965108022E+01  0.94569366366E+01  0.51100000000E-03 0.  1.
        -12    1    3    3    0    0 -0.23403964308E+02 -0.32718395568E+02 -0.12241319417E+01  0.40245961945E+02  0.00000000000E+00 0.  1.
</event>
<event>
 7    1  0.2084210E-015  0.9000790E+02  0.7816164E-02  0.1186339E+00
        -11   -1    0    0    0    0  0.00000000000E+00  0.00000000000E+00  0.45593999997E+02  0.45594000000E+02  0.51100000000E-03 0. -1.
         11   -1    0    0    0    0 -0.00000000000E+00 -0.00000000000E+00 -0.45593999997E+02  0.45594000000E+02  0.51100000000E-03 0.  1.
    9900012    2    1    2    0    0 -0.10298518783E+01 -0.47996201028E+00  0.31886307900E+00  0.90007901663E+02  0.90000165164E+02 0.  0.
         12    1    1    2    0    0  0.10298518783E+01  0.47996201028E+00 -0.31886307900E+00  0.11800983373E+01  0.00000000000E+00 0. -1.
         11    1    3    3    0    0  0.11239290095E+02  0.36478352407E+01  0.34842567355E+02  0.36791749671E+02  0.51100000000E-03 0. -1.
        -11    1    3    3    0    0 -0.16869134644E+01  0.24274341385E+01  0.81996791189E+01  0.87162406717E+01  0.51100000000E-03 0.  1.
        -12    1    3    3    0    0 -0.10582228508E+02 -0.65552313895E+01 -0.42723383394E+02  0.44499911319E+02  0.00000000000E+00 0.  1.
</event>
<event>
 7    1  0.2084210E-015  0.9000779E+02  0.7816164E-02  0.1186339E+00
        -11   -1    0    0    0    0  0.00000000000E+00  0.00000000000E+00  0.45593999997E+02  0.45594000000E+02  0.51100000000E-03 0. -1.
         11   -1    0    0    0    0 -0.00000000000E+00 -0.00000000000E+00 -0.45593999997E+02  0.45594000000E+02  0.51100000000E-03 0.  1.
    9900012    2    1    2    0    0  0.97638253648E+00  0.32050708767E+00  0.58038202092E+00  0.90007791992E+02  0.90000054047E+02 0.  0.
         12    1    1    2    0    0 -0.97638253648E+00 -0.32050708767E+00 -0.58038202092E+00  0.11802080075E+01  0.00000000000E+00 0. -1.
         11    1    3    3    0    0 -0.37021566792E+01 -0.39689806945E+00  0.11468078149E+02  0.12057375703E+02  0.51100000000E-03 0. -1.
        -11    1    3    3    0    0 -0.19457339428E+02 -0.31140641061E+02 -0.96337943399E+01  0.37962317855E+02  0.51100000000E-03 0.  1.
         12    1    3    3    0    0  0.24135878644E+02  0.31858046218E+02 -0.12539017881E+01  0.39988098434E+02  0.00000000000E+00 0. -1.
</event>
<event>
 7    1  0.2084210E-015  0.9000771E+02  0.7816164E-02  0.1186339E+00
        -11   -1    0    0    0    0  0.00000000000E+00  0.00000000000E+00  0.45593999997E+02  0.45594000000E+02  0.51100000000E-03 0.  1.
         11   -1    0    0    0    0 -0.00000000000E+00 -0.00000000000E+00 -0.45593999997E+02  0.45594000000E+02  0.51100000000E-03 0. -1.
    9900012    2    1    2    0    0 -0.30240405266E+00 -0.90707696900E+00  0.69198545826E+00  0.90007711597E+02  0.89999972591E+02 0.  0.
         12    1    1    2    0    0  0.30240405266E+00  0.90707696900E+00 -0.69198545826E+00  0.11802884026E+01  0.00000000000E+00 0. -1.
         11    1    3    3    0    0 -0.92918223114E+00  0.11121992695E+02  0.50529635466E+01  0.12251307766E+02  0.51100000000E-03 0. -1.
        -11    1    3    3    0    0 -0.35063318120E+02  0.81212085467E+01  0.29950943919E+01  0.36115936878E+02  0.51100000000E-03 0.  1.
         12    1    3    3    0    0  0.35690096299E+02 -0.20150278210E+02 -0.73560724802E+01  0.41640466954E+02  0.00000000000E+00 0. -1.
</event>
<event>
 7    1  0.2084210E-015  0.9000768E+02  0.7816164E-02  0.1186339E+00
        -11   -1    0    0    0    0  0.00000000000E+00  0.00000000000E+00  0.45593999997E+02  0.45594000000E+02  0.51100000000E-03 0. -1.
         11   -1    0    0    0    0 -0.00000000000E+00 -0.00000000000E+00 -0.45593999997E+02  0.45594000000E+02  0.51100000000E-03 0.  1.
    9900012    2    1    2    0    0 -0.57138604913E+00  0.96648063901E+00 -0.36411461774E+00  0.90007683815E+02  0.89999944441E+02 0.  0.
         12    1    1    2    0    0  0.57138604913E+00 -0.96648063901E+00  0.36411461774E+00  0.11803161854E+01  0.00000000000E+00 0. -1.
         11    1    3    3    0    0 -0.33153931981E+00  0.72894088166E+01 -0.67190550755E+01  0.99192288302E+01  0.51100000000E-03 0. -1.
        -11    1    3    3    0    0 -0.23220267491E+02  0.10889074746E+02  0.32401199023E+02  0.41323001701E+02  0.51100000000E-03 0.  1.
         12    1    3    3    0    0  0.22980420762E+02 -0.17212002923E+02 -0.26046258565E+02  0.38765453283E+02  0.00000000000E+00 0. -1.
</event>
<event>
 7    1  0.2084210E-015  0.9000776E+02  0.7816164E-02  0.1186339E+00
        -11   -1    0    0    0    0  0.00000000000E+00  0.00000000000E+00  0.45593999997E+02  0.45594000000E+02  0.51100000000E-03 0. -1.
         11   -1    0    0    0    0 -0.00000000000E+00 -0.00000000000E+00 -0.45593999997E+02  0.45594000000E+02  0.51100000000E-03 0.  1.
    9900012    2    1    2    0    0 -0.58411381634E+00  0.42766157306E+00 -0.93214106099E+00  0.90007758360E+02  0.90000019970E+02 0.  0.
         12    1    1    2    0    0  0.58411381634E+00 -0.42766157306E+00  0.93214106099E+00  0.11802416401E+01  0.00000000000E+00 0. -1.
         11    1    3    3    0    0  0.22877133269E+01  0.62638775779E+01  0.64873993999E+01  0.93035555467E+01  0.51100000000E-03 0. -1.
        -11    1    3    3    0    0  0.37423651345E+02 -0.26531571400E+01  0.62495289157E+01  0.38034530821E+02  0.51100000000E-03 0.  1.
         12    1    3    3    0    0 -0.40295478488E+02 -0.31830588648E+01 -0.13669069377E+02  0.42669671993E+02  0.00000000000E+00 0. -1.
</event>
<event>
 7    1  0.2084210E-015  0.9000770E+02  0.7816164E-02  0.1186339E+00
        -11   -1    0    0    0    0  0.00000000000E+00  0.00000000000E+00  0.45593999997E+02  0.45594000000E+02  0.51100000000E-03 0. -1.
         11   -1    0    0    0    0 -0.00000000000E+00 -0.00000000000E+00 -0.45593999997E+02  0.45594000000E+02  0.51100000000E-03 0.  1.
    9900012    2    1    2    0    0 -0.10350448352E+01 -0.48873798656E+00 -0.28795764402E+00  0.90007702480E+02  0.89999963353E+02 0.  0.
         12    1    1    2    0    0  0.10350448352E+01  0.48873798656E+00  0.28795764402E+00  0.11802975198E+01  0.00000000000E+00 0. -1.
         11    1    3    3    0    0 -0.54164988076E+01  0.32846959694E+02 -0.22233022328E+02  0.40032093408E+02  0.51100000000E-03 0. -1.
        -11    1    3    3    0    0  0.36041225521E+01  0.51839103004E+01  0.39985301649E+01  0.74733439044E+01  0.51100000000E-03 0.  1.
        -12    1    3    3    0    0  0.77733142022E+00 -0.38519607981E+02  0.17946534520E+02  0.42502265168E+02  0.00000000000E+00 0.  1.
</event>
<event>
 7    1  0.2084210E-015  0.9000770E+02  0.7816164E-02  0.1186339E+00
        -11   -1    0    0    0    0  0.00000000000E+00  0.00000000000E+00  0.45593999997E+02  0.45594000000E+02  0.51100000000E-03 0.  1.
         11   -1    0    0    0    0 -0.00000000000E+00 -0.00000000000E+00 -0.45593999997E+02  0.45594000000E+02  0.51100000000E-03 0. -1.
    9900012    2    1    2    0    0  0.56023957942E+00 -0.10276157813E+01 -0.15250338029E+00  0.90007695013E+02  0.89999955788E+02 0.  0.
         12    1    1    2    0    0 -0.56023957942E+00  0.10276157813E+01  0.15250338029E+00  0.11803049865E+01  0.00000000000E+00 0. -1.
         11    1    3    3    0    0  0.91527616387E+01 -0.41062636604E+01 -0.16066522419E+01  0.10159516649E+02  0.51100000000E-03 0. -1.
        -11    1    3    3    0    0 -0.71929060064E+01  0.39370623641E+02  0.12428061994E+02  0.41907524716E+02  0.51100000000E-03 0.  1.
         12    1    3    3    0    0 -0.13996160529E+01 -0.36291975762E+02 -0.10973913132E+02  0.37940653648E+02  0.00000000000E+00 0. -1.
</event>
<event>
 7    1  0.2084210E-015  0.9000774E+02  0.7816164E-02  0.1186339E+00
        -11   -1    0    0    0    0  0.00000000000E+00  0.00000000000E+00  0.45593999997E+02  0.45594000000E+02  0.51100000000E-03 0.  1.
         11   -1    0    0    0    0 -0.00000000000E+00 -0.00000000000E+00 -0.45593999997E+02  0.45594000000E+02  0.51100000000E-03 0. -1.
    9900012    2    1    2    0    0  0.50396068602E+00  0.60339235556E+00  0.88030925202E+00  0.90007744482E+02  0.90000005909E+02 0.  0.
         12    1    1    2    0    0 -0.50396068602E+00 -0.60339235556E+00 -0.88030925202E+00  0.11802555177E+01  0.00000000000E+00 0. -1.
         11    1    3    3    0    0  0.91756423812E+01  0.24981276712E+00 -0.11693624136E+01  0.92532279903E+01  0.51100000000E-03 0. -1.
        -11    1    3    3    0    0  0.47038774395E+01  0.39168939390E+02  0.40018283177E+01  0.39652829735E+02  0.51100000000E-03 0.  1.
         12    1    3    3    0    0 -0.13375559135E+02 -0.38815359801E+02 -0.19521566522E+01  0.41101686757E+02  0.00000000000E+00 0. -1.
</event>
<event>
 7    1  0.2084210E-015  0.9000820E+02  0.7816164E-02  0.1186338E+00
        -11   -1    0    0    0    0  0.00000000000E+00  0.00000000000E+00  0.45593999997E+02  0.45594000000E+02  0.51100000000E-03 0. -1.
         11   -1    0    0    0    0 -0.00000000000E+00 -0.00000000000E+00 -0.45593999997E+02  0.45594000000E+02  0.51100000000E-03 0.  1.
    9900012    2    1    2    0    0 -0.10684953728E+01  0.17316812869E+00  0.46931853787E+00  0.90008199401E+02  0.90000466832E+02 0.  0.
         12    1    1    2    0    0  0.10684953728E+01 -0.17316812869E+00 -0.46931853787E+00  0.11798005986E+01  0.00000000000E+00 0. -1.
         11    1    3    3    0    0  0.27942275144E+02 -0.20281140106E+02  0.20063541426E+02  0.39932957304E+02  0.51100000000E-03 0. -1.
        -11    1    3    3    0    0 -0.51480275835E+00 -0.57509771885E+01 -0.76033791269E+01  0.95472579787E+01  0.51100000000E-03 0.  1.
        -12    1    3    3    0    0 -0.28495967759E+02  0.26205285423E+02 -0.11990843761E+02  0.40527984119E+02  0.00000000000E+00 0.  1.
</event>
<event>
 7    1  0.2084210E-015  0.9000784E+02  0.7816164E-02  0.1186339E+00
        -11   -1    0    0    0    0  0.00000000000E+00  0.00000000000E+00  0.45593999997E+02  0.45594000000E+02  0.51100000000E-03 0.  1.
         11   -1    0    0    0    0 -0.00000000000E+00 -0.00000000000E+00 -0.45593999997E+02  0.45594000000E+02  0.51100000000E-03 0. -1.
    9900012    2    1    2    0    0  0.51354311019E+00  0.10609564683E+01 -0.58471041953E-01  0.90007841529E+02  0.90000104237E+02 0.  0.
         12    1    1    2    0    0 -0.51354311019E+00 -0.10609564683E+01  0.58471041953E-01  0.11801584709E+01  0.00000000000E+00 0. -1.
         11    1    3    3    0    0 -0.48397423934E+01 -0.32533860024E+02 -0.27560232822E+02  0.42912021485E+02  0.51100000000E-03 0. -1.
        -11    1    3    3    0    0  0.56452483274E+01  0.78508900182E+01  0.34653502197E+00  0.96760213692E+01  0.51100000000E-03 0.  1.
        -12    1    3    3    0    0 -0.29196282378E+00  0.25743926474E+02  0.27155226758E+02  0.37419798675E+02  0.00000000000E+00 0.  1.
</event>
<event>
 7    1  0.2084210E-015  0.9000774E+02  0.7816164E-02  0.1186339E+00
        -11   -1    0    0    0    0  0.00000000000E+00  0.00000000000E+00  0.45593999997E+02  0.45594000000E+02  0.51100000000E-03 0.  1.
         11   -1    0    0    0    0 -0.00000000000E+00 -0.00000000000E+00 -0.45593999997E+02  0.45594000000E+02  0.51100000000E-03 0. -1.
    9900012    2    1    2    0    0 -0.40553789193E+00  0.34042561331E+00  0.10548271785E+01  0.90007741149E+02  0.90000002532E+02 0.  0.
         12    1    1    2    0    0  0.40553789193E+00 -0.34042561331E+00 -0.10548271785E+01  0.11802588514E+01  0.00000000000E+00 0. -1.
         11    1    3    3    0    0 -0.46746699072E+01 -0.11568822940E+01  0.85891803680E+01  0.98470774872E+01  0.51100000000E-03 0. -1.
        -11    1    3    3    0    0 -0.30476074357E+02 -0.69488657472E+01  0.18140346528E+02  0.36140697500E+02  0.51100000000E-03 0.  1.
         12    1    3    3    0    0  0.34745206372E+02  0.84461736545E+01 -0.25674699718E+02  0.44019966161E+02  0.00000000000E+00 0. -1.
</event>
<event>
 7    1  0.2084210E-015  0.9000776E+02  0.7816164E-02  0.1186339E+00
        -11   -1    0    0    0    0  0.00000000000E+00  0.00000000000E+00  0.45593999997E+02  0.45594000000E+02  0.51100000000E-03 0. -1.
         11   -1    0    0    0    0 -0.00000000000E+00 -0.00000000000E+00 -0.45593999997E+02  0.45594000000E+02  0.51100000000E-03 0.  1.
    9900012    2    1    2    0    0 -0.21516936924E+00  0.11257817166E+01 -0.28158530684E+00  0.90007757391E+02  0.90000018989E+02 0.  0.
         12    1    1    2    0    0  0.21516936924E+00 -0.11257817166E+01  0.28158530684E+00  0.11802426089E+01  0.00000000000E+00 0. -1.
         11    1    3    3    0    0  0.85603075780E+01  0.37730346335E+01 -0.11211999748E+01  0.94218759183E+01  0.51100000000E-03 0. -1.
        -11    1    3    3    0    0  0.26176162966E+02  0.24319446941E+02 -0.49171064257E+01  0.36066673578E+02  0.51100000000E-03 0.  1.
         12    1    3    3    0    0 -0.34951639913E+02 -0.26966699858E+02  0.57567210937E+01  0.44519207895E+02  0.00000000000E+00 0. -1.
</event>
<event>
 7    1  0.2084210E-015  0.9000771E+02  0.7816164E-02  0.1186339E+00
        -11   -1    0    0    0    0  0.00000000000E+00  0.00000000000E+00  0.45593999997E+02  0.45594000000E+02  0.51100000000E-03 0.  1.
         11   -1    0    0    0    0 -0.00000000000E+00 -0.00000000000E+00 -0.45593999997E+02  0.45594000000E+02  0.51100000000E-03 0. -1.
    9900012    2    1    2    0    0 -0.78341569888E+00  0.53898715497E+00  0.69916501426E+00  0.90007712311E+02  0.89999973314E+02 0.  0.
         12    1    1    2    0    0  0.78341569888E+00 -0.53898715497E+00 -0.69916501426E+00  0.11802876885E+01  0.00000000000E+00 0. -1.
         11    1    3    3    0    0 -0.51006012360E+01  0.61929329887E+01  0.84507650823E+01  0.11652638444E+02  0.51100000000E-03 0. -1.
        -11    1    3    3    0    0  0.16272384218E+02  0.18853091963E+02  0.25304272691E+02  0.35504024861E+02  0.51100000000E-03 0.  1.
         12    1    3    3    0    0 -0.11955198681E+02 -0.24507037796E+02 -0.33055872759E+02  0.42851049006E+02  0.00000000000E+00 0. -1.
</event>
<event>
 7    1  0.2084210E-015  0.9000784E+02  0.7816164E-02  0.1186339E+00
        -11   -1    0    0    0    0  0.00000000000E+00  0.00000000000E+00  0.45593999997E+02  0.45594000000E+02  0.51100000000E-03 0.  1.
         11   -1    0    0    0    0 -0.00000000000E+00 -0.00000000000E+00 -0.45593999997E+02  0.45594000000E+02  0.51100000000E-03 0. -1.
    9900012    2    1    2    0    0  0.33294542672E+00  0.15618245768E+00  0.11213958410E+01  0.90007841430E+02  0.90000104137E+02 0.  0.
         12    1    1    2    0    0 -0.33294542672E+00 -0.15618245768E+00 -0.11213958410E+01  0.11801585697E+01  0.00000000000E+00 0. -1.
         11    1    3    3    0    0 -0.11822159891E+02 -0.32046468317E+02 -0.13536595258E+02  0.36742060469E+02  0.51100000000E-03 0. -1.
        -11    1    3    3    0    0 -0.47240033148E+01 -0.64646404679E+01 -0.13890238933E+01  0.81263258201E+01  0.51100000000E-03 0.  1.
        -12    1    3    3    0    0  0.16879108633E+02  0.38667291243E+02  0.16047014992E+02  0.45139455141E+02  0.00000000000E+00 0.  1.
</event>
<event>
 7    1  0.2084210E-015  0.9000783E+02  0.7816164E-02  0.1186339E+00
        -11   -1    0    0    0    0  0.00000000000E+00  0.00000000000E+00  0.45593999997E+02  0.45594000000E+02  0.51100000000E-03 0.  1.
         11   -1    0    0    0    0 -0.00000000000E+00 -0.00000000000E+00 -0.45593999997E+02  0.45594000000E+02  0.51100000000E-03 0. -1.
    9900012    2    1    2    0    0  0.37773148007E+00 -0.46537621916E+00 -0.10166294244E+01  0.90007834129E+02  0.90000096739E+02 0.  0.
         12    1    1    2    0    0 -0.37773148007E+00  0.46537621916E+00  0.10166294244E+01  0.11801658710E+01  0.00000000000E+00 0. -1.
         11    1    3    3    0    0 -0.18559574412E+02 -0.16272463427E+02  0.93978928942E+01  0.26411574346E+02  0.51100000000E-03 0. -1.
        -11    1    3    3    0    0  0.60822699564E+01 -0.13571998540E+02 -0.24428302338E+02  0.28599564815E+02  0.51100000000E-03 0.  1.
        -12    1    3    3    0    0  0.12855035935E+02  0.29379085748E+02  0.14013780020E+02  0.34996694968E+02  0.00000000000E+00 0.  1.
</event>
<event>
 7    1  0.2084210E-015  0.9000773E+02  0.7816164E-02  0.1186339E+00
        -11   -1    0    0    0    0  0.00000000000E+00  0.00000000000E+00  0.45593999997E+02  0.45594000000E+02  0.51100000000E-03 0.  1.
         11   -1    0    0    0    0 -0.00000000000E+00 -0.00000000000E+00 -0.45593999997E+02  0.45594000000E+02  0.51100000000E-03 0. -1.
    9900012    2    1    2    0    0  0.10058139747E+01 -0.64838925396E-01  0.61414340911E+00  0.90007729707E+02  0.89999990939E+02 0.  0.
         12    1    1    2    0    0 -0.10058139747E+01  0.64838925396E-01 -0.61414340911E+00  0.11802702931E+01  0.00000000000E+00 0. -1.
         11    1    3    3    0    0 -0.84426995786E+01 -0.47105982075E+01  0.28091108760E+01  0.10067771145E+02  0.51100000000E-03 0. -1.
        -11    1    3    3    0    0  0.34434047373E+01  0.15655996813E+02  0.36177545677E+02  0.39569964416E+02  0.51100000000E-03 0.  1.
         12    1    3    3    0    0  0.60051088160E+01 -0.11010237531E+02 -0.38372513144E+02  0.40369994146E+02  0.00000000000E+00 0. -1.
</event>
<event>
 7    1  0.2084210E-015  0.9000768E+02  0.7816164E-02  0.1186339E+00
        -11   -1    0    0    0    0  0.00000000000E+00  0.00000000000E+00  0.45593999997E+02  0.45594000000E+02  0.51100000000E-03 0.  1.
         11   -1    0    0    0    0 -0.00000000000E+00 -0.00000000000E+00 -0.45593999997E+02  0.45594000000E+02  0.51100000000E-03 0. -1.
    9900012    2    1    2    0    0  0.77368782512E+00 -0.82536043331E+00  0.33667739688E+00  0.90007676161E+02  0.89999936686E+02 0.  0.
         12    1    1    2    0    0 -0.77368782512E+00  0.82536043331E+00 -0.33667739688E+00  0.11803238391E+01  0.00000000000E+00 0. -1.
         11    1    3    3    0    0  0.11782310125E+02 -0.31108201272E+02  0.22617081485E+02  0.40225307873E+02  0.51100000000E-03 0. -1.
        -11    1    3    3    0    0 -0.99908180765E+01  0.24509849733E+01  0.44237492321E+01  0.11197916356E+02  0.51100000000E-03 0.  1.
        -12    1    3    3    0    0 -0.10178042229E+01  0.27831855866E+02 -0.26704153321E+02  0.38584451933E+02  0.00000000000E+00 0.  1.
</event>
<event>
 7    1  0.2084210E-015  0.9000772E+02  0.7816164E-02  0.1186339E+00
        -11   -1    0    0    0    0  0.00000000000E+00  0.00000000000E+00  0.45593999997E+02  0.45594000000E+02  0.51100000000E-03 0.  1.
         11   -1    0    0    0    0 -0.00000000000E+00 -0.00000000000E+00 -0.45593999997E+02  0.45594000000E+02  0.51100000000E-03 0. -1.
    9900012    2    1    2    0    0  0.84648634134E+00  0.74533939785E+00  0.34782269944E+00  0.90007724365E+02  0.89999985527E+02 0.  0.
         12    1    1    2    0    0 -0.84648634134E+00 -0.74533939785E+00 -0.34782269944E+00  0.11802756349E+01  0.00000000000E+00 0. -1.
         11    1    3    3    0    0  0.87887878635E+01 -0.17469951492E+02 -0.72862756607E+01  0.20869398901E+02  0.51100000000E-03 0. -1.
        -11    1    3    3    0    0  0.16362701037E+02  0.33356892264E+02  0.14173147019E+02  0.39765542162E+02  0.51100000000E-03 0.  1.
         12    1    3    3    0    0 -0.24305002559E+02 -0.15141601374E+02 -0.65390486592E+01  0.29372783302E+02  0.00000000000E+00 0. -1.
</event>
<event>
 7    1  0.2084210E-015  0.9000785E+02  0.7816164E-02  0.1186339E+00
        -11   -1    0    0    0    0  0.00000000000E+00  0.00000000000E+00  0.45593999997E+02  0.45594000000E+02  0.51100000000E-03 0. -1.
         11   -1    0    0    0    0 -0.00000000000E+00 -0.00000000000E+00 -0.45593999997E+02  0.45594000000E+02  0.51100000000E-03 0.  1.
    9900012    2    1    2    0    0  0.21152683483E+00 -0.73040117148E+00 -0.90251047729E+00  0.90007849741E+02  0.90000112557E+02 0.  0.
         12    1    1    2    0    0 -0.21152683483E+00  0.73040117148E+00  0.90251047729E+00  0.11801502594E+01  0.00000000000E+00 0. -1.
         11    1    3    3    0    0  0.64354634016E+01  0.11870198198E-01  0.19507975396E+02  0.20542064999E+02  0.51100000000E-03 0. -1.
        -11    1    3    3    0    0  0.17241726819E+02  0.24667658749E+01 -0.36766172043E+02  0.40683085976E+02  0.51100000000E-03 0.  1.
         12    1    3    3    0    0 -0.23465663385E+02 -0.32090372446E+01  0.16355686170E+02  0.28782698766E+02  0.00000000000E+00 0. -1.
</event>
<event>
 7    1  0.2084210E-015  0.9000784E+02  0.7816164E-02  0.1186339E+00
        -11   -1    0    0    0    0  0.00000000000E+00  0.00000000000E+00  0.45593999997E+02  0.45594000000E+02  0.51100000000E-03 0.  1.
         11   -1    0    0    0    0 -0.00000000000E+00 -0.00000000000E+00 -0.45593999997E+02  0.45594000000E+02  0.51100000000E-03 0. -1.
    9900012    2    1    2    0    0 -0.10864977321E+01 -0.27290727004E+00 -0.37122892780E+00  0.90007844664E+02  0.90000107414E+02 0.  0.
         12    1    1    2    0    0  0.10864977321E+01  0.27290727004E+00  0.37122892780E+00  0.11801553359E+01  0.00000000000E+00 0. -1.
         11    1    3    3    0    0  0.16943979761E+02  0.22138469135E+02 -0.28622897233E+02  0.39955982181E+02  0.51100000000E-03 0. -1.
        -11    1    3    3    0    0 -0.45785384105E+01  0.71178280475E+01  0.88486021727E+01  0.12244355874E+02  0.51100000000E-03 0.  1.
        -12    1    3    3    0    0 -0.13451939083E+02 -0.29529204452E+02  0.19403066132E+02  0.37807506609E+02  0.00000000000E+00 0.  1.
</event>
<event>
 7    1  0.2204541E-015  0.9000769E+02  0.7816164E-02  0.1186339E+00
        -11   -1    0    0    0    0  0.00000000000E+00  0.00000000000E+00  0.45593999997E+02  0.45594000000E+02  0.51100000000E-03 0. -1.
         11   -1    0    0    0    0 -0.00000000000E+00 -0.00000000000E+00 -0.45593999997E+02  0.45594000000E+02  0.51100000000E-03 0.  1.
    9900012    2    1    2    0    0  0.42210653493E+00 -0.70508779962E+00 -0.84723325268E+00  0.90007692025E+02  0.89999952759E+02 0.  0.
         12    1    1    2    0    0 -0.42210653493E+00  0.70508779962E+00  0.84723325268E+00  0.11803079753E+01  0.00000000000E+00 0. -1.
         11    1    3    3    0    0 -0.22957445733E+02  0.14066839031E+02  0.29514285874E+02  0.39950135742E+02  0.51100000000E-03 0. -1.
        -11    1    3    3    0    0 -0.49663478642E+01 -0.85301478952E+01 -0.33929474700E+01  0.10437438719E+02  0.51100000000E-03 0.  1.
        -12    1    3    3    0    0  0.28345900132E+02 -0.62417789350E+01 -0.26968571656E+02  0.39620117564E+02  0.00000000000E+00 0.  1.
</event>
<event>
 7    1  0.2084210E-015  0.9000780E+02  0.7816164E-02  0.1186339E+00
        -11   -1    0    0    0    0  0.00000000000E+00  0.00000000000E+00  0.45593999997E+02  0.45594000000E+02  0.51100000000E-03 0. -1.
         11   -1    0    0    0    0 -0.00000000000E+00 -0.00000000000E+00 -0.45593999997E+02  0.45594000000E+02  0.51100000000E-03 0.  1.
    9900012    2    1    2    0    0  0.59504961625E+00 -0.94099181081E+00 -0.39155750716E+00  0.90007802171E+02  0.90000064360E+02 0.  0.
         12    1    1    2    0    0 -0.59504961625E+00  0.94099181081E+00  0.39155750716E+00  0.11801978289E+01  0.00000000000E+00 0. -1.
         11    1    3    3    0    0 -0.35874450616E+02  0.63763004361E+01  0.25468259225E+00  0.36437594291E+02  0.51100000000E-03 0. -1.
        -11    1    3    3    0    0 -0.71144437833E+01  0.34227818761E+01 -0.34046040514E+01  0.85977947827E+01  0.51100000000E-03 0.  1.
        -12    1    3    3    0    0  0.43583944015E+02 -0.10740074123E+02  0.27583639520E+01  0.44972413097E+02  0.00000000000E+00 0.  1.
</event>
<event>
 7    1  0.2084210E-015  0.9000779E+02  0.7816164E-02  0.1186339E+00
        -11   -1    0    0    0    0  0.00000000000E+00  0.00000000000E+00  0.45593999997E+02  0.45594000000E+02  0.51100000000E-03 0. -1.
         11   -1    0    0    0    0 -0.00000000000E+00 -0.00000000000E+00 -0.45593999997E+02  0.45594000000E+02  0.51100000000E-03 0.  1.
    9900012    2    1    2    0    0 -0.91675440027E+00  0.70573886900E+00  0.23321141106E+00  0.90007790890E+02  0.90000052929E+02 0.  0.
         12    1    1    2    0    0  0.91675440027E+00 -0.70573886900E+00 -0.23321141106E+00  0.11802091102E+01  0.00000000000E+00 0. -1.
         11    1    3    3    0    0 -0.28376009686E+02  0.24453345914E+01  0.25373650976E+02  0.38144458982E+02  0.51100000000E-03 0. -1.
        -11    1    3    3    0    0  0.59572807706E+01  0.11066721799E+02  0.42441426861E+01  0.13265529502E+02  0.51100000000E-03 0.  1.
        -12    1    3    3    0    0  0.21501974515E+02 -0.12806317521E+02 -0.29384582251E+02  0.38597802406E+02  0.00000000000E+00 0.  1.
</event>
<event>
 7    1  0.2084210E-015  0.9000772E+02  0.7816164E-02  0.1186339E+00
        -11   -1    0    0    0    0  0.00000000000E+00  0.00000000000E+00  0.45593999997E+02  0.45594000000E+02  0.51100000000E-03 0. -1.
         11   -1    0    0    0    0 -0.00000000000E+00 -0.00000000000E+00 -0.45593999997E+02  0.45594000000E+02  0.51100000000E-03 0.  1.
    9900012    2    1    2    0    0 -0.87574444532E+00  0.78733480745E+00 -0.78932131870E-01  0.90007722611E+02  0.89999983750E+02 0.  0.
         12    1    1    2    0    0  0.87574444532E+00 -0.78733480745E+00  0.78932131870E-01  0.11802773886E+01  0.00000000000E+00 0. -1.
         11    1    3    3    0    0  0.55070168318E+01  0.25961769153E+02  0.26873063172E+02  0.37769064279E+02  0.51100000000E-03 0. -1.
        -11    1    3    3    0    0 -0.86301294790E+01  0.50848041758E+01  0.20955026011E+01  0.10233547759E+02  0.51100000000E-03 0.  1.
        -12    1    3    3    0    0  0.22473682018E+01 -0.30259238521E+02 -0.29047497905E+02  0.42005110574E+02  0.00000000000E+00 0.  1.
</event>
<event>
 7    1  0.2084210E-015  0.9000789E+02  0.7816164E-02  0.1186339E+00
        -11   -1    0    0    0    0  0.00000000000E+00  0.00000000000E+00  0.45593999997E+02  0.45594000000E+02  0.51100000000E-03 0. -1.
         11   -1    0    0    0    0 -0.00000000000E+00 -0.00000000000E+00 -0.45593999997E+02  0.45594000000E+02  0.51100000000E-03 0.  1.
    9900012    2    1    2    0    0  0.24152403089E+00  0.37321720949E+00 -0.10931758473E+01  0.90007890524E+02  0.90000153879E+02 0.  0.
         12    1    1    2    0    0 -0.24152403089E+00 -0.37321720949E+00  0.10931758473E+01  0.11801094763E+01  0.00000000000E+00 0. -1.
         11    1    3    3    0    0  0.78646758744E+01 -0.64318909410E+01 -0.11728336715E+01  0.10227310828E+02  0.51100000000E-03 0. -1.
        -11    1    3    3    0    0  0.13231500613E+01  0.33113033785E+02  0.25736754724E+02  0.41959555247E+02  0.51100000000E-03 0.  1.
         12    1    3    3    0    0 -0.89463019048E+01 -0.26307925635E+02 -0.25657096900E+02  0.37821024448E+02  0.00000000000E+00 0. -1.
</event>
<event>
 7    1  0.2084210E-015  0.9000775E+02  0.7816164E-02  0.1186339E+00
        -11   -1    0    0    0    0  0.00000000000E+00  0.00000000000E+00  0.45593999997E+02  0.45594000000E+02  0.51100000000E-03 0. -1.
         11   -1    0    0    0    0 -0.00000000000E+00 -0.00000000000E+00 -0.45593999997E+02  0.45594000000E+02  0.51100000000E-03 0.  1.
    9900012    2    1    2    0    0 -0.83578812005E+00  0.48853735034E-01 -0.83190102506E+00  0.90007750965E+02  0.90000012478E+02 0.  0.
         12    1    1    2    0    0  0.83578812005E+00 -0.48853735034E-01  0.83190102506E+00  0.11802490350E+01  0.00000000000E+00 0. -1.
         11    1    3    3    0    0  0.34544865542E+01 -0.16677058481E+02  0.55481458473E+01  0.17911998201E+02  0.51100000000E-03 0. -1.
        -11    1    3    3    0    0  0.27161167682E+02  0.18757800540E+01 -0.20983085680E+02  0.34373499466E+02  0.51100000000E-03 0.  1.
         12    1    3    3    0    0 -0.31451442356E+02  0.14850132162E+02  0.14603038807E+02  0.37722253298E+02  0.00000000000E+00 0. -1.
</event>
<event>
 7    1  0.2084210E-015  0.9000774E+02  0.7816164E-02  0.1186339E+00
        -11   -1    0    0    0    0  0.00000000000E+00  0.00000000000E+00  0.45593999997E+02  0.45594000000E+02  0.51100000000E-03 0. -1.
         11   -1    0    0    0    0 -0.00000000000E+00 -0.00000000000E+00 -0.45593999997E+02  0.45594000000E+02  0.51100000000E-03 0.  1.
    9900012    2    1    2    0    0 -0.10927321813E+00 -0.11356662721E+01 -0.30219938246E+00  0.90007744526E+02  0.90000005954E+02 0.  0.
         12    1    1    2    0    0  0.10927321813E+00  0.11356662721E+01  0.30219938246E+00  0.11802554742E+01  0.00000000000E+00 0. -1.
         11    1    3    3    0    0 -0.22345179945E+01 -0.82306938019E+01 -0.48956306186E+01  0.98338492232E+01  0.51100000000E-03 0. -1.
        -11    1    3    3    0    0 -0.17595702430E+02  0.29195631076E+02 -0.21831477552E+02  0.40479711342E+02  0.51100000000E-03 0.  1.
         12    1    3    3    0    0  0.19720947207E+02 -0.22100603546E+02  0.26424908788E+02  0.39694183961E+02  0.00000000000E+00 0. -1.
</event>
<event>
 7    1  0.2084210E-015  0.9000774E+02  0.7816164E-02  0.1186339E+00
        -11   -1    0    0    0    0  0.00000000000E+00  0.00000000000E+00  0.45593999997E+02  0.45594000000E+02  0.51100000000E-03 0.  1.
         11   -1    0    0    0    0 -0.00000000000E+00 -0.00000000000E+00 -0.45593999997E+02  0.45594000000E+02  0.51100000000E-03 0. -1.
    9900012    2    1    2    0    0  0.48718062263E+00  0.88269520849E+00 -0.61360568730E+00  0.90007742516E+02  0.90000003917E+02 0.  0.
         12    1    1    2    0    0 -0.48718062263E+00 -0.88269520849E+00  0.61360568730E+00  0.11802574845E+01  0.00000000000E+00 0. -1.
         11    1    3    3    0    0  0.31339603100E+01  0.13829690045E+01  0.95751910645E+01  0.10169493334E+02  0.51100000000E-03 0. -1.
        -11    1    3    3    0    0  0.20765536077E+02  0.76458968068E+01  0.27146495986E+02  0.35022842134E+02  0.51100000000E-03 0.  1.
         12    1    3    3    0    0 -0.23412315765E+02 -0.81461706028E+01 -0.37335292738E+02  0.44815407047E+02  0.00000000000E+00 0. -1.
</event>
<event>
 7    1  0.2084210E-015  0.9000772E+02  0.7816164E-02  0.1186339E+00
        -11   -1    0    0    0    0  0.00000000000E+00  0.00000000000E+00  0.45593999997E+02  0.45594000000E+02  0.51100000000E-03 0. -1.
         11   -1    0    0    0    0 -0.00000000000E+00 -0.00000000000E+00 -0.45593999997E+02  0.45594000000E+02  0.51100000000E-03 0.  1.
    9900012    2    1    2    0    0 -0.68936694026E+00  0.40101081280E+00  0.87007231695E+00  0.90007719403E+02  0.89999980499E+02 0.  0.
         12    1    1    2    0    0  0.68936694026E+00 -0.40101081280E+00 -0.87007231695E+00  0.11802805967E+01  0.00000000000E+00 0. -1.
         11    1    3    3    0    0  0.10025202665E+02  0.17179008292E+02  0.34277196739E+02  0.39630155575E+02  0.51100000000E-03 0. -1.
        -11    1    3    3    0    0  0.99459313624E+01 -0.67566843326E+00 -0.33696925313E+01  0.10522970423E+02  0.51100000000E-03 0.  1.
        -12    1    3    3    0    0 -0.20660500968E+02 -0.16102329046E+02 -0.30037431890E+02  0.39854593406E+02  0.00000000000E+00 0.  1.
</event>
<event>
 7    1  0.2084210E-015  0.9000779E+02  0.7816164E-02  0.1186339E+00
        -11   -1    0    0    0    0  0.00000000000E+00  0.00000000000E+00  0.45593999997E+02  0.45594000000E+02  0.51100000000E-03 0. -1.
         11   -1    0    0    0    0 -0.00000000000E+00 -0.00000000000E+00 -0.45593999997E+02  0.45594000000E+02  0.51100000000E-03 0.  1.
    9900012    2    1    2    0    0 -0.97282427986E+00  0.54362872187E+00 -0.38856856963E+00  0.90007786121E+02  0.90000048098E+02 0.  0.
         12    1    1    2    0    0  0.97282427986E+00 -0.54362872187E+00  0.38856856963E+00  0.11802138789E+01  0.00000000000E+00 0. -1.
         11    1    3    3    0    0  0.10140919080E+02 -0.11767250098E+02  0.33318164291E+02  0.36761481018E+02  0.51100000000E-03 0. -1.
        -11    1    3    3    0    0  0.13156382310E+02  0.21698370962E+01 -0.48210500955E+01  0.14178896741E+02  0.51100000000E-03 0.  1.
        -12    1    3    3    0    0 -0.24270125670E+02  0.10141041724E+02 -0.28885682765E+02  0.39067408362E+02  0.00000000000E+00 0.  1.
</event>
<event>
 7    1  0.2850772E-015  0.9000771E+02  0.7816164E-02  0.1186339E+00
        -11   -1    0    0    0    0  0.00000000000E+00  0.00000000000E+00  0.45593999997E+02  0.45594000000E+02  0.51100000000E-03 0.  1.
         11   -1    0    0    0    0 -0.00000000000E+00 -0.00000000000E+00 -0.45593999997E+02  0.45594000000E+02  0.51100000000E-03 0. -1.
    9900012    2    1    2    0    0 -0.95981250534E+00 -0.39428619968E+00  0.56247092935E+00  0.90007713933E+02  0.89999974957E+02 0.  0.
         12    1    1    2    0    0  0.95981250534E+00  0.39428619968E+00 -0.56247092935E+00  0.11802860666E+01  0.00000000000E+00 0. -1.
         11    1    3    3    0    0 -0.23199868796E+02 -0.92929706145E+01 -0.28274450620E+02  0.37736425018E+02  0.51100000000E-03 0. -1.
        -11    1    3    3    0    0 -0.12552998039E+01  0.46033908690E+01 -0.74393370415E+01  0.88380269839E+01  0.51100000000E-03 0.  1.
        -12    1    3    3    0    0  0.23495356094E+02  0.42952935457E+01  0.36276258591E+02  0.43433261932E+02  0.00000000000E+00 0.  1.
</event>
<event>
 7    1  0.2084210E-015  0.9000773E+02  0.7816164E-02  0.1186339E+00
        -11   -1    0    0    0    0  0.00000000000E+00  0.00000000000E+00  0.45593999997E+02  0.45594000000E+02  0.51100000000E-03 0.  1.
         11   -1    0    0    0    0 -0.00000000000E+00 -0.00000000000E+00 -0.45593999997E+02  0.45594000000E+02  0.51100000000E-03 0. -1.
    9900012    2    1    2    0    0  0.28944580851E+00  0.42549675787E+00  0.10621721442E+01  0.90007730526E+02  0.89999991769E+02 0.  0.
         12    1    1    2    0    0 -0.28944580851E+00 -0.42549675787E+00 -0.10621721442E+01  0.11802694739E+01  0.00000000000E+00 0. -1.
         11    1    3    3    0    0 -0.95183411901E+01 -0.31858913165E+02 -0.58281004675E+01  0.33757309169E+02  0.51100000000E-03 0. -1.
        -11    1    3    3    0    0 -0.33022231973E-02 -0.11189750393E+02  0.26257798594E+00  0.11192831287E+02  0.51100000000E-03 0.  1.
        -12    1    3    3    0    0  0.98110892218E+01  0.43474160315E+02  0.66276946258E+01  0.45057590070E+02  0.00000000000E+00 0.  1.
</event>
<event>
 7    1  0.2084210E-015  0.9000741E+02  0.7816164E-02  0.1186340E+00
        -11   -1    0    0    0    0  0.00000000000E+00  0.00000000000E+00  0.45593999997E+02  0.45594000000E+02  0.51100000000E-03 0. -1.
         11   -1    0    0    0    0 -0.00000000000E+00 -0.00000000000E+00 -0.45593999997E+02  0.45594000000E+02  0.51100000000E-03 0.  1.
    9900012    2    1    2    0    0 -0.40344708033E+00 -0.11089289363E+01  0.36130037121E-01  0.90007407644E+02  0.89999664624E+02 0.  0.
         12    1    1    2    0    0  0.40344708033E+00  0.11089289363E+01 -0.36130037121E-01  0.11805923564E+01  0.00000000000E+00 0. -1.
         11    1    3    3    0    0  0.24388519927E+02 -0.15332726496E+02  0.27117085224E+02  0.39562971543E+02  0.51100000000E-03 0. -1.
        -11    1    3    3    0    0 -0.11094254913E+02  0.34840268324E+01  0.59840326238E+01  0.13077827868E+02  0.51100000000E-03 0.  1.
        -12    1    3    3    0    0 -0.13697712094E+02  0.10739770727E+02 -0.33064987811E+02  0.37366608233E+02  0.00000000000E+00 0.  1.
</event>
<event>
 7    1  0.2084210E-015  0.9000778E+02  0.7816164E-02  0.1186339E+00
        -11   -1    0    0    0    0  0.00000000000E+00  0.00000000000E+00  0.45593999997E+02  0.45594000000E+02  0.51100000000E-03 0.  1.
         11   -1    0    0    0    0 -0.00000000000E+00 -0.00000000000E+00 -0.45593999997E+02  0.45594000000E+02  0.51100000000E-03 0. -1.
    9900012    2    1    2    0    0  0.17151655830E+00 -0.11669121060E+01 -0.42721022233E-01  0.90007776767E+02  0.90000038621E+02 0.  0.
         12    1    1    2    0    0 -0.17151655830E+00  0.11669121060E+01  0.42721022233E-01  0.11802232326E+01  0.00000000000E+00 0. -1.
         11    1    3    3    0    0 -0.77442685333E+01 -0.24170860087E+01 -0.59514492169E+01  0.10061597683E+02  0.51100000000E-03 0. -1.
        -11    1    3    3    0    0  0.12301121872E+02 -0.32610736082E+02  0.23005113501E+02  0.41761381138E+02  0.51100000000E-03 0.  1.
         12    1    3    3    0    0 -0.43853367808E+01  0.33860909985E+02 -0.17096385306E+02  0.38184797946E+02  0.00000000000E+00 0. -1.
</event>
<event>
 7    1  0.2084210E-015  0.9000795E+02  0.7816164E-02  0.1186339E+00
        -11   -1    0    0    0    0  0.00000000000E+00  0.00000000000E+00  0.45593999997E+02  0.45594000000E+02  0.51100000000E-03 0. -1.
         11   -1    0    0    0    0 -0.00000000000E+00 -0.00000000000E+00 -0.45593999997E+02  0.45594000000E+02  0.51100000000E-03 0.  1.
    9900012    2    1    2    0    0  0.83438797846E+00 -0.83064820636E+00 -0.79563837258E-01  0.90007953329E+02  0.90000217513E+02 0.  0.
         12    1    1    2    0    0 -0.83438797846E+00  0.83064820636E+00  0.79563837258E-01  0.11800466709E+01  0.00000000000E+00 0. -1.
         11    1    3    3    0    0  0.22305367731E+01 -0.14002488145E+02  0.39177101912E+02  0.41664016646E+02  0.51100000000E-03 0. -1.
        -11    1    3    3    0    0  0.68041414389E+01 -0.25189181515E+01 -0.27286558889E+01  0.77515709759E+01  0.51100000000E-03 0.  1.
        -12    1    3    3    0    0 -0.82002902335E+01  0.15690758090E+02 -0.36528009861E+02  0.40592365708E+02  0.00000000000E+00 0.  1.
</event>
<event>
 7    1  0.2084210E-015  0.9000772E+02  0.7816164E-02  0.1186339E+00
        -11   -1    0    0    0    0  0.00000000000E+00  0.00000000000E+00  0.45593999997E+02  0.45594000000E+02  0.51100000000E-03 0.  1.
         11   -1    0    0    0    0 -0.00000000000E+00 -0.00000000000E+00 -0.45593999997E+02  0.45594000000E+02  0.51100000000E-03 0. -1.
    9900012    2    1    2    0    0 -0.32549648164E+00  0.78440717341E+00  0.81965071634E+00  0.90007716191E+02  0.89999977245E+02 0.  0.
         12    1    1    2    0    0  0.32549648164E+00 -0.78440717341E+00 -0.81965071634E+00  0.11802838091E+01  0.00000000000E+00 0. -1.
         11    1    3    3    0    0 -0.32952868120E+01 -0.73911858688E+01  0.38562895563E+01  0.89643467762E+01  0.51100000000E-03 0. -1.
        -11    1    3    3    0    0  0.25638518955E+02  0.34439007055E+02  0.98217683688E+01  0.44043682808E+02  0.51100000000E-03 0.  1.
         12    1    3    3    0    0 -0.22668728624E+02 -0.26263414013E+02 -0.12858407209E+02  0.36999686607E+02  0.00000000000E+00 0. -1.
</event>
<event>
 7    1  0.2084210E-015  0.9000763E+02  0.7816164E-02  0.1186339E+00
        -11   -1    0    0    0    0  0.00000000000E+00  0.00000000000E+00  0.45593999997E+02  0.45594000000E+02  0.51100000000E-03 0.  1.
         11   -1    0    0    0    0 -0.00000000000E+00 -0.00000000000E+00 -0.45593999997E+02  0.45594000000E+02  0.51100000000E-03 0. -1.
    9900012    2    1    2    0    0  0.11341619249E+01  0.21380809107E+00 -0.24747184932E+00  0.90007627394E+02  0.89999887276E+02 0.  0.
         12    1    1    2    0    0 -0.11341619249E+01 -0.21380809107E+00  0.24747184932E+00  0.11803726055E+01  0.00000000000E+00 0. -1.
         11    1    3    3    0    0  0.14973006608E+00 -0.51401859160E+01 -0.98603513188E+01  0.11120722042E+02  0.51100000000E-03 0. -1.
        -11    1    3    3    0    0 -0.35395808341E+02 -0.92985409788E+01 -0.51965531598E+01  0.36963905062E+02  0.51100000000E-03 0.  1.
         12    1    3    3    0    0  0.36380240200E+02  0.14652534986E+02  0.14809432629E+02  0.41923000290E+02  0.00000000000E+00 0. -1.
</event>
<event>
 7    1  0.2084210E-015  0.9000775E+02  0.7816164E-02  0.1186339E+00
        -11   -1    0    0    0    0  0.00000000000E+00  0.00000000000E+00  0.45593999997E+02  0.45594000000E+02  0.51100000000E-03 0.  1.
         11   -1    0    0    0    0 -0.00000000000E+00 -0.00000000000E+00 -0.45593999997E+02  0.45594000000E+02  0.51100000000E-03 0. -1.
    9900012    2    1    2    0    0 -0.89118936879E+00 -0.18577121182E+00  0.75116724194E+00  0.90007753560E+02  0.90000015107E+02 0.  0.
         12    1    1    2    0    0  0.89118936879E+00  0.18577121182E+00 -0.75116724194E+00  0.11802464402E+01  0.00000000000E+00 0. -1.
         11    1    3    3    0    0 -0.73217630130E+00  0.37258933661E+02 -0.86472222674E+01  0.38256223976E+02  0.51100000000E-03 0. -1.
        -11    1    3    3    0    0 -0.81325389475E+01  0.31912018490E+01 -0.16534238764E+01  0.88913311574E+01  0.51100000000E-03 0.  1.
        -12    1    3    3    0    0  0.79735258801E+01 -0.40635906722E+02  0.11051813386E+02  0.42860198427E+02  0.00000000000E+00 0.  1.
</event>
<event>
 7    1  0.2084210E-015  0.9000770E+02  0.7816164E-02  0.1186339E+00
        -11   -1    0    0    0    0  0.00000000000E+00  0.00000000000E+00  0.45593999997E+02  0.45594000000E+02  0.51100000000E-03 0.  1.
         11   -1    0    0    0    0 -0.00000000000E+00 -0.00000000000E+00 -0.45593999997E+02  0.45594000000E+02  0.51100000000E-03 0. -1.
    9900012    2    1    2    0    0 -0.98219299210E+00 -0.38408220720E+00 -0.52997729069E+00  0.90007704213E+02  0.89999965109E+02 0.  0.
         12    1    1    2    0    0  0.98219299210E+00  0.38408220720E+00  0.52997729069E+00  0.11802957868E+01  0.00000000000E+00 0. -1.
         11    1    3    3    0    0  0.13610633356E+01 -0.94597560588E+01  0.12626463858E+01  0.96402154671E+01  0.51100000000E-03 0. -1.
        -11    1    3    3    0    0 -0.17720536371E+01 -0.21018776541E+02  0.29943799111E+02  0.36627315583E+02  0.51100000000E-03 0.  1.
         12    1    3    3    0    0 -0.57120269056E+00  0.30094450393E+02 -0.31736422787E+02  0.43740173163E+02  0.00000000000E+00 0. -1.
</event>
<event>
 7    1  0.2084210E-015  0.9000770E+02  0.7816164E-02  0.1186339E+00
        -11   -1    0    0    0    0  0.00000000000E+00  0.00000000000E+00  0.45593999997E+02  0.45594000000E+02  0.51100000000E-03 0.  1.
         11   -1    0    0    0    0 -0.00000000000E+00 -0.00000000000E+00 -0.45593999997E+02  0.45594000000E+02  0.51100000000E-03 0. -1.
    9900012    2    1    2    0    0 -0.95478340464E+00 -0.64367147577E+00  0.25920344253E+00  0.90007698876E+02  0.89999959701E+02 0.  0.
         12    1    1    2    0    0  0.95478340464E+00  0.64367147577E+00 -0.25920344253E+00  0.11803011239E+01  0.00000000000E+00 0. -1.
         11    1    3    3    0    0 -0.61334001789E+01  0.57053641593E+01 -0.33026876205E+01  0.90043058436E+01  0.51100000000E-03 0. -1.
        -11    1    3    3    0    0 -0.24845685887E+02  0.15546006976E+02  0.24632840011E+02  0.38285287610E+02  0.51100000000E-03 0.  1.
         12    1    3    3    0    0  0.30024302662E+02 -0.21895042612E+02 -0.21070948948E+02  0.42718105422E+02  0.00000000000E+00 0. -1.
</event>
<event>
 7    1  0.2084210E-015  0.9000772E+02  0.7816164E-02  0.1186339E+00
        -11   -1    0    0    0    0  0.00000000000E+00  0.00000000000E+00  0.45593999997E+02  0.45594000000E+02  0.51100000000E-03 0. -1.
         11   -1    0    0    0    0 -0.00000000000E+00 -0.00000000000E+00 -0.45593999997E+02  0.45594000000E+02  0.51100000000E-03 0.  1.
    9900012    2    1    2    0    0 -0.62399802877E+00  0.36772461558E+00 -0.93191159071E+00  0.90007722852E+02  0.89999983994E+02 0.  0.
         12    1    1    2    0    0  0.62399802877E+00 -0.36772461558E+00  0.93191159071E+00  0.11802771478E+01  0.00000000000E+00 0. -1.
         11    1    3    3    0    0  0.21472941307E+01  0.43044739653E+01 -0.78310976742E+01  0.91905091940E+01  0.51100000000E-03 0. -1.
        -11    1    3    3    0    0  0.83249620496E+01  0.37063605496E+02  0.48118926648E+01  0.38290601416E+02  0.51100000000E-03 0.  1.
         12    1    3    3    0    0 -0.11096254209E+02 -0.41000354846E+02  0.20872934187E+01  0.42526612242E+02  0.00000000000E+00 0. -1.
</event>
<event>
 7    1  0.2084210E-015  0.9000772E+02  0.7816164E-02  0.1186339E+00
        -11   -1    0    0    0    0  0.00000000000E+00  0.00000000000E+00  0.45593999997E+02  0.45594000000E+02  0.51100000000E-03 0. -1.
         11   -1    0    0    0    0 -0.00000000000E+00 -0.00000000000E+00 -0.45593999997E+02  0.45594000000E+02  0.51100000000E-03 0.  1.
    9900012    2    1    2    0    0 -0.70789283180E+00 -0.84128218807E+00 -0.42918123560E+00  0.90007718460E+02  0.89999979543E+02 0.  0.
         12    1    1    2    0    0  0.70789283180E+00  0.84128218807E+00  0.42918123560E+00  0.11802815403E+01  0.00000000000E+00 0. -1.
         11    1    3    3    0    0  0.24609786863E+02 -0.20840576126E+02  0.15716550287E+02  0.35874519870E+02  0.51100000000E-03 0. -1.
        -11    1    3    3    0    0  0.67369983485E+01 -0.64492284323E+01  0.56118120670E+00  0.93431589265E+01  0.51100000000E-03 0.  1.
        -12    1    3    3    0    0 -0.32054678044E+02  0.26448522371E+02 -0.16706912729E+02  0.44790039663E+02  0.00000000000E+00 0.  1.
</event>
<event>
 7    1  0.2084210E-015  0.9000767E+02  0.7816164E-02  0.1186339E+00
        -11   -1    0    0    0    0  0.00000000000E+00  0.00000000000E+00  0.45593999997E+02  0.45594000000E+02  0.51100000000E-03 0.  1.
         11   -1    0    0    0    0 -0.00000000000E+00 -0.00000000000E+00 -0.45593999997E+02  0.45594000000E+02  0.51100000000E-03 0. -1.
    9900012    2    1    2    0    0  0.30053833633E+00 -0.96533179404E+00  0.60909832382E+00  0.90007665500E+02  0.89999925884E+02 0.  0.
         12    1    1    2    0    0 -0.30053833633E+00  0.96533179404E+00 -0.60909832382E+00  0.11803345002E+01  0.00000000000E+00 0. -1.
         11    1    3    3    0    0  0.55229070060E+01 -0.16637124656E+01  0.80217287542E+01  0.98802112038E+01  0.51100000000E-03 0. -1.
        -11    1    3    3    0    0  0.19939784053E+02 -0.14387110271E+02  0.25917066505E+02  0.35725036970E+02  0.51100000000E-03 0.  1.
         12    1    3    3    0    0 -0.25162152723E+02  0.15085490942E+02 -0.33329696935E+02  0.44402417326E+02  0.00000000000E+00 0. -1.
</event>
<event>
 7    1  0.2084210E-015  0.9000767E+02  0.7816164E-02  0.1186339E+00
        -11   -1    0    0    0    0  0.00000000000E+00  0.00000000000E+00  0.45593999997E+02  0.45594000000E+02  0.51100000000E-03 0.  1.
         11   -1    0    0    0    0 -0.00000000000E+00 -0.00000000000E+00 -0.45593999997E+02  0.45594000000E+02  0.51100000000E-03 0. -1.
    9900012    2    1    2    0    0 -0.66391218813E+00 -0.21327778078E-01  0.97567569290E+00  0.90007670671E+02  0.89999931124E+02 0.  0.
         12    1    1    2    0    0  0.66391218813E+00  0.21327778078E-01 -0.97567569290E+00  0.11803293292E+01  0.00000000000E+00 0. -1.
         11    1    3    3    0    0 -0.71029439302E+00 -0.51089173193E+01 -0.80708572950E+01  0.95783240725E+01  0.51100000000E-03 0. -1.
        -11    1    3    3    0    0 -0.75892191622E+01  0.32305670611E+02 -0.20923516813E+02  0.39230678775E+02  0.51100000000E-03 0.  1.
         12    1    3    3    0    0  0.76356013671E+01 -0.27218081070E+02  0.29970049800E+02  0.41198667823E+02  0.00000000000E+00 0. -1.
</event>
<event>
 7    1  0.2084210E-015  0.9000756E+02  0.7816164E-02  0.1186339E+00
        -11   -1    0    0    0    0  0.00000000000E+00  0.00000000000E+00  0.45593999997E+02  0.45594000000E+02  0.51100000000E-03 0.  1.
         11   -1    0    0    0    0 -0.00000000000E+00 -0.00000000000E+00 -0.45593999997E+02  0.45594000000E+02  0.51100000000E-03 0. -1.
    9900012    2    1    2    0    0 -0.10735439091E+01  0.30352354826E+00  0.38575991032E+00  0.90007562040E+02  0.89999821059E+02 0.  0.
         12    1    1    2    0    0  0.10735439091E+01 -0.30352354826E+00 -0.38575991032E+00  0.11804379601E+01  0.00000000000E+00 0. -1.
         11    1    3    3    0    0 -0.17636353189E+02  0.12834781450E+02 -0.33128597970E+02  0.39664550576E+02  0.51100000000E-03 0. -1.
        -11    1    3    3    0    0  0.39332678787E+01  0.72947987019E+01 -0.12456331421E+01  0.83807091879E+01  0.51100000000E-03 0.  1.
        -12    1    3    3    0    0  0.12629541401E+02 -0.19826056604E+02  0.34759991022E+02  0.41962302276E+02  0.00000000000E+00 0.  1.
</event>
<event>
 7    1  0.2084210E-015  0.9000777E+02  0.7816164E-02  0.1186339E+00
        -11   -1    0    0    0    0  0.00000000000E+00  0.00000000000E+00  0.45593999997E+02  0.45594000000E+02  0.51100000000E-03 0.  1.
         11   -1    0    0    0    0 -0.00000000000E+00 -0.00000000000E+00 -0.45593999997E+02  0.45594000000E+02  0.51100000000E-03 0. -1.
    9900012    2    1    2    0    0  0.68742811745E+00  0.56034128096E+00  0.77871431439E+00  0.90007773009E+02  0.90000034812E+02 0.  0.
         12    1    1    2    0    0 -0.68742811745E+00 -0.56034128096E+00 -0.77871431439E+00  0.11802269914E+01  0.00000000000E+00 0. -1.
         11    1    3    3    0    0  0.26608451032E+02 -0.21788057688E+02 -0.23822584220E+02  0.41835925272E+02  0.51100000000E-03 0. -1.
        -11    1    3    3    0    0  0.10364212660E+01  0.12745984481E+02  0.81266622561E+01  0.15151796234E+02  0.51100000000E-03 0.  1.
        -12    1    3    3    0    0 -0.26957444181E+02  0.96024144882E+01  0.16474636278E+02  0.33020051503E+02  0.00000000000E+00 0.  1.
</event>
<event>
 7    1  0.2084210E-015  0.9000798E+02  0.7816164E-02  0.1186339E+00
        -11   -1    0    0    0    0  0.00000000000E+00  0.00000000000E+00  0.45593999997E+02  0.45594000000E+02  0.51100000000E-03 0.  1.
         11   -1    0    0    0    0 -0.00000000000E+00 -0.00000000000E+00 -0.45593999997E+02  0.45594000000E+02  0.51100000000E-03 0. -1.
    9900012    2    1    2    0    0  0.12416901603E+00 -0.10214120441E+01  0.57771234438E+00  0.90007977940E+02  0.90000242449E+02 0.  0.
         12    1    1    2    0    0 -0.12416901603E+00  0.10214120441E+01 -0.57771234438E+00  0.11800220597E+01  0.00000000000E+00 0. -1.
         11    1    3    3    0    0  0.93855340991E+00 -0.72399882063E+01  0.41095618427E+01  0.83777568913E+01  0.51100000000E-03 0. -1.
        -11    1    3    3    0    0  0.11645710124E+02  0.50875401879E+01  0.37047140542E+02  0.39166264209E+02  0.51100000000E-03 0.  1.
         12    1    3    3    0    0 -0.12460094518E+02  0.11310359742E+01 -0.40578990041E+02  0.42463956840E+02  0.00000000000E+00 0. -1.
</event>
<event>
 7    1  0.2084210E-015  0.9000774E+02  0.7816164E-02  0.1186339E+00
        -11   -1    0    0    0    0  0.00000000000E+00  0.00000000000E+00  0.45593999997E+02  0.45594000000E+02  0.51100000000E-03 0.  1.
         11   -1    0    0    0    0 -0.00000000000E+00 -0.00000000000E+00 -0.45593999997E+02  0.45594000000E+02  0.51100000000E-03 0. -1.
    9900012    2    1    2    0    0 -0.10376359530E+01 -0.80068310788E-01  0.55669575779E+00  0.90007741777E+02  0.90000003169E+02 0.  0.
         12    1    1    2    0    0  0.10376359530E+01  0.80068310788E-01 -0.55669575779E+00  0.11802582226E+01  0.00000000000E+00 0. -1.
         11    1    3    3    0    0  0.23643187790E+02  0.13358504718E+01 -0.25063964378E+02  0.34481692766E+02  0.51100000000E-03 0. -1.
        -11    1    3    3    0    0  0.86739411180E+01  0.27483640938E+01 -0.47146651207E+01  0.10247869397E+02  0.51100000000E-03 0.  1.
        -12    1    3    3    0    0 -0.33354764861E+02 -0.41642828764E+01  0.30335325257E+02  0.45278179615E+02  0.00000000000E+00 0.  1.
</event>
<event>
 7    1  0.2084210E-015  0.9000775E+02  0.7816164E-02  0.1186339E+00
        -11   -1    0    0    0    0  0.00000000000E+00  0.00000000000E+00  0.45593999997E+02  0.45594000000E+02  0.51100000000E-03 0.  1.
         11   -1    0    0    0    0 -0.00000000000E+00 -0.00000000000E+00 -0.45593999997E+02  0.45594000000E+02  0.51100000000E-03 0. -1.
    9900012    2    1    2    0    0  0.59624439593E+00 -0.10047119795E+01  0.16741663992E+00  0.90007753469E+02  0.90000015015E+02 0.  0.
         12    1    1    2    0    0 -0.59624439593E+00  0.10047119795E+01 -0.16741663992E+00  0.11802465305E+01  0.00000000000E+00 0. -1.
         11    1    3    3    0    0  0.18530564748E+01  0.74424712654E+01 -0.65753785148E+01  0.10102465031E+02  0.51100000000E-03 0. -1.
        -11    1    3    3    0    0  0.17354387446E+02  0.31260132013E+02  0.37579615318E+01  0.35951257172E+02  0.51100000000E-03 0.  1.
         12    1    3    3    0    0 -0.18611199525E+02 -0.39707315258E+02  0.29848336230E+01  0.43954031266E+02  0.00000000000E+00 0. -1.
</event>
<event>
 7    1  0.2084210E-015  0.9000774E+02  0.7816164E-02  0.1186339E+00
        -11   -1    0    0    0    0  0.00000000000E+00  0.00000000000E+00  0.45593999997E+02  0.45594000000E+02  0.51100000000E-03 0.  1.
         11   -1    0    0    0    0 -0.00000000000E+00 -0.00000000000E+00 -0.45593999997E+02  0.45594000000E+02  0.51100000000E-03 0. -1.
    9900012    2    1    2    0    0  0.11724903111E+01 -0.23971653498E-01  0.13304867936E+00  0.90007741503E+02  0.90000002890E+02 0.  0.
         12    1    1    2    0    0 -0.11724903111E+01  0.23971653498E-01 -0.13304867936E+00  0.11802584975E+01  0.00000000000E+00 0. -1.
         11    1    3    3    0    0  0.42973697221E+01  0.14755138464E+01 -0.10745202451E+02  0.11666357770E+02  0.51100000000E-03 0. -1.
        -11    1    3    3    0    0 -0.96931557533E+01 -0.37176921725E+02  0.16163461198E+02  0.41681389799E+02  0.51100000000E-03 0.  1.
         12    1    3    3    0    0  0.65682763423E+01  0.35677436226E+02 -0.52852100679E+01  0.36659993933E+02  0.00000000000E+00 0. -1.
</event>
<event>
 7    1  0.2101494E-015  0.9000775E+02  0.7816164E-02  0.1186339E+00
        -11   -1    0    0    0    0  0.00000000000E+00  0.00000000000E+00  0.45593999997E+02  0.45594000000E+02  0.51100000000E-03 0.  1.
         11   -1    0    0    0    0 -0.00000000000E+00 -0.00000000000E+00 -0.45593999997E+02  0.45594000000E+02  0.51100000000E-03 0. -1.
    9900012    2    1    2    0    0  0.10732115482E+01  0.47889139662E+00  0.10893757739E+00  0.90007751131E+02  0.90000012646E+02 0.  0.
         12    1    1    2    0    0 -0.10732115482E+01 -0.47889139662E+00 -0.10893757739E+00  0.11802488690E+01  0.00000000000E+00 0. -1.
         11    1    3    3    0    0  0.30162114940E+02  0.51160712957E+01 -0.20288609020E+02  0.36709059091E+02  0.51100000000E-03 0. -1.
        -11    1    3    3    0    0  0.90214966479E+01 -0.20331329451E+01 -0.13450036979E+01  0.93450557274E+01  0.51100000000E-03 0.  1.
        -12    1    3    3    0    0 -0.38110400039E+02 -0.26040469540E+01  0.21742550296E+02  0.43953636312E+02  0.00000000000E+00 0.  1.
</event>
<event>
 7    1  0.2084210E-015  0.9000775E+02  0.7816164E-02  0.1186339E+00
        -11   -1    0    0    0    0  0.00000000000E+00  0.00000000000E+00  0.45593999997E+02  0.45594000000E+02  0.51100000000E-03 0.  1.
         11   -1    0    0    0    0 -0.00000000000E+00 -0.00000000000E+00 -0.45593999997E+02  0.45594000000E+02  0.51100000000E-03 0. -1.
    9900012    2    1    2    0    0  0.92035446849E+00 -0.52867194659E+00  0.51617890682E+00  0.90007751281E+02  0.90000012798E+02 0.  0.
         12    1    1    2    0    0 -0.92035446849E+00  0.52867194659E+00 -0.51617890682E+00  0.11802487190E+01  0.00000000000E+00 0. -1.
         11    1    3    3    0    0  0.34212188321E+02 -0.20447190847E+01  0.10774862780E+02  0.35927042378E+02  0.51100000000E-03 0. -1.
        -11    1    3    3    0    0  0.54565557381E+01 -0.10863679044E+02 -0.11709855976E+00  0.12157599896E+02  0.51100000000E-03 0.  1.
        -12    1    3    3    0    0 -0.38748389590E+02  0.12379726182E+02 -0.10141585313E+02  0.41923109008E+02  0.00000000000E+00 0.  1.
</event>
<event>
 7    1  0.3761125E-015  0.9000777E+02  0.7816164E-02  0.1186339E+00
        -11   -1    0    0    0    0  0.00000000000E+00  0.00000000000E+00  0.45593999997E+02  0.45594000000E+02  0.51100000000E-03 0. -1.
         11   -1    0    0    0    0 -0.00000000000E+00 -0.00000000000E+00 -0.45593999997E+02  0.45594000000E+02  0.51100000000E-03 0.  1.
    9900012    2    1    2    0    0 -0.16956721767E+00  0.80882908344E+00 -0.84260205121E+00  0.90007773012E+02  0.90000034815E+02 0.  0.
         12    1    1    2    0    0  0.16956721767E+00 -0.80882908344E+00  0.84260205121E+00  0.11802269884E+01  0.00000000000E+00 0. -1.
         11    1    3    3    0    0 -0.24353007141E+02 -0.70074212289E+01  0.24776489096E+02  0.35440757911E+02  0.51100000000E-03 0. -1.
        -11    1    3    3    0    0 -0.77821786505E+01 -0.18120661985E+01  0.48682450116E+01  0.93565858202E+01  0.51100000000E-03 0.  1.
        -12    1    3    3    0    0  0.31965618574E+02  0.96283165109E+01 -0.30487336159E+02  0.45210429281E+02  0.00000000000E+00 0.  1.
</event>
<event>
 7    1  0.2084210E-015  0.9000777E+02  0.7816164E-02  0.1186339E+00
        -11   -1    0    0    0    0  0.00000000000E+00  0.00000000000E+00  0.45593999997E+02  0.45594000000E+02  0.51100000000E-03 0. -1.
         11   -1    0    0    0    0 -0.00000000000E+00 -0.00000000000E+00 -0.45593999997E+02  0.45594000000E+02  0.51100000000E-03 0.  1.
    9900012    2    1    2    0    0 -0.63155141997E+00  0.99342674588E+00  0.84829391272E-01  0.90007767006E+02  0.90000028730E+02 0.  0.
         12    1    1    2    0    0  0.63155141997E+00 -0.99342674588E+00 -0.84829391272E-01  0.11802329944E+01  0.00000000000E+00 0. -1.
         11    1    3    3    0    0 -0.85554560604E+01  0.55971676356E+01 -0.10210879370E+00  0.10224213437E+02  0.51100000000E-03 0. -1.
        -11    1    3    3    0    0 -0.69313133407E+01 -0.38034014532E+02 -0.13165508126E+02  0.40840665648E+02  0.51100000000E-03 0.  1.
         12    1    3    3    0    0  0.14855217981E+02  0.33430273643E+02  0.13352446311E+02  0.38942887920E+02  0.00000000000E+00 0. -1.
</event>
<event>
 7    1  0.2084210E-015  0.9000773E+02  0.7816164E-02  0.1186339E+00
        -11   -1    0    0    0    0  0.00000000000E+00  0.00000000000E+00  0.45593999997E+02  0.45594000000E+02  0.51100000000E-03 0.  1.
         11   -1    0    0    0    0 -0.00000000000E+00 -0.00000000000E+00 -0.45593999997E+02  0.45594000000E+02  0.51100000000E-03 0. -1.
    9900012    2    1    2    0    0  0.53963459744E+00  0.16850197489E+00  0.10360715244E+01  0.90007727736E+02  0.89999988942E+02 0.  0.
         12    1    1    2    0    0 -0.53963459744E+00 -0.16850197489E+00 -0.10360715244E+01  0.11802722643E+01  0.00000000000E+00 0. -1.
         11    1    3    3    0    0 -0.17852136216E+02  0.12690358090E+02 -0.36729285575E+02  0.42764288549E+02  0.51100000000E-03 0. -1.
        -11    1    3    3    0    0  0.34878083890E+01  0.45413224963E+01  0.73281269792E+01  0.92999926161E+01  0.51100000000E-03 0.  1.
        -12    1    3    3    0    0  0.14903962425E+02 -0.17063178611E+02  0.30437230121E+02  0.37943446571E+02  0.00000000000E+00 0.  1.
</event>
<event>
 7    1  0.2084210E-015  0.9000773E+02  0.7816164E-02  0.1186339E+00
        -11   -1    0    0    0    0  0.00000000000E+00  0.00000000000E+00  0.45593999997E+02  0.45594000000E+02  0.51100000000E-03 0.  1.
         11   -1    0    0    0    0 -0.00000000000E+00 -0.00000000000E+00 -0.45593999997E+02  0.45594000000E+02  0.51100000000E-03 0. -1.
    9900012    2    1    2    0    0  0.29184540914E+00  0.62502143349E+00  0.95771450767E+00  0.90007727738E+02  0.89999988944E+02 0.  0.
         12    1    1    2    0    0 -0.29184540914E+00 -0.62502143349E+00 -0.95771450767E+00  0.11802722624E+01  0.00000000000E+00 0. -1.
         11    1    3    3    0    0  0.81562786387E+01  0.15140682502E+02 -0.28719166449E+01  0.17435970100E+02  0.51100000000E-03 0. -1.
        -11    1    3    3    0    0 -0.24819728310E+02  0.25649428449E+01 -0.24793206442E+02  0.35175288643E+02  0.51100000000E-03 0.  1.
         12    1    3    3    0    0  0.16955295080E+02 -0.17080603913E+02  0.28622837594E+02  0.37396468995E+02  0.00000000000E+00 0. -1.
</event>
<event>
 7    1  0.2084210E-015  0.9000840E+02  0.7816164E-02  0.1186338E+00
        -11   -1    0    0    0    0  0.00000000000E+00  0.00000000000E+00  0.45593999997E+02  0.45594000000E+02  0.51100000000E-03 0.  1.
         11   -1    0    0    0    0 -0.00000000000E+00 -0.00000000000E+00 -0.45593999997E+02  0.45594000000E+02  0.51100000000E-03 0. -1.
    9900012    2    1    2    0    0  0.12092499522E+00  0.63667872410E+00  0.98563727956E+00  0.90008396889E+02  0.90000666926E+02 0.  0.
         12    1    1    2    0    0 -0.12092499522E+00 -0.63667872410E+00 -0.98563727956E+00  0.11796031108E+01  0.00000000000E+00 0. -1.
         11    1    3    3    0    0 -0.63491157560E+01 -0.13032438244E+01  0.75867031947E+01  0.99783656465E+01  0.51100000000E-03 0. -1.
        -11    1    3    3    0    0  0.84961391274E+00 -0.12284590048E+02  0.34257087769E+02  0.36403036400E+02  0.51100000000E-03 0.  1.
         12    1    3    3    0    0  0.56204268385E+01  0.14224512597E+02 -0.40858153685E+02  0.43626994842E+02  0.00000000000E+00 0. -1.
</event>
<event>
 7    1  0.2084210E-015  0.9000776E+02  0.7816164E-02  0.1186339E+00
        -11   -1    0    0    0    0  0.00000000000E+00  0.00000000000E+00  0.45593999997E+02  0.45594000000E+02  0.51100000000E-03 0. -1.
         11   -1    0    0    0    0 -0.00000000000E+00 -0.00000000000E+00 -0.45593999997E+02  0.45594000000E+02  0.51100000000E-03 0.  1.
    9900012    2    1    2    0    0 -0.68023084082E+00  0.61416454557E+00 -0.74367230870E+00  0.90007762486E+02  0.90000024151E+02 0.  0.
         12    1    1    2    0    0  0.68023084082E+00 -0.61416454557E+00  0.74367230870E+00  0.11802375136E+01  0.00000000000E+00 0. -1.
         11    1    3    3    0    0  0.66336072805E+01 -0.19887384462E+01 -0.57165926465E+01  0.89799364088E+01  0.51100000000E-03 0. -1.
        -11    1    3    3    0    0 -0.32317375260E+01 -0.11748831678E+01 -0.37769164710E+02  0.37925377797E+02  0.51100000000E-03 0.  1.
         12    1    3    3    0    0 -0.40821005953E+01  0.37777861596E+01  0.42742085048E+02  0.43102448281E+02  0.00000000000E+00 0. -1.
</event>
<event>
 7    1  0.2084210E-015  0.9000773E+02  0.7816164E-02  0.1186339E+00
        -11   -1    0    0    0    0  0.00000000000E+00  0.00000000000E+00  0.45593999997E+02  0.45594000000E+02  0.51100000000E-03 0.  1.
         11   -1    0    0    0    0 -0.00000000000E+00 -0.00000000000E+00 -0.45593999997E+02  0.45594000000E+02  0.51100000000E-03 0. -1.
    9900012    2    1    2    0    0  0.41162376762E-01 -0.11645822605E+01 -0.18735425327E+00  0.90007725541E+02  0.89999986718E+02 0.  0.
         12    1    1    2    0    0 -0.41162376762E-01  0.11645822605E+01  0.18735425327E+00  0.11802744591E+01  0.00000000000E+00 0. -1.
         11    1    3    3    0    0  0.80518462905E+01 -0.28369840441E+01  0.52806224653E+01  0.10038211048E+02  0.51100000000E-03 0. -1.
        -11    1    3    3    0    0 -0.18591407407E+01  0.18201440827E+01  0.36983243742E+02  0.37074649651E+02  0.51100000000E-03 0.  1.
         12    1    3    3    0    0 -0.61515431731E+01 -0.14774229904E+00 -0.42451220461E+02  0.42894864842E+02  0.00000000000E+00 0. -1.
</event>
<event>
 7    1  0.2084210E-015  0.9000770E+02  0.7816164E-02  0.1186339E+00
        -11   -1    0    0    0    0  0.00000000000E+00  0.00000000000E+00  0.45593999997E+02  0.45594000000E+02  0.51100000000E-03 0.  1.
         11   -1    0    0    0    0 -0.00000000000E+00 -0.00000000000E+00 -0.45593999997E+02  0.45594000000E+02  0.51100000000E-03 0. -1.
    9900012    2    1    2    0    0 -0.16747464371E-01  0.80799887838E+00  0.86021043236E+00  0.90007701456E+02  0.89999962315E+02 0.  0.
         12    1    1    2    0    0  0.16747464371E-01 -0.80799887838E+00 -0.86021043236E+00  0.11802985440E+01  0.00000000000E+00 0. -1.
         11    1    3    3    0    0 -0.63683492407E+01 -0.49295014246E+01 -0.14356353469E+01  0.81802753901E+01  0.51100000000E-03 0. -1.
        -11    1    3    3    0    0 -0.65222256996E+01 -0.20413428972E+02  0.33091690724E+02  0.39424706793E+02  0.51100000000E-03 0.  1.
         12    1    3    3    0    0  0.12873827476E+02  0.26150929275E+02 -0.30795844945E+02  0.42402719273E+02  0.00000000000E+00 0. -1.
</event>
<event>
 7    1  0.2084210E-015  0.9000789E+02  0.7816164E-02  0.1186339E+00
        -11   -1    0    0    0    0  0.00000000000E+00  0.00000000000E+00  0.45593999997E+02  0.45594000000E+02  0.51100000000E-03 0.  1.
         11   -1    0    0    0    0 -0.00000000000E+00 -0.00000000000E+00 -0.45593999997E+02  0.45594000000E+02  0.51100000000E-03 0. -1.
    9900012    2    1    2    0    0  0.10060263971E+01  0.15344235142E+00  0.59751033066E+00  0.90007893114E+02  0.90000156503E+02 0.  0.
         12    1    1    2    0    0 -0.10060263971E+01 -0.15344235142E+00 -0.59751033066E+00  0.11801068859E+01  0.00000000000E+00 0. -1.
         11    1    3    3    0    0  0.51521400837E+01  0.39640204817E+02  0.15012539612E+02  0.42699727532E+02  0.51100000000E-03 0. -1.
        -11    1    3    3    0    0 -0.22040152477E+01 -0.12916976802E+01 -0.81663981995E+01  0.85566480542E+01  0.51100000000E-03 0.  1.
        -12    1    3    3    0    0 -0.19420984388E+01 -0.38195064786E+02 -0.62486310820E+01  0.38751517528E+02  0.00000000000E+00 0.  1.
</event>
<event>
 7    1  0.2084210E-015  0.9000784E+02  0.7816164E-02  0.1186339E+00
        -11   -1    0    0    0    0  0.00000000000E+00  0.00000000000E+00  0.45593999997E+02  0.45594000000E+02  0.51100000000E-03 0.  1.
         11   -1    0    0    0    0 -0.00000000000E+00 -0.00000000000E+00 -0.45593999997E+02  0.45594000000E+02  0.51100000000E-03 0. -1.
    9900012    2    1    2    0    0  0.10818829078E+01 -0.42966537112E+00  0.19417025817E+00  0.90007836856E+02  0.90000099502E+02 0.  0.
         12    1    1    2    0    0 -0.10818829078E+01  0.42966537112E+00 -0.19417025817E+00  0.11801631440E+01  0.00000000000E+00 0. -1.
         11    1    3    3    0    0 -0.12079020314E+02  0.21452233950E+00  0.33472172836E+01  0.12536052624E+02  0.51100000000E-03 0. -1.
        -11    1    3    3    0    0  0.18261913963E+02  0.25590777994E+02  0.23863258267E+02  0.39469488410E+02  0.51100000000E-03 0.  1.
         12    1    3    3    0    0 -0.51010107408E+01 -0.26234965705E+02 -0.27016305292E+02  0.38002295822E+02  0.00000000000E+00 0. -1.
</event>
<event>
 7    1  0.2084210E-015  0.9000774E+02  0.7816164E-02  0.1186339E+00
        -11   -1    0    0    0    0  0.00000000000E+00  0.00000000000E+00  0.45593999997E+02  0.45594000000E+02  0.51100000000E-03 0.  1.
         11   -1    0    0    0    0 -0.00000000000E+00 -0.00000000000E+00 -0.45593999997E+02  0.45594000000E+02  0.51100000000E-03 0. -1.
    9900012    2    1    2    0    0 -0.83045004528E-02  0.84276745732E+00  0.82624407389E+00  0.90007743578E+02  0.90000004993E+02 0.  0.
         12    1    1    2    0    0  0.83045004528E-02 -0.84276745732E+00 -0.82624407389E+00  0.11802564219E+01  0.00000000000E+00 0. -1.
         11    1    3    3    0    0 -0.87363799482E+01 -0.37534946119E+02 -0.12517494632E+02  0.40520170124E+02  0.51100000000E-03 0. -1.
        -11    1    3    3    0    0  0.90670037250E+01 -0.19444377298E+00  0.21078480182E+01  0.93108210411E+01  0.51100000000E-03 0.  1.
        -12    1    3    3    0    0 -0.33892827725E+00  0.38572157349E+02  0.11235890688E+02  0.40176752413E+02  0.00000000000E+00 0.  1.
</event>
<event>
 7    1  0.2084210E-015  0.9000775E+02  0.7816164E-02  0.1186339E+00
        -11   -1    0    0    0    0  0.00000000000E+00  0.00000000000E+00  0.45593999997E+02  0.45594000000E+02  0.51100000000E-03 0.  1.
         11   -1    0    0    0    0 -0.00000000000E+00 -0.00000000000E+00 -0.45593999997E+02  0.45594000000E+02  0.51100000000E-03 0. -1.
    9900012    2    1    2    0    0  0.82793841238E+00  0.14091794193E+00  0.82925153071E+00  0.90007746645E+02  0.90000008101E+02 0.  0.
         12    1    1    2    0    0 -0.82793841238E+00 -0.14091794193E+00 -0.82925153071E+00  0.11802533551E+01  0.00000000000E+00 0. -1.
         11    1    3    3    0    0  0.24147414591E+02  0.20561525767E+01 -0.32230805146E+02  0.40325552637E+02  0.51100000000E-03 0. -1.
        -11    1    3    3    0    0 -0.10438391141E+02  0.86365788479E+01  0.10357620564E+01  0.13587615947E+02  0.51100000000E-03 0.  1.
        -12    1    3    3    0    0 -0.12881085038E+02 -0.10551813483E+02  0.32024294620E+02  0.36094578061E+02  0.00000000000E+00 0.  1.
</event>
<event>
 7    1  0.2084210E-015  0.9000780E+02  0.7816164E-02  0.1186339E+00
        -11   -1    0    0    0    0  0.00000000000E+00  0.00000000000E+00  0.45593999997E+02  0.45594000000E+02  0.51100000000E-03 0. -1.
         11   -1    0    0    0    0 -0.00000000000E+00 -0.00000000000E+00 -0.45593999997E+02  0.45594000000E+02  0.51100000000E-03 0.  1.
    9900012    2    1    2    0    0 -0.71117372180E+00 -0.94102698205E+00 -0.39598740064E-01  0.90007801752E+02  0.90000063935E+02 0.  0.
         12    1    1    2    0    0  0.71117372180E+00  0.94102698205E+00  0.39598740064E-01  0.11801982476E+01  0.00000000000E+00 0. -1.
         11    1    3    3    0    0  0.20282385491E+01  0.74440922344E+01  0.46867298040E+01  0.90273859629E+01  0.51100000000E-03 0. -1.
        -11    1    3    3    0    0  0.35547342515E+02  0.10777168427E+02 -0.81522930334E+01  0.38029209841E+02  0.51100000000E-03 0.  1.
         12    1    3    3    0    0 -0.38286754786E+02 -0.19162287643E+02  0.34259644894E+01  0.42951205948E+02  0.00000000000E+00 0. -1.
</event>
<event>
 7    1  0.2084210E-015  0.9000772E+02  0.7816164E-02  0.1186339E+00
        -11   -1    0    0    0    0  0.00000000000E+00  0.00000000000E+00  0.45593999997E+02  0.45594000000E+02  0.51100000000E-03 0.  1.
         11   -1    0    0    0    0 -0.00000000000E+00 -0.00000000000E+00 -0.45593999997E+02  0.45594000000E+02  0.51100000000E-03 0. -1.
    9900012    2    1    2    0    0 -0.86750354476E+00  0.30292787143E+00  0.74076870873E+00  0.90007717841E+02  0.89999978916E+02 0.  0.
         12    1    1    2    0    0  0.86750354476E+00 -0.30292787143E+00 -0.74076870873E+00  0.11802821592E+01  0.00000000000E+00 0. -1.
         11    1    3    3    0    0 -0.84125356481E+01 -0.44622473223E+01 -0.46722485188E+01  0.10607182174E+02  0.51100000000E-03 0. -1.
        -11    1    3    3    0    0 -0.21308113713E+02 -0.50866705433E+01  0.32112856391E+02  0.38873454606E+02  0.51100000000E-03 0.  1.
         12    1    3    3    0    0  0.28853145816E+02  0.98518457370E+01 -0.26699839163E+02  0.40527081060E+02  0.00000000000E+00 0. -1.
</event>
<event>
 7    1  0.2084210E-015  0.9000775E+02  0.7816164E-02  0.1186339E+00
        -11   -1    0    0    0    0  0.00000000000E+00  0.00000000000E+00  0.45593999997E+02  0.45594000000E+02  0.51100000000E-03 0.  1.
         11   -1    0    0    0    0 -0.00000000000E+00 -0.00000000000E+00 -0.45593999997E+02  0.45594000000E+02  0.51100000000E-03 0. -1.
    9900012    2    1    2    0    0  0.69977781460E+00 -0.67057197736E+00  0.67352375449E+00  0.90007750020E+02  0.90000011521E+02 0.  0.
         12    1    1    2    0    0 -0.69977781460E+00  0.67057197736E+00 -0.67352375449E+00  0.11802499797E+01  0.00000000000E+00 0. -1.
         11    1    3    3    0    0 -0.11316275790E+02 -0.30897766801E+01  0.52149219583E+00  0.11742094023E+02  0.51100000000E-03 0. -1.
        -11    1    3    3    0    0 -0.66424912786E+01  0.36451302245E+02  0.96934903750E+01  0.38298614618E+02  0.51100000000E-03 0.  1.
         12    1    3    3    0    0  0.18658544883E+02 -0.34032097542E+02 -0.95414588164E+01  0.39967041379E+02  0.00000000000E+00 0. -1.
</event>
<event>
 7    1  0.2084210E-015  0.9000774E+02  0.7816164E-02  0.1186339E+00
        -11   -1    0    0    0    0  0.00000000000E+00  0.00000000000E+00  0.45593999997E+02  0.45594000000E+02  0.51100000000E-03 0. -1.
         11   -1    0    0    0    0 -0.00000000000E+00 -0.00000000000E+00 -0.45593999997E+02  0.45594000000E+02  0.51100000000E-03 0.  1.
    9900012    2    1    2    0    0 -0.46238726494E-01 -0.30124208632E+00 -0.11402311740E+01  0.90007740730E+02  0.90000002108E+02 0.  0.
         12    1    1    2    0    0  0.46238726494E-01  0.30124208632E+00  0.11402311740E+01  0.11802592701E+01  0.00000000000E+00 0. -1.
         11    1    3    3    0    0  0.21651465371E+02 -0.15447219930E+02  0.21765899771E+02  0.34367963998E+02  0.51100000000E-03 0. -1.
        -11    1    3    3    0    0  0.12671565111E+02  0.90318473076E+01 -0.95821410612E+01  0.18274579495E+02  0.51100000000E-03 0.  1.
        -12    1    3    3    0    0 -0.34369269208E+02  0.61141305359E+01 -0.13323989884E+02  0.37365197237E+02  0.00000000000E+00 0.  1.
</event>
<event>
 7    1  0.2084210E-015  0.9000777E+02  0.7816164E-02  0.1186339E+00
        -11   -1    0    0    0    0  0.00000000000E+00  0.00000000000E+00  0.45593999997E+02  0.45594000000E+02  0.51100000000E-03 0.  1.
         11   -1    0    0    0    0 -0.00000000000E+00 -0.00000000000E+00 -0.45593999997E+02  0.45594000000E+02  0.51100000000E-03 0. -1.
    9900012    2    1    2    0    0  0.36086086184E+00  0.54545465601E+00  0.98245026070E+00  0.90007767032E+02  0.90000028757E+02 0.  0.
         12    1    1    2    0    0 -0.36086086184E+00 -0.54545465601E+00 -0.98245026070E+00  0.11802329677E+01  0.00000000000E+00 0. -1.
         11    1    3    3    0    0  0.17839171311E+01  0.93907945754E+01 -0.14365957891E+01  0.96660845646E+01  0.51100000000E-03 0. -1.
        -11    1    3    3    0    0  0.84015250466E+01  0.19532272889E+02  0.31849373537E+02  0.38294619756E+02  0.51100000000E-03 0.  1.
         12    1    3    3    0    0 -0.98245813158E+01 -0.28377612808E+02 -0.29430327487E+02  0.42047062712E+02  0.00000000000E+00 0. -1.
</event>
<event>
 7    1  0.2084210E-015  0.9000775E+02  0.7816164E-02  0.1186339E+00
        -11   -1    0    0    0    0  0.00000000000E+00  0.00000000000E+00  0.45593999997E+02  0.45594000000E+02  0.51100000000E-03 0.  1.
         11   -1    0    0    0    0 -0.00000000000E+00 -0.00000000000E+00 -0.45593999997E+02  0.45594000000E+02  0.51100000000E-03 0. -1.
    9900012    2    1    2    0    0 -0.69106394923E+00 -0.79467874334E-01  0.95347151692E+00  0.90007748985E+02  0.90000010472E+02 0.  0.
         12    1    1    2    0    0  0.69106394923E+00  0.79467874334E-01 -0.95347151692E+00  0.11802510151E+01  0.00000000000E+00 0. -1.
         11    1    3    3    0    0 -0.12964612997E+01  0.71794075220E+01  0.62735934223E+01  0.96219893451E+01  0.51100000000E-03 0. -1.
        -11    1    3    3    0    0 -0.11149576632E+02  0.20640743621E+02  0.27223736988E+02  0.35937239908E+02  0.51100000000E-03 0.  1.
         12    1    3    3    0    0  0.11754973983E+02 -0.27899619018E+02 -0.32543858894E+02  0.44448519732E+02  0.00000000000E+00 0. -1.
</event>
<event>
 7    1  0.2084210E-015  0.9000773E+02  0.7816164E-02  0.1186339E+00
        -11   -1    0    0    0    0  0.00000000000E+00  0.00000000000E+00  0.45593999997E+02  0.45594000000E+02  0.51100000000E-03 0.  1.
         11   -1    0    0    0    0 -0.00000000000E+00 -0.00000000000E+00 -0.45593999997E+02  0.45594000000E+02  0.51100000000E-03 0. -1.
    9900012    2    1    2    0    0  0.10617251829E+01 -0.42665377888E+00  0.28940302755E+00  0.90007725488E+02  0.89999986665E+02 0.  0.
         12    1    1    2    0    0 -0.10617251829E+01  0.42665377888E+00 -0.28940302755E+00  0.11802745119E+01  0.00000000000E+00 0. -1.
         11    1    3    3    0    0  0.64703141194E+01  0.69237797822E+01  0.25607799505E+01  0.98163784305E+01  0.51100000000E-03 0. -1.
        -11    1    3    3    0    0  0.23607236332E+02 -0.20880461478E+02  0.23318926908E+02  0.39205454099E+02  0.51100000000E-03 0.  1.
         12    1    3    3    0    0 -0.29015825268E+02  0.13530027917E+02 -0.25590303831E+02  0.40985892958E+02  0.00000000000E+00 0. -1.
</event>
<event>
 7    1  0.2084210E-015  0.9000787E+02  0.7816164E-02  0.1186339E+00
        -11   -1    0    0    0    0  0.00000000000E+00  0.00000000000E+00  0.45593999997E+02  0.45594000000E+02  0.51100000000E-03 0. -1.
         11   -1    0    0    0    0 -0.00000000000E+00 -0.00000000000E+00 -0.45593999997E+02  0.45594000000E+02  0.51100000000E-03 0.  1.
    9900012    2    1    2    0    0  0.15028457319E+00 -0.11346994431E+01 -0.28738486336E+00  0.90007865118E+02  0.90000128138E+02 0.  0.
         12    1    1    2    0    0 -0.15028457319E+00  0.11346994431E+01  0.28738486336E+00  0.11801348816E+01  0.00000000000E+00 0. -1.
         11    1    3    3    0    0  0.13110858700E+02 -0.21295659613E+02  0.21299846384E+02  0.32849401675E+02  0.51100000000E-03 0. -1.
        -11    1    3    3    0    0 -0.17242620976E+02 -0.11584096116E+02 -0.66220433025E+01  0.21802539272E+02  0.51100000000E-03 0.  1.
        -12    1    3    3    0    0  0.42820468490E+01  0.31745056286E+02 -0.14965187944E+02  0.35355924171E+02  0.00000000000E+00 0.  1.
</event>
<event>
 7    1  0.2084210E-015  0.9000776E+02  0.7816164E-02  0.1186339E+00
        -11   -1    0    0    0    0  0.00000000000E+00  0.00000000000E+00  0.45593999997E+02  0.45594000000E+02  0.51100000000E-03 0. -1.
         11   -1    0    0    0    0 -0.00000000000E+00 -0.00000000000E+00 -0.45593999997E+02  0.45594000000E+02  0.51100000000E-03 0.  1.
    9900012    2    1    2    0    0 -0.88355503289E+00  0.11758367916E+00 -0.77360373700E+00  0.90007763515E+02  0.90000025194E+02 0.  0.
         12    1    1    2    0    0  0.88355503289E+00 -0.11758367916E+00  0.77360373700E+00  0.11802364846E+01  0.00000000000E+00 0. -1.
         11    1    3    3    0    0 -0.34323160900E+02 -0.45651582461E+01  0.61964706175E+01  0.35175506995E+02  0.51100000000E-03 0. -1.
        -11    1    3    3    0    0 -0.38372704850E+01 -0.12564146464E+02  0.19561234041E+00  0.13138519155E+02  0.51100000000E-03 0.  1.
        -12    1    3    3    0    0  0.37276876352E+02  0.17246888389E+02 -0.71656866949E+01  0.41693737365E+02  0.00000000000E+00 0.  1.
</event>
<event>
 7    1  0.2084210E-015  0.9000785E+02  0.7816164E-02  0.1186339E+00
        -11   -1    0    0    0    0  0.00000000000E+00  0.00000000000E+00  0.45593999997E+02  0.45594000000E+02  0.51100000000E-03 0.  1.
         11   -1    0    0    0    0 -0.00000000000E+00 -0.00000000000E+00 -0.45593999997E+02  0.45594000000E+02  0.51100000000E-03 0. -1.
    9900012    2    1    2    0    0  0.75367254000E+00  0.24063936249E+00  0.87568400473E+00  0.90007850824E+02  0.90000113655E+02 0.  0.
         12    1    1    2    0    0 -0.75367254000E+00 -0.24063936249E+00 -0.87568400473E+00  0.11801491755E+01  0.00000000000E+00 0. -1.
         11    1    3    3    0    0 -0.12245696484E+02  0.14254314787E+02  0.59773550277E+01  0.19719821140E+02  0.51100000000E-03 0. -1.
        -11    1    3    3    0    0  0.25195063329E+02 -0.11790891266E+02  0.25208713051E+02  0.37540585330E+02  0.51100000000E-03 0.  1.
         12    1    3    3    0    0 -0.12195694305E+02 -0.22227841580E+01 -0.30310384074E+02  0.32747444354E+02  0.00000000000E+00 0. -1.
</event>
<event>
 7    1  0.2084210E-015  0.9000764E+02  0.7816164E-02  0.1186339E+00
        -11   -1    0    0    0    0  0.00000000000E+00  0.00000000000E+00  0.45593999997E+02  0.45594000000E+02  0.51100000000E-03 0.  1.
         11   -1    0    0    0    0 -0.00000000000E+00 -0.00000000000E+00 -0.45593999997E+02  0.45594000000E+02  0.51100000000E-03 0. -1.
    9900012    2    1    2    0    0 -0.10783772487E+01  0.56965070759E-01  0.47656518959E+00  0.90007636967E+02  0.89999896975E+02 0.  0.
         12    1    1    2    0    0  0.10783772487E+01 -0.56965070759E-01 -0.47656518959E+00  0.11803630330E+01  0.00000000000E+00 0. -1.
         11    1    3    3    0    0  0.11886210875E+02 -0.36365456789E+02 -0.67280801278E+00  0.38264619785E+02  0.51100000000E-03 0. -1.
        -11    1    3    3    0    0 -0.69719377582E+01 -0.55133828609E+01  0.28869596297E+01  0.93455787857E+01  0.51100000000E-03 0.  1.
        -12    1    3    3    0    0 -0.59926503656E+01  0.41935804720E+02 -0.17375864273E+01  0.42397438396E+02  0.00000000000E+00 0.  1.
</event>
<event>
 7    1  0.2084210E-015  0.9000774E+02  0.7816164E-02  0.1186339E+00
        -11   -1    0    0    0    0  0.00000000000E+00  0.00000000000E+00  0.45593999997E+02  0.45594000000E+02  0.51100000000E-03 0. -1.
         11   -1    0    0    0    0 -0.00000000000E+00 -0.00000000000E+00 -0.45593999997E+02  0.45594000000E+02  0.51100000000E-03 0.  1.
    9900012    2    1    2    0    0  0.11252910556E+00 -0.11123762771E+01 -0.37810466416E+00  0.90007742859E+02  0.90000004265E+02 0.  0.
         12    1    1    2    0    0 -0.11252910556E+00  0.11123762771E+01  0.37810466416E+00  0.11802571409E+01  0.00000000000E+00 0. -1.
         11    1    3    3    0    0  0.15464437562E+02  0.33329810807E+02 -0.59081196113E+01  0.37214661024E+02  0.51100000000E-03 0. -1.
        -11    1    3    3    0    0  0.82428219188E+01  0.24688781737E+01  0.20608275724E+01  0.88479649166E+01  0.51100000000E-03 0.  1.
        -12    1    3    3    0    0 -0.23594730375E+02 -0.36911065258E+02  0.34691873747E+01  0.43945116918E+02  0.00000000000E+00 0.  1.
</event>
<event>
 7    1  0.2084210E-015  0.9000788E+02  0.7816164E-02  0.1186339E+00
        -11   -1    0    0    0    0  0.00000000000E+00  0.00000000000E+00  0.45593999997E+02  0.45594000000E+02  0.51100000000E-03 0.  1.
         11   -1    0    0    0    0 -0.00000000000E+00 -0.00000000000E+00 -0.45593999997E+02  0.45594000000E+02  0.51100000000E-03 0. -1.
    9900012    2    1    2    0    0 -0.61437893337E+00  0.81619336559E+00 -0.59080513898E+00  0.90007879754E+02  0.90000142966E+02 0.  0.
         12    1    1    2    0    0  0.61437893337E+00 -0.81619336559E+00  0.59080513898E+00  0.11801202464E+01  0.00000000000E+00 0. -1.
         11    1    3    3    0    0  0.73062279435E+01 -0.22912247269E+02 -0.29357881860E+02  0.37950458090E+02  0.51100000000E-03 0. -1.
        -11    1    3    3    0    0 -0.78451788564E+01 -0.57271506635E+01 -0.14939822198E+01  0.98274650417E+01  0.51100000000E-03 0.  1.
        -12    1    3    3    0    0 -0.75428020447E-01  0.29455591298E+02  0.30261058941E+02  0.42229956622E+02  0.00000000000E+00 0.  1.
</event>
<event>
 7    1  0.2084210E-015  0.9000774E+02  0.7816164E-02  0.1186339E+00
        -11   -1    0    0    0    0  0.00000000000E+00  0.00000000000E+00  0.45593999997E+02  0.45594000000E+02  0.51100000000E-03 0.  1.
         11   -1    0    0    0    0 -0.00000000000E+00 -0.00000000000E+00 -0.45593999997E+02  0.45594000000E+02  0.51100000000E-03 0. -1.
    9900012    2    1    2    0    0 -0.17451067992E+00  0.51760444372E+00  0.10462578709E+01  0.90007735678E+02  0.89999996989E+02 0.  0.
         12    1    1    2    0    0  0.17451067992E+00 -0.51760444372E+00 -0.10462578709E+01  0.11802643221E+01  0.00000000000E+00 0. -1.
         11    1    3    3    0    0 -0.93622394306E+01  0.30201749824E+00 -0.13090673226E+01  0.94581393118E+01  0.51100000000E-03 0. -1.
        -11    1    3    3    0    0 -0.34476819704E+01 -0.32806135098E+02 -0.20134685833E+02  0.38646275175E+02  0.51100000000E-03 0.  1.
         12    1    3    3    0    0  0.12635410721E+02  0.33021722044E+02  0.22490011027E+02  0.41903321191E+02  0.00000000000E+00 0. -1.
</event>
<event>
 7    1  0.2084210E-015  0.9000785E+02  0.7816164E-02  0.1186339E+00
        -11   -1    0    0    0    0  0.00000000000E+00  0.00000000000E+00  0.45593999997E+02  0.45594000000E+02  0.51100000000E-03 0.  1.
         11   -1    0    0    0    0 -0.00000000000E+00 -0.00000000000E+00 -0.45593999997E+02  0.45594000000E+02  0.51100000000E-03 0. -1.
    9900012    2    1    2    0    0  0.91960853126E+00 -0.16477530018E+00 -0.72106355476E+00  0.90007846027E+02  0.90000108794E+02 0.  0.
         12    1    1    2    0    0 -0.91960853126E+00  0.16477530018E+00  0.72106355476E+00  0.11801539731E+01  0.00000000000E+00 0. -1.
         11    1    3    3    0    0 -0.32108076533E+02 -0.16122432604E+02  0.16397428964E+01  0.35965958472E+02  0.51100000000E-03 0. -1.
        -11    1    3    3    0    0 -0.79257471587E+01 -0.30415390014E+01  0.18872413802E+01  0.86965572388E+01  0.51100000000E-03 0.  1.
        -12    1    3    3    0    0  0.40953432223E+02  0.18999196306E+02 -0.42480478313E+01  0.45345330316E+02  0.00000000000E+00 0.  1.
</event>
<event>
 7    1  0.2084210E-015  0.9000776E+02  0.7816164E-02  0.1186339E+00
        -11   -1    0    0    0    0  0.00000000000E+00  0.00000000000E+00  0.45593999997E+02  0.45594000000E+02  0.51100000000E-03 0.  1.
         11   -1    0    0    0    0 -0.00000000000E+00 -0.00000000000E+00 -0.45593999997E+02  0.45594000000E+02  0.51100000000E-03 0. -1.
    9900012    2    1    2    0    0  0.37177099048E-01 -0.43275746138E+00  0.10974117703E+01  0.90007756910E+02  0.90000018502E+02 0.  0.
         12    1    1    2    0    0 -0.37177099048E-01  0.43275746138E+00 -0.10974117703E+01  0.11802430897E+01  0.00000000000E+00 0. -1.
         11    1    3    3    0    0 -0.50027653127E+01 -0.89333181998E+01  0.40610468626E+01  0.11014714554E+02  0.51100000000E-03 0. -1.
        -11    1    3    3    0    0 -0.11066298470E+02 -0.21176878565E+02  0.25416322687E+02  0.34884274491E+02  0.51100000000E-03 0.  1.
         12    1    3    3    0    0  0.16106240882E+02  0.29677439304E+02 -0.28379957779E+02  0.44108767865E+02  0.00000000000E+00 0. -1.
</event>
<event>
 7    1  0.2084210E-015  0.9000761E+02  0.7816164E-02  0.1186339E+00
        -11   -1    0    0    0    0  0.00000000000E+00  0.00000000000E+00  0.45593999997E+02  0.45594000000E+02  0.51100000000E-03 0.  1.
         11   -1    0    0    0    0 -0.00000000000E+00 -0.00000000000E+00 -0.45593999997E+02  0.45594000000E+02  0.51100000000E-03 0. -1.
    9900012    2    1    2    0    0 -0.97224918765E+00 -0.52467515107E+00  0.41565343975E+00  0.90007610116E+02  0.89999869769E+02 0.  0.
         12    1    1    2    0    0  0.97224918765E+00  0.52467515107E+00 -0.41565343975E+00  0.11803898843E+01  0.00000000000E+00 0. -1.
         11    1    3    3    0    0 -0.27443831383E+00  0.89524680665E+01 -0.52705033619E+01  0.10392314796E+02  0.51100000000E-03 0. -1.
        -11    1    3    3    0    0 -0.22864231020E+02  0.24417924823E+02  0.17057438065E+02  0.37549491427E+02  0.51100000000E-03 0.  1.
         12    1    3    3    0    0  0.22166420146E+02 -0.33895068041E+02 -0.11371281263E+02  0.42065803893E+02  0.00000000000E+00 0. -1.
</event>
<event>
 7    1  0.2084210E-015  0.9000755E+02  0.7816164E-02  0.1186339E+00
        -11   -1    0    0    0    0  0.00000000000E+00  0.00000000000E+00  0.45593999997E+02  0.45594000000E+02  0.51100000000E-03 0. -1.
         11   -1    0    0    0    0 -0.00000000000E+00 -0.00000000000E+00 -0.45593999997E+02  0.45594000000E+02  0.51100000000E-03 0.  1.
    9900012    2    1    2    0    0 -0.80428180287E+00  0.85771172595E+00 -0.10450773761E+00  0.90007550725E+02  0.89999809595E+02 0.  0.
         12    1    1    2    0    0  0.80428180287E+00 -0.85771172595E+00  0.10450773761E+00  0.11804492748E+01  0.00000000000E+00 0. -1.
         11    1    3    3    0    0 -0.19509308475E+01  0.42918834033E+02 -0.55171667459E+01  0.43315950585E+02  0.51100000000E-03 0. -1.
        -11    1    3    3    0    0 -0.41182248279E+01 -0.84276028979E+01 -0.55842388255E+01  0.10916409202E+02  0.51100000000E-03 0.  1.
        -12    1    3    3    0    0  0.52648738725E+01 -0.33633519409E+02  0.10996897834E+02  0.35775190939E+02  0.00000000000E+00 0.  1.
</event>
<event>
 7    1  0.2084210E-015  0.9000803E+02  0.7816164E-02  0.1186338E+00
        -11   -1    0    0    0    0  0.00000000000E+00  0.00000000000E+00  0.45593999997E+02  0.45594000000E+02  0.51100000000E-03 0.  1.
         11   -1    0    0    0    0 -0.00000000000E+00 -0.00000000000E+00 -0.45593999997E+02  0.45594000000E+02  0.51100000000E-03 0. -1.
    9900012    2    1    2    0    0  0.75683257929E+00  0.67456857085E+00  0.60373053919E+00  0.90008030139E+02  0.90000295336E+02 0.  0.
         12    1    1    2    0    0 -0.75683257929E+00 -0.67456857085E+00 -0.60373053919E+00  0.11799698614E+01  0.00000000000E+00 0. -1.
         11    1    3    3    0    0 -0.38397640583E+01  0.21694452152E+01  0.60380905301E+01  0.74772199430E+01  0.51100000000E-03 0. -1.
        -11    1    3    3    0    0 -0.76924915015E-01  0.23705915207E+02  0.30352125518E+02  0.38512697347E+02  0.51100000000E-03 0.  1.
         12    1    3    3    0    0  0.46735215526E+01 -0.25200791851E+02 -0.35786485509E+02  0.44018112848E+02  0.00000000000E+00 0. -1.
</event>
<event>
 7    1  0.2084210E-015  0.9000779E+02  0.7816164E-02  0.1186339E+00
        -11   -1    0    0    0    0  0.00000000000E+00  0.00000000000E+00  0.45593999997E+02  0.45594000000E+02  0.51100000000E-03 0.  1.
         11   -1    0    0    0    0 -0.00000000000E+00 -0.00000000000E+00 -0.45593999997E+02  0.45594000000E+02  0.51100000000E-03 0. -1.
    9900012    2    1    2    0    0 -0.23810958002E+00  0.10020891133E+01  0.57621606196E+00  0.90007786581E+02  0.90000048564E+02 0.  0.
         12    1    1    2    0    0  0.23810958002E+00 -0.10020891133E+01 -0.57621606196E+00  0.11802134185E+01  0.00000000000E+00 0. -1.
         11    1    3    3    0    0 -0.95686004615E+01 -0.37074907683E+01  0.25206692101E+01  0.10566805388E+02  0.51100000000E-03 0. -1.
        -11    1    3    3    0    0 -0.27335464537E+01  0.61959269150E+01  0.37530685973E+02  0.38136782460E+02  0.51100000000E-03 0.  1.
         12    1    3    3    0    0  0.12064037335E+02 -0.14863470333E+01 -0.39475139121E+02  0.41304198733E+02  0.00000000000E+00 0. -1.
</event>
<event>
 7    1  0.2084210E-015  0.9000796E+02  0.7816164E-02  0.1186339E+00
        -11   -1    0    0    0    0  0.00000000000E+00  0.00000000000E+00  0.45593999997E+02  0.45594000000E+02  0.51100000000E-03 0.  1.
         11   -1    0    0    0    0 -0.00000000000E+00 -0.00000000000E+00 -0.45593999997E+02  0.45594000000E+02  0.51100000000E-03 0. -1.
    9900012    2    1    2    0    0 -0.11464621677E+01 -0.34611102814E-01  0.27735989695E+00  0.90007956805E+02  0.90000221034E+02 0.  0.
         12    1    1    2    0    0  0.11464621677E+01  0.34611102814E-01 -0.27735989695E+00  0.11800431953E+01  0.00000000000E+00 0. -1.
         11    1    3    3    0    0  0.89613096492E+01 -0.12159863367E+01  0.38736389057E+01  0.98381284823E+01  0.51100000000E-03 0. -1.
        -11    1    3    3    0    0  0.31239653873E+02 -0.30637833882E+01  0.14814815642E+02  0.34709962626E+02  0.51100000000E-03 0.  1.
         12    1    3    3    0    0 -0.41347425690E+02  0.42451586221E+01 -0.18411094650E+02  0.45459865696E+02  0.00000000000E+00 0. -1.
</event>
<event>
 7    1  0.2084210E-015  0.9000808E+02  0.7816164E-02  0.1186338E+00
        -11   -1    0    0    0    0  0.00000000000E+00  0.00000000000E+00  0.45593999997E+02  0.45594000000E+02  0.51100000000E-03 0.  1.
         11   -1    0    0    0    0 -0.00000000000E+00 -0.00000000000E+00 -0.45593999997E+02  0.45594000000E+02  0.51100000000E-03 0. -1.
    9900012    2    1    2    0    0 -0.10775269870E+01  0.48054751649E+00 -0.14966761429E-01  0.90008078678E+02  0.90000344515E+02 0.  0.
         12    1    1    2    0    0  0.10775269870E+01 -0.48054751649E+00  0.14966761429E-01  0.11799213225E+01  0.00000000000E+00 0. -1.
         11    1    3    3    0    0  0.66702480738E+01  0.57629242707E+01 -0.14241015201E+01  0.89292536595E+01  0.51100000000E-03 0. -1.
        -11    1    3    3    0    0 -0.16351759844E+02  0.19550490587E+02  0.31895592947E+02  0.40828061207E+02  0.51100000000E-03 0.  1.
         12    1    3    3    0    0  0.86039847832E+01 -0.24832867341E+02 -0.30486458188E+02  0.40250763811E+02  0.00000000000E+00 0. -1.
</event>
<event>
 7    1  0.2084210E-015  0.9000770E+02  0.7816164E-02  0.1186339E+00
        -11   -1    0    0    0    0  0.00000000000E+00  0.00000000000E+00  0.45593999997E+02  0.45594000000E+02  0.51100000000E-03 0.  1.
         11   -1    0    0    0    0 -0.00000000000E+00 -0.00000000000E+00 -0.45593999997E+02  0.45594000000E+02  0.51100000000E-03 0. -1.
    9900012    2    1    2    0    0  0.73239521805E+00  0.49626085346E+00  0.78129875004E+00  0.90007701171E+02  0.89999962026E+02 0.  0.
         12    1    1    2    0    0 -0.73239521805E+00 -0.49626085346E+00 -0.78129875004E+00  0.11802988295E+01  0.00000000000E+00 0. -1.
         11    1    3    3    0    0  0.27173238456E+02  0.26710792503E+02 -0.61135558975E+01  0.38590502592E+02  0.51100000000E-03 0. -1.
        -11    1    3    3    0    0 -0.10479267730E+01  0.55334787900E+01  0.91020146266E+01  0.10703467128E+02  0.51100000000E-03 0.  1.
        -12    1    3    3    0    0 -0.25392916465E+02 -0.31748010439E+02 -0.22071599791E+01  0.40713731450E+02  0.00000000000E+00 0.  1.
</event>
<event>
 7    1  0.2084210E-015  0.9000764E+02  0.7816164E-02  0.1186339E+00
        -11   -1    0    0    0    0  0.00000000000E+00  0.00000000000E+00  0.45593999997E+02  0.45594000000E+02  0.51100000000E-03 0.  1.
         11   -1    0    0    0    0 -0.00000000000E+00 -0.00000000000E+00 -0.45593999997E+02  0.45594000000E+02  0.51100000000E-03 0. -1.
    9900012    2    1    2    0    0  0.14704735022E+00 -0.87241200815E+00  0.78135726840E+00  0.90007642081E+02  0.89999902157E+02 0.  0.
         12    1    1    2    0    0 -0.14704735022E+00  0.87241200815E+00 -0.78135726840E+00  0.11803579186E+01  0.00000000000E+00 0. -1.
         11    1    3    3    0    0  0.12298591280E+01 -0.18993145448E+01  0.81379717557E+01  0.84466877397E+01  0.51100000000E-03 0. -1.
        -11    1    3    3    0    0  0.79019790000E+01 -0.26201576551E+02  0.25879727355E+02  0.37665955107E+02  0.51100000000E-03 0.  1.
         12    1    3    3    0    0 -0.89847907778E+01  0.27228479088E+02 -0.33236341842E+02  0.43894999235E+02  0.00000000000E+00 0. -1.
</event>
<event>
 7    1  0.2566493E-015  0.9000764E+02  0.7816164E-02  0.1186339E+00
        -11   -1    0    0    0    0  0.00000000000E+00  0.00000000000E+00  0.45593999997E+02  0.45594000000E+02  0.51100000000E-03 0.  1.
         11   -1    0    0    0    0 -0.00000000000E+00 -0.00000000000E+00 -0.45593999997E+02  0.45594000000E+02  0.51100000000E-03 0. -1.
    9900012    2    1    2    0    0 -0.23566623426E+00  0.60830458244E+00  0.98371072701E+00  0.90007635720E+02  0.89999895711E+02 0.  0.
         12    1    1    2    0    0  0.23566623426E+00 -0.60830458244E+00 -0.98371072701E+00  0.11803642800E+01  0.00000000000E+00 0. -1.
         11    1    3    3    0    0 -0.15266777122E+02  0.27258305188E+01 -0.34584770622E+02  0.37902651555E+02  0.51100000000E-03 0. -1.
        -11    1    3    3    0    0 -0.74981439695E+01 -0.65316166803E+01  0.20878906215E+00  0.99462441444E+01  0.51100000000E-03 0.  1.
        -12    1    3    3    0    0  0.22529254857E+02  0.44140907440E+01  0.35359692286E+02  0.42158740020E+02  0.00000000000E+00 0.  1.
</event>
<event>
 7    1  0.2084210E-015  0.9000758E+02  0.7816164E-02  0.1186339E+00
        -11   -1    0    0    0    0  0.00000000000E+00  0.00000000000E+00  0.45593999997E+02  0.45594000000E+02  0.51100000000E-03 0. -1.
         11   -1    0    0    0    0 -0.00000000000E+00 -0.00000000000E+00 -0.45593999997E+02  0.45594000000E+02  0.51100000000E-03 0.  1.
    9900012    2    1    2    0    0 -0.10145622582E+01  0.58874195063E+00 -0.13209585926E+00  0.90007575087E+02  0.89999834278E+02 0.  0.
         12    1    1    2    0    0  0.10145622582E+01 -0.58874195063E+00  0.13209585926E+00  0.11804249134E+01  0.00000000000E+00 0. -1.
         11    1    3    3    0    0 -0.60433869725E+01 -0.15753646809E+01 -0.67668559992E+01  0.92084005317E+01  0.51100000000E-03 0. -1.
        -11    1    3    3    0    0 -0.25252414379E+02  0.30026724194E+02  0.56450840582E+01  0.39637804835E+02  0.51100000000E-03 0.  1.
         12    1    3    3    0    0  0.30281239094E+02 -0.27862617563E+02  0.98967608174E+00  0.41161369720E+02  0.00000000000E+00 0. -1.
</event>
<event>
 7    1  0.2084210E-015  0.9000770E+02  0.7816164E-02  0.1186339E+00
        -11   -1    0    0    0    0  0.00000000000E+00  0.00000000000E+00  0.45593999997E+02  0.45594000000E+02  0.51100000000E-03 0. -1.
         11   -1    0    0    0    0 -0.00000000000E+00 -0.00000000000E+00 -0.45593999997E+02  0.45594000000E+02  0.51100000000E-03 0.  1.
    9900012    2    1    2    0    0  0.23993773239E+00 -0.59411857011E+00 -0.99123637397E+00  0.90007704893E+02  0.89999965797E+02 0.  0.
         12    1    1    2    0    0 -0.23993773239E+00  0.59411857011E+00  0.99123637397E+00  0.11802951071E+01  0.00000000000E+00 0. -1.
         11    1    3    3    0    0  0.25085521897E+02 -0.14001507224E+02 -0.81541826164E+01  0.29863293653E+02  0.51100000000E-03 0. -1.
        -11    1    3    3    0    0  0.99803241903E+01  0.50473155793E+01 -0.14481068123E+02  0.18297092658E+02  0.51100000000E-03 0.  1.
         12    1    3    3    0    0 -0.34825908355E+02  0.83600730749E+01  0.21644014366E+02  0.41847318581E+02  0.00000000000E+00 0. -1.
</event>
<event>
 7    1  0.2084210E-015  0.9000787E+02  0.7816164E-02  0.1186339E+00
        -11   -1    0    0    0    0  0.00000000000E+00  0.00000000000E+00  0.45593999997E+02  0.45594000000E+02  0.51100000000E-03 0. -1.
         11   -1    0    0    0    0 -0.00000000000E+00 -0.00000000000E+00 -0.45593999997E+02  0.45594000000E+02  0.51100000000E-03 0.  1.
    9900012    2    1    2    0    0 -0.19397523423E+00  0.11538792552E+01 -0.15375426424E+00  0.90007871151E+02  0.90000134250E+02 0.  0.
         12    1    1    2    0    0  0.19397523423E+00 -0.11538792552E+01  0.15375426424E+00  0.11801288492E+01  0.00000000000E+00 0. -1.
         11    1    3    3    0    0 -0.29804141359E+01  0.53809878391E+01 -0.25980137953E+01  0.66773927912E+01  0.51100000000E-03 0. -1.
        -11    1    3    3    0    0 -0.27360224249E+02 -0.26758551401E+00 -0.28805689431E+02  0.39729349565E+02  0.51100000000E-03 0.  1.
         12    1    3    3    0    0  0.30146663151E+02 -0.39595230699E+01  0.31249948962E+02  0.43601128795E+02  0.00000000000E+00 0. -1.
</event>
<event>
 7    1  0.2084210E-015  0.9000778E+02  0.7816164E-02  0.1186339E+00
        -11   -1    0    0    0    0  0.00000000000E+00  0.00000000000E+00  0.45593999997E+02  0.45594000000E+02  0.51100000000E-03 0. -1.
         11   -1    0    0    0    0 -0.00000000000E+00 -0.00000000000E+00 -0.45593999997E+02  0.45594000000E+02  0.51100000000E-03 0.  1.
    9900012    2    1    2    0    0 -0.10891861672E+01  0.26081006776E+00 -0.37224566532E+00  0.90007781701E+02  0.90000043619E+02 0.  0.
         12    1    1    2    0    0  0.10891861672E+01 -0.26081006776E+00  0.37224566532E+00  0.11802182992E+01  0.00000000000E+00 0. -1.
         11    1    3    3    0    0  0.20255035100E+01 -0.38268349359E+01 -0.49267507979E+01  0.65589788672E+01  0.51100000000E-03 0. -1.
        -11    1    3    3    0    0  0.53572545765E+01 -0.29466113313E+02 -0.24160909382E+02  0.38479885042E+02  0.51100000000E-03 0.  1.
         12    1    3    3    0    0 -0.84719442537E+01  0.33553758317E+02  0.28715414515E+02  0.44968917792E+02  0.00000000000E+00 0. -1.
</event>
<event>
 7    1  0.2084210E-015  0.9000766E+02  0.7816164E-02  0.1186339E+00
        -11   -1    0    0    0    0  0.00000000000E+00  0.00000000000E+00  0.45593999997E+02  0.45594000000E+02  0.51100000000E-03 0. -1.
         11   -1    0    0    0    0 -0.00000000000E+00 -0.00000000000E+00 -0.45593999997E+02  0.45594000000E+02  0.51100000000E-03 0.  1.
    9900012    2    1    2    0    0  0.10851218171E+01 -0.46390778888E+00 -0.22190399739E-01  0.90007664366E+02  0.89999924736E+02 0.  0.
         12    1    1    2    0    0 -0.10851218171E+01  0.46390778888E+00  0.22190399739E-01  0.11803356338E+01  0.00000000000E+00 0. -1.
         11    1    3    3    0    0  0.68805242661E+01 -0.11190722747E+02 -0.74005911306E+01  0.15077885764E+02  0.51100000000E-03 0. -1.
        -11    1    3    3    0    0  0.73383216026E+01  0.19183142805E+02 -0.28886377268E+02  0.35443853117E+02  0.51100000000E-03 0.  1.
         12    1    3    3    0    0 -0.13133724052E+02 -0.84563278465E+01  0.36264777999E+02  0.39485925485E+02  0.00000000000E+00 0. -1.
</event>
<event>
 7    1  0.2084210E-015  0.9000781E+02  0.7816164E-02  0.1186339E+00
        -11   -1    0    0    0    0  0.00000000000E+00  0.00000000000E+00  0.45593999997E+02  0.45594000000E+02  0.51100000000E-03 0. -1.
         11   -1    0    0    0    0 -0.00000000000E+00 -0.00000000000E+00 -0.45593999997E+02  0.45594000000E+02  0.51100000000E-03 0.  1.
    9900012    2    1    2    0    0 -0.10996734188E+01  0.27172069702E+00  0.33125645703E+00  0.90007811623E+02  0.90000073936E+02 0.  0.
         12    1    1    2    0    0  0.10996734188E+01 -0.27172069702E+00 -0.33125645703E+00  0.11801883771E+01  0.00000000000E+00 0. -1.
         11    1    3    3    0    0 -0.27858022753E+01  0.36792493116E+02  0.18077999501E+02  0.41088469310E+02  0.51100000000E-03 0. -1.
        -11    1    3    3    0    0 -0.42684338433E+01 -0.59727718899E+01  0.62325846239E+01  0.96300904917E+01  0.51100000000E-03 0.  1.
        -12    1    3    3    0    0  0.59545626999E+01 -0.30548000529E+02 -0.23979327668E+02  0.39289251821E+02  0.00000000000E+00 0.  1.
</event>
<event>
 7    1  0.2084210E-015  0.9000777E+02  0.7816164E-02  0.1186339E+00
        -11   -1    0    0    0    0  0.00000000000E+00  0.00000000000E+00  0.45593999997E+02  0.45594000000E+02  0.51100000000E-03 0.  1.
         11   -1    0    0    0    0 -0.00000000000E+00 -0.00000000000E+00 -0.45593999997E+02  0.45594000000E+02  0.51100000000E-03 0. -1.
    9900012    2    1    2    0    0 -0.78360849344E-01 -0.10797634686E+01 -0.47001900973E+00  0.90007768057E+02  0.90000029795E+02 0.  0.
         12    1    1    2    0    0  0.78360849344E-01  0.10797634686E+01  0.47001900973E+00  0.11802319434E+01  0.00000000000E+00 0. -1.
         11    1    3    3    0    0  0.34260909564E+01 -0.67824918979E+01  0.85786882422E+01  0.11460112905E+02  0.51100000000E-03 0. -1.
        -11    1    3    3    0    0 -0.60687955922E+01 -0.17026885262E+02  0.28988495308E+02  0.34162522773E+02  0.51100000000E-03 0.  1.
         12    1    3    3    0    0  0.25643437864E+01  0.22729613692E+02 -0.38037202560E+02  0.44385132379E+02  0.00000000000E+00 0. -1.
</event>
<event>
 7    1  0.2084210E-015  0.9000773E+02  0.7816164E-02  0.1186339E+00
        -11   -1    0    0    0    0  0.00000000000E+00  0.00000000000E+00  0.45593999997E+02  0.45594000000E+02  0.51100000000E-03 0. -1.
         11   -1    0    0    0    0 -0.00000000000E+00 -0.00000000000E+00 -0.45593999997E+02  0.45594000000E+02  0.51100000000E-03 0.  1.
    9900012    2    1    2    0    0  0.11030255827E+01  0.39351397709E+00 -0.14673186240E+00  0.90007725064E+02  0.89999986234E+02 0.  0.
         12    1    1    2    0    0 -0.11030255827E+01 -0.39351397709E+00  0.14673186240E+00  0.11802749365E+01  0.00000000000E+00 0. -1.
         11    1    3    3    0    0  0.73730386322E+01  0.58628962324E+01  0.85531261482E+00  0.94586896996E+01  0.51100000000E-03 0. -1.
        -11    1    3    3    0    0  0.35664377933E+02 -0.20861818046E+01 -0.10858749267E+02  0.37339154299E+02  0.51100000000E-03 0.  1.
         12    1    3    3    0    0 -0.41934390982E+02 -0.33832004507E+01  0.98567047894E+01  0.43209881065E+02  0.00000000000E+00 0. -1.
</event>
<event>
 7    1  0.2084210E-015  0.9000774E+02  0.7816164E-02  0.1186339E+00
        -11   -1    0    0    0    0  0.00000000000E+00  0.00000000000E+00  0.45593999997E+02  0.45594000000E+02  0.51100000000E-03 0. -1.
         11   -1    0    0    0    0 -0.00000000000E+00 -0.00000000000E+00 -0.45593999997E+02  0.45594000000E+02  0.51100000000E-03 0.  1.
    9900012    2    1    2    0    0 -0.15230249455E-01 -0.60751798430E+00 -0.10117786279E+01  0.90007743226E+02  0.90000004636E+02 0.  0.
         12    1    1    2    0    0  0.15230249455E-01  0.60751798430E+00  0.10117786279E+01  0.11802567744E+01  0.00000000000E+00 0. -1.
         11    1    3    3    0    0 -0.18917285808E+02  0.17695222754E+02  0.23700541115E+02  0.35109831387E+02  0.51100000000E-03 0. -1.
        -11    1    3    3    0    0 -0.38997389641E+01  0.54578696147E+01  0.66328835273E+01  0.94335279120E+01  0.51100000000E-03 0.  1.
        -12    1    3    3    0    0  0.22801794523E+02 -0.23760610353E+02 -0.31345203270E+02  0.45464383926E+02  0.00000000000E+00 0.  1.
</event>
<event>
 7    1  0.2084210E-015  0.9000773E+02  0.7816164E-02  0.1186339E+00
        -11   -1    0    0    0    0  0.00000000000E+00  0.00000000000E+00  0.45593999997E+02  0.45594000000E+02  0.51100000000E-03 0. -1.
         11   -1    0    0    0    0 -0.00000000000E+00 -0.00000000000E+00 -0.45593999997E+02  0.45594000000E+02  0.51100000000E-03 0.  1.
    9900012    2    1    2    0    0 -0.23407977632E+00  0.98057307856E+00  0.61376861644E+00  0.90007733582E+02  0.89999994865E+02 0.  0.
         12    1    1    2    0    0  0.23407977632E+00 -0.98057307856E+00 -0.61376861644E+00  0.11802664185E+01  0.00000000000E+00 0. -1.
         11    1    3    3    0    0 -0.55918251338E+01  0.22305342590E+01  0.60814234127E+01  0.85573069591E+01  0.51100000000E-03 0. -1.
        -11    1    3    3    0    0 -0.12345339253E+02  0.25407375682E+02 -0.29941990468E+02  0.41163878993E+02  0.51100000000E-03 0.  1.
         12    1    3    3    0    0  0.17703084610E+02 -0.26657336862E+02  0.24474335672E+02  0.40286547629E+02  0.00000000000E+00 0. -1.
</event>
<event>
 7    1  0.2084210E-015  0.9000775E+02  0.7816164E-02  0.1186339E+00
        -11   -1    0    0    0    0  0.00000000000E+00  0.00000000000E+00  0.45593999997E+02  0.45594000000E+02  0.51100000000E-03 0. -1.
         11   -1    0    0    0    0 -0.00000000000E+00 -0.00000000000E+00 -0.45593999997E+02  0.45594000000E+02  0.51100000000E-03 0.  1.
    9900012    2    1    2    0    0 -0.61331038827E+00  0.89984050145E+00 -0.45511075738E+00  0.90007750720E+02  0.90000012230E+02 0.  0.
         12    1    1    2    0    0  0.61331038827E+00 -0.89984050145E+00  0.45511075738E+00  0.11802492796E+01  0.00000000000E+00 0. -1.
         11    1    3    3    0    0 -0.32893903890E+02  0.12360699208E+02 -0.21516732856E+01  0.35205475373E+02  0.51100000000E-03 0. -1.
        -11    1    3    3    0    0 -0.79469287190E+01 -0.96782476895E+01 -0.58702634415E+01  0.13830478934E+02  0.51100000000E-03 0.  1.
        -12    1    3    3    0    0  0.40227522221E+02 -0.17826110173E+01  0.75668259697E+01  0.40971796413E+02  0.00000000000E+00 0.  1.
</event>
<event>
 7    1  0.2084210E-015  0.9000764E+02  0.7816164E-02  0.1186339E+00
        -11   -1    0    0    0    0  0.00000000000E+00  0.00000000000E+00  0.45593999997E+02  0.45594000000E+02  0.51100000000E-03 0.  1.
         11   -1    0    0    0    0 -0.00000000000E+00 -0.00000000000E+00 -0.45593999997E+02  0.45594000000E+02  0.51100000000E-03 0. -1.
    9900012    2    1    2    0    0  0.60990576961E+00  0.10034750173E+01  0.11954911922E+00  0.90007644481E+02  0.89999904589E+02 0.  0.
         12    1    1    2    0    0 -0.60990576961E+00 -0.10034750173E+01 -0.11954911922E+00  0.11803555185E+01  0.00000000000E+00 0. -1.
         11    1    3    3    0    0 -0.53799654304E+01 -0.51039044031E+01  0.11306263444E+02  0.13521296592E+02  0.51100000000E-03 0. -1.
        -11    1    3    3    0    0 -0.23679554386E+02  0.10214141010E+02  0.20455381856E+02  0.32916145273E+02  0.51100000000E-03 0.  1.
         12    1    3    3    0    0  0.29669425586E+02 -0.41067615897E+01 -0.31642096181E+02  0.43570202617E+02  0.00000000000E+00 0. -1.
</event>
<event>
 7    1  0.2084210E-015  0.9000779E+02  0.7816164E-02  0.1186339E+00
        -11   -1    0    0    0    0  0.00000000000E+00  0.00000000000E+00  0.45593999997E+02  0.45594000000E+02  0.51100000000E-03 0. -1.
         11   -1    0    0    0    0 -0.00000000000E+00 -0.00000000000E+00 -0.45593999997E+02  0.45594000000E+02  0.51100000000E-03 0.  1.
    9900012    2    1    2    0    0 -0.10679887079E+01  0.18210705236E+00 -0.46812478013E+00  0.90007786600E+02  0.90000048584E+02 0.  0.
         12    1    1    2    0    0  0.10679887079E+01 -0.18210705236E+00  0.46812478013E+00  0.11802133995E+01  0.00000000000E+00 0. -1.
         11    1    3    3    0    0  0.23111873258E+02  0.54223527437E+01 -0.11192479999E+02  0.26245613035E+02  0.51100000000E-03 0. -1.
        -11    1    3    3    0    0  0.14894234989E+01  0.11994731383E+02 -0.17919282335E+02  0.21614639553E+02  0.51100000000E-03 0.  1.
        -12    1    3    3    0    0 -0.25669285465E+02 -0.17234977074E+02  0.28643637554E+02  0.42147534013E+02  0.00000000000E+00 0.  1.
</event>
<event>
 7    1  0.2084210E-015  0.9000775E+02  0.7816164E-02  0.1186339E+00
        -11   -1    0    0    0    0  0.00000000000E+00  0.00000000000E+00  0.45593999997E+02  0.45594000000E+02  0.51100000000E-03 0.  1.
         11   -1    0    0    0    0 -0.00000000000E+00 -0.00000000000E+00 -0.45593999997E+02  0.45594000000E+02  0.51100000000E-03 0. -1.
    9900012    2    1    2    0    0  0.39769063266E+00 -0.89672647486E+00  0.65628028294E+00  0.90007754254E+02  0.90000015811E+02 0.  0.
         12    1    1    2    0    0 -0.39769063266E+00  0.89672647486E+00 -0.65628028294E+00  0.11802457455E+01  0.00000000000E+00 0. -1.
         11    1    3    3    0    0 -0.24584441380E+02 -0.23615466111E+02 -0.25715023078E+02  0.42700672240E+02  0.51100000000E-03 0. -1.
        -11    1    3    3    0    0  0.26406544579E+01 -0.30026993416E+01  0.71427333114E+01  0.81858352489E+01  0.51100000000E-03 0.  1.
        -12    1    3    3    0    0  0.22341477554E+02  0.25721438978E+02  0.19228570049E+02  0.39121246766E+02  0.00000000000E+00 0.  1.
</event>
<event>
 7    1  0.2084210E-015  0.9000872E+02  0.7816164E-02  0.1186337E+00
        -11   -1    0    0    0    0  0.00000000000E+00  0.00000000000E+00  0.45593999997E+02  0.45594000000E+02  0.51100000000E-03 0.  1.
         11   -1    0    0    0    0 -0.00000000000E+00 -0.00000000000E+00 -0.45593999997E+02  0.45594000000E+02  0.51100000000E-03 0. -1.
    9900012    2    1    2    0    0 -0.99779119399E+00 -0.44078394883E+00  0.44814525097E+00  0.90008715504E+02  0.90000989743E+02 0.  0.
         12    1    1    2    0    0  0.99779119399E+00  0.44078394883E+00 -0.44814525097E+00  0.11792844959E+01  0.00000000000E+00 0. -1.
         11    1    3    3    0    0 -0.90067330402E+00  0.62199137717E+01  0.10777895183E+02  0.12476440380E+02  0.51100000000E-03 0. -1.
        -11    1    3    3    0    0  0.26243314694E+02  0.99570231507E+01  0.19681453176E+02  0.34281386721E+02  0.51100000000E-03 0.  1.
         12    1    3    3    0    0 -0.26340432584E+02 -0.16617720871E+02 -0.30011203108E+02  0.43250888403E+02  0.00000000000E+00 0. -1.
</event>
<event>
 7    1  0.2084210E-015  0.9000773E+02  0.7816164E-02  0.1186339E+00
        -11   -1    0    0    0    0  0.00000000000E+00  0.00000000000E+00  0.45593999997E+02  0.45594000000E+02  0.51100000000E-03 0.  1.
         11   -1    0    0    0    0 -0.00000000000E+00 -0.00000000000E+00 -0.45593999997E+02  0.45594000000E+02  0.51100000000E-03 0. -1.
    9900012    2    1    2    0    0  0.10956947735E-01  0.11719783594E+01 -0.13925841063E+00  0.90007726204E+02  0.89999987389E+02 0.  0.
         12    1    1    2    0    0 -0.10956947735E-01 -0.11719783594E+01  0.13925841063E+00  0.11802737964E+01  0.00000000000E+00 0. -1.
         11    1    3    3    0    0  0.32370372943E+02  0.11999000695E+02 -0.11694357960E+02  0.36449623736E+02  0.51100000000E-03 0. -1.
        -11    1    3    3    0    0  0.82349570422E+01  0.17520235697E+01  0.67453712324E+01  0.10788148006E+02  0.51100000000E-03 0.  1.
        -12    1    3    3    0    0 -0.40594373037E+02 -0.12579045905E+02  0.48097283170E+01  0.42769954462E+02  0.00000000000E+00 0.  1.
</event>
<event>
 7    1  0.2084210E-015  0.9000775E+02  0.7816164E-02  0.1186339E+00
        -11   -1    0    0    0    0  0.00000000000E+00  0.00000000000E+00  0.45593999997E+02  0.45594000000E+02  0.51100000000E-03 0.  1.
         11   -1    0    0    0    0 -0.00000000000E+00 -0.00000000000E+00 -0.45593999997E+02  0.45594000000E+02  0.51100000000E-03 0. -1.
    9900012    2    1    2    0    0  0.74921095862E-01  0.11174151804E+01  0.37252023719E+00  0.90007745289E+02  0.90000006727E+02 0.  0.
         12    1    1    2    0    0 -0.74921095862E-01 -0.11174151804E+01 -0.37252023719E+00  0.11802547111E+01  0.00000000000E+00 0. -1.
         11    1    3    3    0    0 -0.13730362846E+02 -0.17240567416E+02  0.17933892412E+01  0.22112807917E+02  0.51100000000E-03 0. -1.
        -11    1    3    3    0    0 -0.25199432424E+02  0.21532499072E+01 -0.38766308291E+01  0.25586640000E+02  0.51100000000E-03 0.  1.
        -12    1    3    3    0    0  0.39004716366E+02  0.16204732690E+02  0.24557618251E+01  0.42308297372E+02  0.00000000000E+00 0.  1.
</event>
<event>
 7    1  0.2084210E-015  0.9000773E+02  0.7816164E-02  0.1186339E+00
        -11   -1    0    0    0    0  0.00000000000E+00  0.00000000000E+00  0.45593999997E+02  0.45594000000E+02  0.51100000000E-03 0.  1.
         11   -1    0    0    0    0 -0.00000000000E+00 -0.00000000000E+00 -0.45593999997E+02  0.45594000000E+02  0.51100000000E-03 0. -1.
    9900012    2    1    2    0    0 -0.59421636161E+00  0.21011428431E+00  0.99790122570E+00  0.90007725476E+02  0.89999986652E+02 0.  0.
         12    1    1    2    0    0  0.59421636161E+00 -0.21011428431E+00 -0.99790122570E+00  0.11802745245E+01  0.00000000000E+00 0. -1.
         11    1    3    3    0    0  0.31664592438E+02  0.17489759339E+02 -0.93352578828E+01  0.37358869576E+02  0.51100000000E-03 0. -1.
        -11    1    3    3    0    0  0.65126614168E+01  0.21576019495E+01  0.59058788161E+01  0.90525913281E+01  0.51100000000E-03 0.  1.
        -12    1    3    3    0    0 -0.38771470216E+02 -0.19437247004E+02  0.44272802924E+01  0.43596264572E+02  0.00000000000E+00 0.  1.
</event>
<event>
 7    1  0.2084210E-015  0.9000774E+02  0.7816164E-02  0.1186339E+00
        -11   -1    0    0    0    0  0.00000000000E+00  0.00000000000E+00  0.45593999997E+02  0.45594000000E+02  0.51100000000E-03 0.  1.
         11   -1    0    0    0    0 -0.00000000000E+00 -0.00000000000E+00 -0.45593999997E+02  0.45594000000E+02  0.51100000000E-03 0. -1.
    9900012    2    1    2    0    0 -0.35456619791E+00 -0.10916616847E+01 -0.27490102899E+00  0.90007740284E+02  0.90000001655E+02 0.  0.
         12    1    1    2    0    0  0.35456619791E+00  0.10916616847E+01  0.27490102899E+00  0.11802597165E+01  0.00000000000E+00 0. -1.
         11    1    3    3    0    0 -0.12705033683E+02 -0.39735009733E+02 -0.95342308105E+01  0.42792410971E+02  0.51100000000E-03 0. -1.
        -11    1    3    3    0    0 -0.63312535504E+01  0.73130331128E+01  0.41862908124E+00  0.96819665047E+01  0.51100000000E-03 0.  1.
        -12    1    3    3    0    0  0.18681721035E+02  0.31330314935E+02  0.88407007003E+01  0.37533362808E+02  0.00000000000E+00 0.  1.
</event>
<event>
 7    1  0.2084210E-015  0.9000766E+02  0.7816164E-02  0.1186339E+00
        -11   -1    0    0    0    0  0.00000000000E+00  0.00000000000E+00  0.45593999997E+02  0.45594000000E+02  0.51100000000E-03 0. -1.
         11   -1    0    0    0    0 -0.00000000000E+00 -0.00000000000E+00 -0.45593999997E+02  0.45594000000E+02  0.51100000000E-03 0.  1.
    9900012    2    1    2    0    0 -0.25562122775E+00  0.91831274612E+00 -0.69610063322E+00  0.90007662504E+02  0.89999922850E+02 0.  0.
         12    1    1    2    0    0  0.25562122775E+00 -0.91831274612E+00  0.69610063322E+00  0.11803374955E+01  0.00000000000E+00 0. -1.
         11    1    3    3    0    0 -0.79217952826E+01 -0.32137451304E+02  0.19605870715E+02  0.38470258428E+02  0.51100000000E-03 0. -1.
        -11    1    3    3    0    0  0.52738880839E+01 -0.56976621628E+01 -0.89894254399E-01  0.77643628767E+01  0.51100000000E-03 0.  1.
        -12    1    3    3    0    0  0.23922859710E+01  0.38753426212E+02 -0.20212077094E+02  0.43773041199E+02  0.00000000000E+00 0.  1.
</event>
<event>
 7    1  0.2084210E-015  0.9000773E+02  0.7816164E-02  0.1186339E+00
        -11   -1    0    0    0    0  0.00000000000E+00  0.00000000000E+00  0.45593999997E+02  0.45594000000E+02  0.51100000000E-03 0. -1.
         11   -1    0    0    0    0 -0.00000000000E+00 -0.00000000000E+00 -0.45593999997E+02  0.45594000000E+02  0.51100000000E-03 0.  1.
    9900012    2    1    2    0    0 -0.60728914951E+00 -0.32807775468E+00 -0.95739523585E+00  0.90007728522E+02  0.89999989738E+02 0.  0.
         12    1    1    2    0    0  0.60728914951E+00  0.32807775468E+00  0.95739523585E+00  0.11802714780E+01  0.00000000000E+00 0. -1.
         11    1    3    3    0    0  0.69543463567E+01 -0.19555370105E+01 -0.61268963194E+01  0.94723765243E+01  0.51100000000E-03 0. -1.
        -11    1    3    3    0    0  0.15065538566E+02  0.24194157291E+02 -0.24005504965E+02  0.37263815803E+02  0.51100000000E-03 0.  1.
         12    1    3    3    0    0 -0.22627174072E+02 -0.22566698036E+02  0.29175006048E+02  0.43271536195E+02  0.00000000000E+00 0. -1.
</event>
<event>
 7    1  0.2084210E-015  0.9000776E+02  0.7816164E-02  0.1186339E+00
        -11   -1    0    0    0    0  0.00000000000E+00  0.00000000000E+00  0.45593999997E+02  0.45594000000E+02  0.51100000000E-03 0. -1.
         11   -1    0    0    0    0 -0.00000000000E+00 -0.00000000000E+00 -0.45593999997E+02  0.45594000000E+02  0.51100000000E-03 0.  1.
    9900012    2    1    2    0    0 -0.72529920920E+00 -0.74086654635E+00 -0.56393726896E+00  0.90007759590E+02  0.90000021216E+02 0.  0.
         12    1    1    2    0    0  0.72529920920E+00  0.74086654635E+00  0.56393726896E+00  0.11802404101E+01  0.00000000000E+00 0. -1.
         11    1    3    3    0    0  0.68903425478E+00 -0.57964271099E-01 -0.93167210295E+01  0.93423454798E+01  0.51100000000E-03 0. -1.
        -11    1    3    3    0    0 -0.28229525828E+02 -0.12999307951E+02 -0.21975218654E+02  0.38063084095E+02  0.51100000000E-03 0.  1.
         12    1    3    3    0    0  0.26815192364E+02  0.12316405675E+02  0.30728002415E+02  0.42602330015E+02  0.00000000000E+00 0. -1.
</event>
<event>
 7    1  0.2084210E-015  0.9000775E+02  0.7816164E-02  0.1186339E+00
        -11   -1    0    0    0    0  0.00000000000E+00  0.00000000000E+00  0.45593999997E+02  0.45594000000E+02  0.51100000000E-03 0.  1.
         11   -1    0    0    0    0 -0.00000000000E+00 -0.00000000000E+00 -0.45593999997E+02  0.45594000000E+02  0.51100000000E-03 0. -1.
    9900012    2    1    2    0    0  0.38036562416E+00 -0.63750383055E-01  0.11154553704E+01  0.90007753076E+02  0.90000014616E+02 0.  0.
         12    1    1    2    0    0 -0.38036562416E+00  0.63750383055E-01 -0.11154553704E+01  0.11802469244E+01  0.00000000000E+00 0. -1.
         11    1    3    3    0    0  0.26999520079E+02 -0.88527055233E+00 -0.21962489028E+02  0.34815351686E+02  0.51100000000E-03 0. -1.
        -11    1    3    3    0    0  0.12775632398E+01 -0.24286800632E+01 -0.10824991163E+02  0.11167411903E+02  0.51100000000E-03 0.  1.
        -12    1    3    3    0    0 -0.27896717695E+02  0.32502002325E+01  0.33902935561E+02  0.44024989487E+02  0.00000000000E+00 0.  1.
</event>
<event>
 7    1  0.2084210E-015  0.9000776E+02  0.7816164E-02  0.1186339E+00
        -11   -1    0    0    0    0  0.00000000000E+00  0.00000000000E+00  0.45593999997E+02  0.45594000000E+02  0.51100000000E-03 0.  1.
         11   -1    0    0    0    0 -0.00000000000E+00 -0.00000000000E+00 -0.45593999997E+02  0.45594000000E+02  0.51100000000E-03 0. -1.
    9900012    2    1    2    0    0 -0.60945965737E+00  0.94243670076E-01  0.10063040970E+01  0.90007758127E+02  0.90000019734E+02 0.  0.
         12    1    1    2    0    0  0.60945965737E+00 -0.94243670076E-01 -0.10063040970E+01  0.11802418731E+01  0.00000000000E+00 0. -1.
         11    1    3    3    0    0  0.25285838935E+02  0.25331804261E+02 -0.68576503535E+00  0.35798662429E+02  0.51100000000E-03 0. -1.
        -11    1    3    3    0    0 -0.66332166750E+01  0.42610290391E+01  0.14678069438E+02  0.16661382134E+02  0.51100000000E-03 0.  1.
        -12    1    3    3    0    0 -0.19262081917E+02 -0.29498589630E+02 -0.12986000306E+02  0.37547713564E+02  0.00000000000E+00 0.  1.
</event>
<event>
 7    1  0.2084210E-015  0.9000756E+02  0.7816164E-02  0.1186339E+00
        -11   -1    0    0    0    0  0.00000000000E+00  0.00000000000E+00  0.45593999997E+02  0.45594000000E+02  0.51100000000E-03 0.  1.
         11   -1    0    0    0    0 -0.00000000000E+00 -0.00000000000E+00 -0.45593999997E+02  0.45594000000E+02  0.51100000000E-03 0. -1.
    9900012    2    1    2    0    0  0.68279357190E-01  0.36174887040E+00  0.11215628730E+01  0.90007564659E+02  0.89999823712E+02 0.  0.
         12    1    1    2    0    0 -0.68279357190E-01 -0.36174887040E+00 -0.11215628730E+01  0.11804353408E+01  0.00000000000E+00 0. -1.
         11    1    3    3    0    0 -0.16196060370E+02  0.65626820850E+01 -0.36142827106E+02  0.40145798275E+02  0.51100000000E-03 0. -1.
        -11    1    3    3    0    0 -0.26482229318E+01 -0.50344365228E+01 -0.21881349516E+01  0.60947986535E+01  0.51100000000E-03 0.  1.
        -12    1    3    3    0    0  0.18912562659E+02 -0.11664966917E+01  0.39452524931E+02  0.43766967730E+02  0.00000000000E+00 0.  1.
</event>
<event>
 7    1  0.2084210E-015  0.9000773E+02  0.7816164E-02  0.1186339E+00
        -11   -1    0    0    0    0  0.00000000000E+00  0.00000000000E+00  0.45593999997E+02  0.45594000000E+02  0.51100000000E-03 0. -1.
         11   -1    0    0    0    0 -0.00000000000E+00 -0.00000000000E+00 -0.45593999997E+02  0.45594000000E+02  0.51100000000E-03 0.  1.
    9900012    2    1    2    0    0  0.11099121570E+01 -0.79354353543E-01 -0.39347658159E+00  0.90007734805E+02  0.89999996105E+02 0.  0.
         12    1    1    2    0    0 -0.11099121570E+01  0.79354353543E-01  0.39347658159E+00  0.11802651948E+01  0.00000000000E+00 0. -1.
         11    1    3    3    0    0  0.13670520494E+02 -0.61557209723E+01 -0.11743988369E+01  0.15038458835E+02  0.51100000000E-03 0. -1.
        -11    1    3    3    0    0  0.25853287937E+02 -0.74520843925E+01 -0.15566432224E+02  0.31084399165E+02  0.51100000000E-03 0.  1.
         12    1    3    3    0    0 -0.38413896274E+02  0.13528451011E+02  0.16347354480E+02  0.43884876805E+02  0.00000000000E+00 0. -1.
</event>
<event>
 7    1  0.2084210E-015  0.9000775E+02  0.7816164E-02  0.1186339E+00
        -11   -1    0    0    0    0  0.00000000000E+00  0.00000000000E+00  0.45593999997E+02  0.45594000000E+02  0.51100000000E-03 0. -1.
         11   -1    0    0    0    0 -0.00000000000E+00 -0.00000000000E+00 -0.45593999997E+02  0.45594000000E+02  0.51100000000E-03 0.  1.
    9900012    2    1    2    0    0  0.92057843425E+00 -0.25518147938E+00  0.69311639578E+00  0.90007748934E+02  0.90000010420E+02 0.  0.
         12    1    1    2    0    0 -0.92057843425E+00  0.25518147938E+00 -0.69311639578E+00  0.11802510661E+01  0.00000000000E+00 0. -1.
         11    1    3    3    0    0  0.21929742802E+02 -0.26566002529E+02  0.10223502449E+02  0.35933078248E+02  0.51100000000E-03 0. -1.
        -11    1    3    3    0    0 -0.71324661720E+01  0.49939247901E+00  0.14506379600E+02  0.16172708985E+02  0.51100000000E-03 0.  1.
        -12    1    3    3    0    0 -0.13876698196E+02  0.25811428571E+02 -0.24036765654E+02  0.37901961701E+02  0.00000000000E+00 0.  1.
</event>
<event>
 7    1  0.2084210E-015  0.9000777E+02  0.7816164E-02  0.1186339E+00
        -11   -1    0    0    0    0  0.00000000000E+00  0.00000000000E+00  0.45593999997E+02  0.45594000000E+02  0.51100000000E-03 0. -1.
         11   -1    0    0    0    0 -0.00000000000E+00 -0.00000000000E+00 -0.45593999997E+02  0.45594000000E+02  0.51100000000E-03 0.  1.
    9900012    2    1    2    0    0 -0.32895313741E+00 -0.46830411516E+00  0.10321958260E+01  0.90007768186E+02  0.90000029926E+02 0.  0.
         12    1    1    2    0    0  0.32895313741E+00  0.46830411516E+00 -0.10321958260E+01  0.11802318137E+01  0.00000000000E+00 0. -1.
         11    1    3    3    0    0  0.16963059529E+02  0.29461685653E+02  0.17179676205E+02  0.38090387040E+02  0.51100000000E-03 0. -1.
        -11    1    3    3    0    0  0.13298412914E+00  0.65509151625E+01 -0.85647313246E+01  0.10783635619E+02  0.51100000000E-03 0.  1.
        -12    1    3    3    0    0 -0.17424996795E+02 -0.36480904931E+02 -0.75827490540E+01  0.41133745527E+02  0.00000000000E+00 0.  1.
</event>
<event>
 7    1  0.2682006E-015  0.9000756E+02  0.7816164E-02  0.1186339E+00
        -11   -1    0    0    0    0  0.00000000000E+00  0.00000000000E+00  0.45593999997E+02  0.45594000000E+02  0.51100000000E-03 0.  1.
         11   -1    0    0    0    0 -0.00000000000E+00 -0.00000000000E+00 -0.45593999997E+02  0.45594000000E+02  0.51100000000E-03 0. -1.
    9900012    2    1    2    0    0  0.86509596479E-01 -0.11521734682E+01  0.24177074463E+00  0.90007559106E+02  0.89999818086E+02 0.  0.
         12    1    1    2    0    0 -0.86509596479E-01  0.11521734682E+01 -0.24177074463E+00  0.11804408940E+01  0.00000000000E+00 0. -1.
         11    1    3    3    0    0  0.16102307430E+02  0.26134391817E+02 -0.25326031771E+02  0.39795711148E+02  0.51100000000E-03 0. -1.
        -11    1    3    3    0    0 -0.29443404417E-01 -0.73512481629E+01 -0.60769622421E+01  0.95378816736E+01  0.51100000000E-03 0.  1.
        -12    1    3    3    0    0 -0.15986354430E+02 -0.19935317122E+02  0.31644764758E+02  0.40673966284E+02  0.00000000000E+00 0.  1.
</event>
<event>
 7    1  0.2084210E-015  0.9000755E+02  0.7816164E-02  0.1186339E+00
        -11   -1    0    0    0    0  0.00000000000E+00  0.00000000000E+00  0.45593999997E+02  0.45594000000E+02  0.51100000000E-03 0.  1.
         11   -1    0    0    0    0 -0.00000000000E+00 -0.00000000000E+00 -0.45593999997E+02  0.45594000000E+02  0.51100000000E-03 0. -1.
    9900012    2    1    2    0    0  0.61198413206E+00  0.45190129270E+00  0.90261805816E+00  0.90007551477E+02  0.89999810356E+02 0.  0.
         12    1    1    2    0    0 -0.61198413206E+00 -0.45190129270E+00 -0.90261805816E+00  0.11804485229E+01  0.00000000000E+00 0. -1.
         11    1    3    3    0    0 -0.60868451662E+01  0.40314568619E+01  0.10842561828E+02  0.13071475654E+02  0.51100000000E-03 0. -1.
        -11    1    3    3    0    0 -0.29230113725E+02  0.17020578292E+02 -0.10814204301E+02  0.35511218632E+02  0.51100000000E-03 0.  1.
         12    1    3    3    0    0  0.35928943023E+02 -0.20600133861E+02  0.87426053101E+00  0.41424857192E+02  0.00000000000E+00 0. -1.
</event>
<event>
 7    1  0.2084210E-015  0.9000775E+02  0.7816164E-02  0.1186339E+00
        -11   -1    0    0    0    0  0.00000000000E+00  0.00000000000E+00  0.45593999997E+02  0.45594000000E+02  0.51100000000E-03 0.  1.
         11   -1    0    0    0    0 -0.00000000000E+00 -0.00000000000E+00 -0.45593999997E+02  0.45594000000E+02  0.51100000000E-03 0. -1.
    9900012    2    1    2    0    0  0.10137334649E+01  0.47533245727E+00  0.37335365369E+00  0.90007750266E+02  0.90000011770E+02 0.  0.
         12    1    1    2    0    0 -0.10137334649E+01 -0.47533245727E+00 -0.37335365369E+00  0.11802497336E+01  0.00000000000E+00 0. -1.
         11    1    3    3    0    0 -0.24365011862E+02 -0.31314971211E+02  0.18703424006E+02  0.43864556248E+02  0.51100000000E-03 0. -1.
        -11    1    3    3    0    0  0.19719591918E+01  0.93484338151E+01 -0.17134790703E+01  0.97065878987E+01  0.51100000000E-03 0.  1.
        -12    1    3    3    0    0  0.23406786135E+02  0.22441869854E+02 -0.16616591282E+02  0.36436606120E+02  0.00000000000E+00 0.  1.
</event>
<event>
 7    1  0.2084210E-015  0.9000777E+02  0.7816164E-02  0.1186339E+00
        -11   -1    0    0    0    0  0.00000000000E+00  0.00000000000E+00  0.45593999997E+02  0.45594000000E+02  0.51100000000E-03 0. -1.
         11   -1    0    0    0    0 -0.00000000000E+00 -0.00000000000E+00 -0.45593999997E+02  0.45594000000E+02  0.51100000000E-03 0.  1.
    9900012    2    1    2    0    0  0.71575769898E+00 -0.78118513487E+00 -0.51998484440E+00  0.90007769710E+02  0.90000031470E+02 0.  0.
         12    1    1    2    0    0 -0.71575769898E+00  0.78118513487E+00  0.51998484440E+00  0.11802302898E+01  0.00000000000E+00 0. -1.
         11    1    3    3    0    0 -0.87682778490E+01  0.47605172794E+01 -0.89665098368E+00  0.10017445006E+02  0.51100000000E-03 0. -1.
        -11    1    3    3    0    0 -0.30816762675E+02  0.55071087673E+01  0.16271908628E+02  0.35281384885E+02  0.51100000000E-03 0.  1.
         12    1    3    3    0    0  0.40300798223E+02 -0.11048811181E+02 -0.15895242489E+02  0.44708939819E+02  0.00000000000E+00 0. -1.
</event>
<event>
 7    1  0.2084210E-015  0.9000777E+02  0.7816164E-02  0.1186339E+00
        -11   -1    0    0    0    0  0.00000000000E+00  0.00000000000E+00  0.45593999997E+02  0.45594000000E+02  0.51100000000E-03 0.  1.
         11   -1    0    0    0    0 -0.00000000000E+00 -0.00000000000E+00 -0.45593999997E+02  0.45594000000E+02  0.51100000000E-03 0. -1.
    9900012    2    1    2    0    0  0.11755816186E+00 -0.10141215593E+01  0.59217605859E+00  0.90007773351E+02  0.90000035159E+02 0.  0.
         12    1    1    2    0    0 -0.11755816186E+00  0.10141215593E+01 -0.59217605859E+00  0.11802266489E+01  0.00000000000E+00 0. -1.
         11    1    3    3    0    0 -0.22338163155E+00 -0.91432900064E+01 -0.34722227201E+01  0.97829434412E+01  0.51100000000E-03 0. -1.
        -11    1    3    3    0    0 -0.76748418343E+01 -0.33998653606E+02  0.11497934442E+02  0.36701691254E+02  0.51100000000E-03 0.  1.
         12    1    3    3    0    0  0.80157816277E+01  0.42127822053E+02 -0.74335356633E+01  0.43523138656E+02  0.00000000000E+00 0. -1.
</event>
<event>
 7    1  0.2084210E-015  0.9000771E+02  0.7816164E-02  0.1186339E+00
        -11   -1    0    0    0    0  0.00000000000E+00  0.00000000000E+00  0.45593999997E+02  0.45594000000E+02  0.51100000000E-03 0. -1.
         11   -1    0    0    0    0 -0.00000000000E+00 -0.00000000000E+00 -0.45593999997E+02  0.45594000000E+02  0.51100000000E-03 0.  1.
    9900012    2    1    2    0    0 -0.64376769121E+00 -0.54958961667E-01 -0.98773820431E+00  0.90007710168E+02  0.89999971142E+02 0.  0.
         12    1    1    2    0    0  0.64376769121E+00  0.54958961667E-01  0.98773820431E+00  0.11802898322E+01  0.00000000000E+00 0. -1.
         11    1    3    3    0    0  0.82296320149E+01  0.30050468901E+02  0.27121576698E+02  0.41307837599E+02  0.51100000000E-03 0. -1.
        -11    1    3    3    0    0 -0.98323584846E+00  0.37271269066E+01 -0.71603371158E+01  0.81319527535E+01  0.51100000000E-03 0.  1.
        -12    1    3    3    0    0 -0.78901638576E+01 -0.33832554769E+02 -0.20948977786E+02  0.40567919816E+02  0.00000000000E+00 0.  1.
</event>
<event>
 7    1  0.2084210E-015  0.9000771E+02  0.7816164E-02  0.1186339E+00
        -11   -1    0    0    0    0  0.00000000000E+00  0.00000000000E+00  0.45593999997E+02  0.45594000000E+02  0.51100000000E-03 0. -1.
         11   -1    0    0    0    0 -0.00000000000E+00 -0.00000000000E+00 -0.45593999997E+02  0.45594000000E+02  0.51100000000E-03 0.  1.
    9900012    2    1    2    0    0  0.25823414276E+00 -0.82833718081E+00 -0.80015792756E+00  0.90007711871E+02  0.89999972868E+02 0.  0.
         12    1    1    2    0    0 -0.25823414276E+00  0.82833718081E+00  0.80015792756E+00  0.11802881287E+01  0.00000000000E+00 0. -1.
         11    1    3    3    0    0 -0.65672763913E+01  0.60740238944E+01  0.97276168241E+00  0.89982860046E+01  0.51100000000E-03 0. -1.
        -11    1    3    3    0    0  0.42122731707E+02 -0.79858358955E+01 -0.11484397284E+02  0.44384563562E+02  0.51100000000E-03 0.  1.
         12    1    3    3    0    0 -0.35297221173E+02  0.10834748204E+01  0.97114776741E+01  0.36624862304E+02  0.00000000000E+00 0. -1.
</event>
<event>
 7    1  0.2084210E-015  0.9000782E+02  0.7816164E-02  0.1186339E+00
        -11   -1    0    0    0    0  0.00000000000E+00  0.00000000000E+00  0.45593999997E+02  0.45594000000E+02  0.51100000000E-03 0.  1.
         11   -1    0    0    0    0 -0.00000000000E+00 -0.00000000000E+00 -0.45593999997E+02  0.45594000000E+02  0.51100000000E-03 0. -1.
    9900012    2    1    2    0    0  0.34722185756E+00 -0.82988892576E+00  0.76390353763E+00  0.90007818971E+02  0.90000081381E+02 0.  0.
         12    1    1    2    0    0 -0.34722185756E+00  0.82988892576E+00 -0.76390353763E+00  0.11801810294E+01  0.00000000000E+00 0. -1.
         11    1    3    3    0    0  0.41075076537E+02 -0.12563100030E+02 -0.48688359156E+01  0.43228450797E+02  0.51100000000E-03 0. -1.
        -11    1    3    3    0    0 -0.65582439920E+01 -0.33896774157E+01 -0.37103468844E+01  0.82623938120E+01  0.51100000000E-03 0.  1.
        -12    1    3    3    0    0 -0.34169610687E+02  0.15122888520E+02  0.93430863376E+01  0.38516974362E+02  0.00000000000E+00 0.  1.
</event>
<event>
 7    1  0.2084210E-015  0.9000774E+02  0.7816164E-02  0.1186339E+00
        -11   -1    0    0    0    0  0.00000000000E+00  0.00000000000E+00  0.45593999997E+02  0.45594000000E+02  0.51100000000E-03 0.  1.
         11   -1    0    0    0    0 -0.00000000000E+00 -0.00000000000E+00 -0.45593999997E+02  0.45594000000E+02  0.51100000000E-03 0. -1.
    9900012    2    1    2    0    0  0.23810499723E+00 -0.11201396435E+01  0.28567379982E+00  0.90007738872E+02  0.90000000225E+02 0.  0.
         12    1    1    2    0    0 -0.23810499723E+00  0.11201396435E+01 -0.28567379982E+00  0.11802611282E+01  0.00000000000E+00 0. -1.
         11    1    3    3    0    0  0.24215832446E+02 -0.39486863613E+01 -0.27218613027E+02  0.36644939083E+02  0.51100000000E-03 0. -1.
        -11    1    3    3    0    0  0.73206297602E+00  0.37187756131E+01 -0.87178489507E+01  0.95061085019E+01  0.51100000000E-03 0.  1.
        -12    1    3    3    0    0 -0.24709790425E+02 -0.89022889534E+00  0.36222135778E+02  0.43856691287E+02  0.00000000000E+00 0.  1.
</event>
<event>
 7    1  0.2084210E-015  0.9000793E+02  0.7816164E-02  0.1186339E+00
        -11   -1    0    0    0    0  0.00000000000E+00  0.00000000000E+00  0.45593999997E+02  0.45594000000E+02  0.51100000000E-03 0. -1.
         11   -1    0    0    0    0 -0.00000000000E+00 -0.00000000000E+00 -0.45593999997E+02  0.45594000000E+02  0.51100000000E-03 0.  1.
    9900012    2    1    2    0    0  0.92420398115E+00 -0.53359276720E+00 -0.50367324969E+00  0.90007931789E+02  0.90000195688E+02 0.  0.
         12    1    1    2    0    0 -0.92420398115E+00  0.53359276720E+00  0.50367324969E+00  0.11800682109E+01  0.00000000000E+00 0. -1.
         11    1    3    3    0    0  0.60469163210E+01  0.12547521322E+01  0.35915395184E+02  0.36442491839E+02  0.51100000000E-03 0. -1.
        -11    1    3    3    0    0 -0.11810491671E+02 -0.14263371583E+01  0.40340164537E+01  0.12561665503E+02  0.51100000000E-03 0.  1.
        -12    1    3    3    0    0  0.66877793313E+01 -0.36200774107E+00 -0.40453084888E+02  0.41003774447E+02  0.00000000000E+00 0.  1.
</event>
<event>
 7    1  0.2084210E-015  0.9000767E+02  0.7816164E-02  0.1186339E+00
        -11   -1    0    0    0    0  0.00000000000E+00  0.00000000000E+00  0.45593999997E+02  0.45594000000E+02  0.51100000000E-03 0. -1.
         11   -1    0    0    0    0 -0.00000000000E+00 -0.00000000000E+00 -0.45593999997E+02  0.45594000000E+02  0.51100000000E-03 0.  1.
    9900012    2    1    2    0    0  0.92738459294E+00 -0.28919893111E+00 -0.67043966721E+00  0.90007674811E+02  0.89999935318E+02 0.  0.
         12    1    1    2    0    0 -0.92738459294E+00  0.28919893111E+00  0.67043966721E+00  0.11803251892E+01  0.00000000000E+00 0. -1.
         11    1    3    3    0    0 -0.29523431606E+02 -0.22532429451E+02 -0.14032466302E+01  0.37166012594E+02  0.51100000000E-03 0. -1.
        -11    1    3    3    0    0 -0.85154306575E+00 -0.81028714690E+01 -0.38365077441E+01  0.90055784694E+01  0.51100000000E-03 0.  1.
        -12    1    3    3    0    0  0.31302359264E+02  0.30346101989E+02  0.45693147071E+01  0.43836083748E+02  0.00000000000E+00 0.  1.
</event>
<event>
 7    1  0.2084210E-015  0.9000770E+02  0.7816164E-02  0.1186339E+00
        -11   -1    0    0    0    0  0.00000000000E+00  0.00000000000E+00  0.45593999997E+02  0.45594000000E+02  0.51100000000E-03 0.  1.
         11   -1    0    0    0    0 -0.00000000000E+00 -0.00000000000E+00 -0.45593999997E+02  0.45594000000E+02  0.51100000000E-03 0. -1.
    9900012    2    1    2    0    0 -0.64978156065E+00 -0.18363598168E+00  0.96807283275E+00  0.90007702046E+02  0.89999962913E+02 0.  0.
         12    1    1    2    0    0  0.64978156065E+00  0.18363598168E+00 -0.96807283275E+00  0.11802979538E+01  0.00000000000E+00 0. -1.
         11    1    3    3    0    0 -0.13147658772E+02 -0.11216713982E+02 -0.35599488716E+02  0.39572707778E+02  0.51100000000E-03 0. -1.
        -11    1    3    3    0    0 -0.55234133438E+01 -0.61790943271E+01  0.34226890920E+01  0.89668334740E+01  0.51100000000E-03 0.  1.
        -12    1    3    3    0    0  0.18021290555E+02  0.17212172328E+02  0.33144872457E+02  0.41468160795E+02  0.00000000000E+00 0.  1.
</event>
<event>
 7    1  0.2084210E-015  0.9000771E+02  0.7816164E-02  0.1186339E+00
        -11   -1    0    0    0    0  0.00000000000E+00  0.00000000000E+00  0.45593999997E+02  0.45594000000E+02  0.51100000000E-03 0.  1.
         11   -1    0    0    0    0 -0.00000000000E+00 -0.00000000000E+00 -0.45593999997E+02  0.45594000000E+02  0.51100000000E-03 0. -1.
    9900012    2    1    2    0    0 -0.65449613501E+00 -0.98153308888E+00 -0.36261610944E-01  0.90007708807E+02  0.89999969763E+02 0.  0.
         12    1    1    2    0    0  0.65449613501E+00  0.98153308888E+00  0.36261610944E-01  0.11802911928E+01  0.00000000000E+00 0. -1.
         11    1    3    3    0    0  0.22678821570E+01 -0.33384213368E+02 -0.20210292593E+02  0.39090982575E+02  0.51100000000E-03 0. -1.
        -11    1    3    3    0    0  0.57241112999E+01 -0.53023732047E+01  0.14360589705E+01  0.79336547318E+01  0.51100000000E-03 0.  1.
        -12    1    3    3    0    0 -0.86464895919E+01  0.37705053484E+02  0.18737972012E+02  0.42983071501E+02  0.00000000000E+00 0.  1.
</event>
<event>
 7    1  0.2084210E-015  0.9000770E+02  0.7816164E-02  0.1186339E+00
        -11   -1    0    0    0    0  0.00000000000E+00  0.00000000000E+00  0.45593999997E+02  0.45594000000E+02  0.51100000000E-03 0. -1.
         11   -1    0    0    0    0 -0.00000000000E+00 -0.00000000000E+00 -0.45593999997E+02  0.45594000000E+02  0.51100000000E-03 0.  1.
    9900012    2    1    2    0    0 -0.54863664484E-01 -0.80363559704E+00 -0.86271175312E+00  0.90007698444E+02  0.89999959263E+02 0.  0.
         12    1    1    2    0    0  0.54863664484E-01  0.80363559704E+00  0.86271175312E+00  0.11803015562E+01  0.00000000000E+00 0. -1.
         11    1    3    3    0    0 -0.10309828952E+02 -0.36332376445E+02  0.19175619069E+02  0.42356091866E+02  0.51100000000E-03 0. -1.
        -11    1    3    3    0    0 -0.93287162586E+00  0.74089228635E+01  0.44749299409E+01  0.87055950805E+01  0.51100000000E-03 0.  1.
        -12    1    3    3    0    0  0.11187836914E+02  0.28119817985E+02 -0.24513260763E+02  0.38946011497E+02  0.00000000000E+00 0.  1.
</event>
<event>
 7    1  0.2084210E-015  0.9000774E+02  0.7816164E-02  0.1186339E+00
        -11   -1    0    0    0    0  0.00000000000E+00  0.00000000000E+00  0.45593999997E+02  0.45594000000E+02  0.51100000000E-03 0. -1.
         11   -1    0    0    0    0 -0.00000000000E+00 -0.00000000000E+00 -0.45593999997E+02  0.45594000000E+02  0.51100000000E-03 0.  1.
    9900012    2    1    2    0    0  0.35395291199E+00 -0.11193472545E+01  0.12161905970E+00  0.90007740649E+02  0.90000002025E+02 0.  0.
         12    1    1    2    0    0 -0.35395291199E+00  0.11193472545E+01 -0.12161905970E+00  0.11802593511E+01  0.00000000000E+00 0. -1.
         11    1    3    3    0    0 -0.11773365524E+01  0.17499571863E+01  0.90905388993E+01  0.93320077825E+01  0.51100000000E-03 0. -1.
        -11    1    3    3    0    0  0.71495839583E+01  0.37501290706E+02  0.27188865936E+01  0.38273433344E+02  0.51100000000E-03 0.  1.
         12    1    3    3    0    0 -0.56182944938E+01 -0.40370595147E+02 -0.11687806433E+02  0.42402299522E+02  0.00000000000E+00 0. -1.
</event>
<event>
 7    1  0.2084210E-015  0.9000779E+02  0.7816164E-02  0.1186339E+00
        -11   -1    0    0    0    0  0.00000000000E+00  0.00000000000E+00  0.45593999997E+02  0.45594000000E+02  0.51100000000E-03 0. -1.
         11   -1    0    0    0    0 -0.00000000000E+00 -0.00000000000E+00 -0.45593999997E+02  0.45594000000E+02  0.51100000000E-03 0.  1.
    9900012    2    1    2    0    0  0.19659882412E+00 -0.70743081490E-02 -0.11636986972E+01  0.90007789933E+02  0.90000051960E+02 0.  0.
         12    1    1    2    0    0 -0.19659882412E+00  0.70743081490E-02  0.11636986972E+01  0.11802100667E+01  0.00000000000E+00 0. -1.
         11    1    3    3    0    0  0.20558317191E+02  0.25306570482E+02  0.28123605815E+02  0.43058148121E+02  0.51100000000E-03 0. -1.
        -11    1    3    3    0    0  0.32306281757E+00 -0.38992367798E+01  0.14352075672E+01  0.41675218141E+01  0.51100000000E-03 0.  1.
        -12    1    3    3    0    0 -0.20684781185E+02 -0.21414408010E+02 -0.30722512079E+02  0.42782119998E+02  0.00000000000E+00 0.  1.
</event>
<event>
 7    1  0.2084210E-015  0.9000773E+02  0.7816164E-02  0.1186339E+00
        -11   -1    0    0    0    0  0.00000000000E+00  0.00000000000E+00  0.45593999997E+02  0.45594000000E+02  0.51100000000E-03 0.  1.
         11   -1    0    0    0    0 -0.00000000000E+00 -0.00000000000E+00 -0.45593999997E+02  0.45594000000E+02  0.51100000000E-03 0. -1.
    9900012    2    1    2    0    0  0.64815156338E+00 -0.17386470697E+00  0.97093057647E+00  0.90007730722E+02  0.89999991967E+02 0.  0.
         12    1    1    2    0    0 -0.64815156338E+00  0.17386470697E+00 -0.97093057647E+00  0.11802692785E+01  0.00000000000E+00 0. -1.
         11    1    3    3    0    0 -0.85218861891E+01  0.61964957813E+00 -0.50135543772E+01  0.99066764141E+01  0.51100000000E-03 0. -1.
        -11    1    3    3    0    0 -0.91246905416E+01  0.15191485775E+02  0.36809488758E+02  0.40853147742E+02  0.51100000000E-03 0.  1.
         12    1    3    3    0    0  0.18294728294E+02 -0.15985000060E+02 -0.30825003804E+02  0.39247906566E+02  0.00000000000E+00 0. -1.
</event>
<event>
 7    1  0.2084210E-015  0.9000782E+02  0.7816164E-02  0.1186339E+00
        -11   -1    0    0    0    0  0.00000000000E+00  0.00000000000E+00  0.45593999997E+02  0.45594000000E+02  0.51100000000E-03 0.  1.
         11   -1    0    0    0    0 -0.00000000000E+00 -0.00000000000E+00 -0.45593999997E+02  0.45594000000E+02  0.51100000000E-03 0. -1.
    9900012    2    1    2    0    0 -0.12677979709E+00 -0.82645322597E+00  0.83290862716E+00  0.90007815763E+02  0.90000078131E+02 0.  0.
         12    1    1    2    0    0  0.12677979709E+00  0.82645322597E+00 -0.83290862716E+00  0.11801842368E+01  0.00000000000E+00 0. -1.
         11    1    3    3    0    0 -0.19217049979E+01 -0.82247539677E+01 -0.56821420607E+01  0.10179698747E+02  0.51100000000E-03 0. -1.
        -11    1    3    3    0    0 -0.22751155021E+02 -0.28163310930E+02  0.53839147849E+01  0.36602918955E+02  0.51100000000E-03 0.  1.
         12    1    3    3    0    0  0.24546080222E+02  0.35561611672E+02  0.11311359030E+01  0.43225198061E+02  0.00000000000E+00 0. -1.
</event>
<event>
 7    1  0.2084210E-015  0.9000785E+02  0.7816164E-02  0.1186339E+00
        -11   -1    0    0    0    0  0.00000000000E+00  0.00000000000E+00  0.45593999997E+02  0.45594000000E+02  0.51100000000E-03 0. -1.
         11   -1    0    0    0    0 -0.00000000000E+00 -0.00000000000E+00 -0.45593999997E+02  0.45594000000E+02  0.51100000000E-03 0.  1.
    9900012    2    1    2    0    0  0.10874887765E+01 -0.44773355331E+00 -0.98241504075E-01  0.90007852311E+02  0.90000115162E+02 0.  0.
         12    1    1    2    0    0 -0.10874887765E+01  0.44773355331E+00  0.98241504075E-01  0.11801476886E+01  0.00000000000E+00 0. -1.
         11    1    3    3    0    0  0.37884502114E+02  0.11789074427E+02  0.97066923860E+01  0.40846513359E+02  0.51100000000E-03 0. -1.
        -11    1    3    3    0    0 -0.28124846336E+01  0.75011279046E+01 -0.52950918435E+01  0.96028635077E+01  0.51100000000E-03 0.  1.
        -12    1    3    3    0    0 -0.33984528704E+02 -0.19737935885E+02 -0.45098420466E+01  0.39558475445E+02  0.00000000000E+00 0.  1.
</event>
<event>
 7    1  0.2084210E-015  0.9000778E+02  0.7816164E-02  0.1186339E+00
        -11   -1    0    0    0    0  0.00000000000E+00  0.00000000000E+00  0.45593999997E+02  0.45594000000E+02  0.51100000000E-03 0.  1.
         11   -1    0    0    0    0 -0.00000000000E+00 -0.00000000000E+00 -0.45593999997E+02  0.45594000000E+02  0.51100000000E-03 0. -1.
    9900012    2    1    2    0    0  0.37524686162E+00  0.71690847612E+00  0.85915818881E+00  0.90007779358E+02  0.90000041246E+02 0.  0.
         12    1    1    2    0    0 -0.37524686162E+00 -0.71690847612E+00 -0.85915818881E+00  0.11802206420E+01  0.00000000000E+00 0. -1.
         11    1    3    3    0    0 -0.17232325336E+02  0.34526124187E+02  0.62198830841E+01  0.39085716492E+02  0.51100000000E-03 0. -1.
        -11    1    3    3    0    0 -0.19511541554E+01 -0.94298957373E+00  0.96095588514E+01  0.98508808466E+01  0.51100000000E-03 0.  1.
        -12    1    3    3    0    0  0.19558726353E+02 -0.32866226137E+02 -0.14970283747E+02  0.41071182020E+02  0.00000000000E+00 0.  1.
</event>
<event>
 7    1  0.2084210E-015  0.9000769E+02  0.7816164E-02  0.1186339E+00
        -11   -1    0    0    0    0  0.00000000000E+00  0.00000000000E+00  0.45593999997E+02  0.45594000000E+02  0.51100000000E-03 0.  1.
         11   -1    0    0    0    0 -0.00000000000E+00 -0.00000000000E+00 -0.45593999997E+02  0.45594000000E+02  0.51100000000E-03 0. -1.
    9900012    2    1    2    0    0 -0.46082341446E+00  0.31348504805E+00  0.10404357328E+01  0.90007687495E+02  0.89999948170E+02 0.  0.
         12    1    1    2    0    0  0.46082341446E+00 -0.31348504805E+00 -0.10404357328E+01  0.11803125047E+01  0.00000000000E+00 0. -1.
         11    1    3    3    0    0 -0.69716536567E+01  0.11665123477E+02 -0.32512036593E+02  0.35237928204E+02  0.51100000000E-03 0. -1.
        -11    1    3    3    0    0 -0.98366076088E+01 -0.10072780822E+01 -0.54083261844E+01  0.11270468081E+02  0.51100000000E-03 0.  1.
        -12    1    3    3    0    0  0.16347437851E+02 -0.10344360347E+02  0.38960798510E+02  0.43499291210E+02  0.00000000000E+00 0.  1.
</event>
<event>
 7    1  0.2084210E-015  0.9000764E+02  0.7816164E-02  0.1186339E+00
        -11   -1    0    0    0    0  0.00000000000E+00  0.00000000000E+00  0.45593999997E+02  0.45594000000E+02  0.51100000000E-03 0.  1.
         11   -1    0    0    0    0 -0.00000000000E+00 -0.00000000000E+00 -0.45593999997E+02  0.45594000000E+02  0.51100000000E-03 0. -1.
    9900012    2    1    2    0    0  0.77670249146E+00 -0.55843656942E+00  0.69146379940E+00  0.90007643974E+02  0.89999904074E+02 0.  0.
         12    1    1    2    0    0 -0.77670249146E+00  0.55843656942E+00 -0.69146379940E+00  0.11803560260E+01  0.00000000000E+00 0. -1.
         11    1    3    3    0    0  0.15092881644E+01  0.45019693211E+01  0.84660466338E+01  0.97066793703E+01  0.51100000000E-03 0. -1.
        -11    1    3    3    0    0 -0.22994616449E+02 -0.79182286264E+01  0.28610466484E+02  0.37550093514E+02  0.51100000000E-03 0.  1.
         12    1    3    3    0    0  0.22262030776E+02  0.28578227359E+01 -0.36385049318E+02  0.42750871090E+02  0.00000000000E+00 0. -1.
</event>
<event>
 7    1  0.2084210E-015  0.9000761E+02  0.7816164E-02  0.1186339E+00
        -11   -1    0    0    0    0  0.00000000000E+00  0.00000000000E+00  0.45593999997E+02  0.45594000000E+02  0.51100000000E-03 0. -1.
         11   -1    0    0    0    0 -0.00000000000E+00 -0.00000000000E+00 -0.45593999997E+02  0.45594000000E+02  0.51100000000E-03 0.  1.
    9900012    2    1    2    0    0 -0.55773769014E-01 -0.63931513446E+00 -0.99069672865E+00  0.90007612537E+02  0.89999872222E+02 0.  0.
         12    1    1    2    0    0  0.55773769014E-01  0.63931513446E+00  0.99069672865E+00  0.11803874629E+01  0.00000000000E+00 0. -1.
         11    1    3    3    0    0  0.20184063569E+02 -0.19387469241E+02 -0.25288670395E+02  0.37719852019E+02  0.51100000000E-03 0. -1.
        -11    1    3    3    0    0  0.90420983328E+01  0.24979510673E+01 -0.21388513447E+01  0.96215376697E+01  0.51100000000E-03 0.  1.
        -12    1    3    3    0    0 -0.29281935671E+02  0.16250203039E+02  0.26436825011E+02  0.42666222848E+02  0.00000000000E+00 0.  1.
</event>
<event>
 7    1  0.2084210E-015  0.9000772E+02  0.7816164E-02  0.1186339E+00
        -11   -1    0    0    0    0  0.00000000000E+00  0.00000000000E+00  0.45593999997E+02  0.45594000000E+02  0.51100000000E-03 0.  1.
         11   -1    0    0    0    0 -0.00000000000E+00 -0.00000000000E+00 -0.45593999997E+02  0.45594000000E+02  0.51100000000E-03 0. -1.
    9900012    2    1    2    0    0  0.87485783364E+00  0.58257413189E+00  0.53692143311E+00  0.90007723137E+02  0.89999984282E+02 0.  0.
         12    1    1    2    0    0 -0.87485783364E+00 -0.58257413189E+00 -0.53692143311E+00  0.11802768631E+01  0.00000000000E+00 0. -1.
         11    1    3    3    0    0 -0.31800945203E+01  0.33523983020E+02  0.20093895234E+02  0.39213965173E+02  0.51100000000E-03 0. -1.
        -11    1    3    3    0    0  0.67465477082E+01  0.52708005142E+01 -0.31786188839E+01  0.91324072571E+01  0.51100000000E-03 0.  1.
        -12    1    3    3    0    0 -0.26915953543E+01 -0.38212209402E+02 -0.16378354917E+02  0.41661350707E+02  0.00000000000E+00 0.  1.
</event>
<event>
 7    1  0.2084210E-015  0.9000773E+02  0.7816164E-02  0.1186339E+00
        -11   -1    0    0    0    0  0.00000000000E+00  0.00000000000E+00  0.45593999997E+02  0.45594000000E+02  0.51100000000E-03 0. -1.
         11   -1    0    0    0    0 -0.00000000000E+00 -0.00000000000E+00 -0.45593999997E+02  0.45594000000E+02  0.51100000000E-03 0.  1.
    9900012    2    1    2    0    0 -0.74949957424E+00  0.91172646752E+00 -0.61003377826E-02  0.90007732243E+02  0.89999993509E+02 0.  0.
         12    1    1    2    0    0  0.74949957424E+00 -0.91172646752E+00  0.61003377826E-02  0.11802677567E+01  0.00000000000E+00 0. -1.
         11    1    3    3    0    0 -0.34261433000E+01 -0.59560729825E+01  0.60840393477E+01  0.91776248742E+01  0.51100000000E-03 0. -1.
        -11    1    3    3    0    0 -0.27334761173E+02  0.11870287000E+02 -0.29885443943E+02  0.42204651897E+02  0.51100000000E-03 0.  1.
         12    1    3    3    0    0  0.30011404899E+02 -0.50024875499E+01  0.23795304257E+02  0.38625455472E+02  0.00000000000E+00 0. -1.
</event>
<event>
 7    1  0.2084210E-015  0.9000782E+02  0.7816164E-02  0.1186339E+00
        -11   -1    0    0    0    0  0.00000000000E+00  0.00000000000E+00  0.45593999997E+02  0.45594000000E+02  0.51100000000E-03 0.  1.
         11   -1    0    0    0    0 -0.00000000000E+00 -0.00000000000E+00 -0.45593999997E+02  0.45594000000E+02  0.51100000000E-03 0. -1.
    9900012    2    1    2    0    0  0.65316376749E+00 -0.57483209708E+00  0.79734916183E+00  0.90007821822E+02  0.90000084270E+02 0.  0.
         12    1    1    2    0    0 -0.65316376749E+00  0.57483209708E+00 -0.79734916183E+00  0.11801781784E+01  0.00000000000E+00 0. -1.
         11    1    3    3    0    0 -0.16779104984E+02 -0.79273894658E+01 -0.25290042198E+02  0.31368265851E+02  0.51100000000E-03 0. -1.
        -11    1    3    3    0    0  0.10105577715E+01 -0.20301776996E+02  0.11030815522E+02  0.23127089474E+02  0.51100000000E-03 0.  1.
        -12    1    3    3    0    0  0.16421710980E+02  0.27654334365E+02  0.15056575838E+02  0.35512466497E+02  0.00000000000E+00 0.  1.
</event>
<event>
 7    1  0.2084210E-015  0.9000751E+02  0.7816164E-02  0.1186339E+00
        -11   -1    0    0    0    0  0.00000000000E+00  0.00000000000E+00  0.45593999997E+02  0.45594000000E+02  0.51100000000E-03 0.  1.
         11   -1    0    0    0    0 -0.00000000000E+00 -0.00000000000E+00 -0.45593999997E+02  0.45594000000E+02  0.51100000000E-03 0. -1.
    9900012    2    1    2    0    0  0.32420889705E-02  0.46381430895E+00  0.10855463020E+01  0.90007514931E+02  0.89999773328E+02 0.  0.
         12    1    1    2    0    0 -0.32420889705E-02 -0.46381430895E+00 -0.10855463020E+01  0.11804850690E+01  0.00000000000E+00 0. -1.
         11    1    3    3    0    0 -0.33173690946E+01  0.96272017910E+01  0.43635403593E+01  0.11078286725E+02  0.51100000000E-03 0. -1.
        -11    1    3    3    0    0 -0.22845757566E+02  0.23948301849E+02  0.10188287811E+02  0.34630203710E+02  0.51100000000E-03 0.  1.
         12    1    3    3    0    0  0.26166368750E+02 -0.33111689331E+02 -0.13466281868E+02  0.44299024496E+02  0.00000000000E+00 0. -1.
</event>
<event>
 7    1  0.2084210E-015  0.9000770E+02  0.7816164E-02  0.1186339E+00
        -11   -1    0    0    0    0  0.00000000000E+00  0.00000000000E+00  0.45593999997E+02  0.45594000000E+02  0.51100000000E-03 0. -1.
         11   -1    0    0    0    0 -0.00000000000E+00 -0.00000000000E+00 -0.45593999997E+02  0.45594000000E+02  0.51100000000E-03 0.  1.
    9900012    2    1    2    0    0 -0.89014691785E+00 -0.75459341801E+00  0.17703295262E+00  0.90007697739E+02  0.89999958549E+02 0.  0.
         12    1    1    2    0    0  0.89014691785E+00  0.75459341801E+00 -0.17703295262E+00  0.11803022614E+01  0.00000000000E+00 0. -1.
         11    1    3    3    0    0 -0.70432935580E+01 -0.35742984493E+02  0.23669132679E+02  0.43444179894E+02  0.51100000000E-03 0. -1.
        -11    1    3    3    0    0  0.45654770175E+01  0.82328148589E+01  0.19439099661E+01  0.96125754673E+01  0.51100000000E-03 0.  1.
        -12    1    3    3    0    0  0.15876696227E+01  0.26755576216E+02 -0.25436009693E+02  0.36950942377E+02  0.00000000000E+00 0.  1.
</event>
<event>
 7    1  0.2084210E-015  0.9000707E+02  0.7816164E-02  0.1186340E+00
        -11   -1    0    0    0    0  0.00000000000E+00  0.00000000000E+00  0.45593999997E+02  0.45594000000E+02  0.51100000000E-03 0.  1.
         11   -1    0    0    0    0 -0.00000000000E+00 -0.00000000000E+00 -0.45593999997E+02  0.45594000000E+02  0.51100000000E-03 0. -1.
    9900012    2    1    2    0    0 -0.77577770728E+00  0.88753146491E+00 -0.71092920866E-01  0.90007069284E+02  0.89999321796E+02 0.  0.
         12    1    1    2    0    0  0.77577770728E+00 -0.88753146491E+00  0.71092920866E-01  0.11809307159E+01  0.00000000000E+00 0. -1.
         11    1    3    3    0    0 -0.16854672829E+01 -0.27739159135E+00 -0.89868718358E+01  0.91477653944E+01  0.51100000000E-03 0. -1.
        -11    1    3    3    0    0  0.18731483789E+02  0.35355059403E+02  0.13042861722E+02  0.42082834416E+02  0.51100000000E-03 0.  1.
         12    1    3    3    0    0 -0.17821794213E+02 -0.34190136347E+02 -0.41270828070E+01  0.38776469474E+02  0.00000000000E+00 0. -1.
</event>
<event>
 7    1  0.2084210E-015  0.9000876E+02  0.7816164E-02  0.1186337E+00
        -11   -1    0    0    0    0  0.00000000000E+00  0.00000000000E+00  0.45593999997E+02  0.45594000000E+02  0.51100000000E-03 0. -1.
         11   -1    0    0    0    0 -0.00000000000E+00 -0.00000000000E+00 -0.45593999997E+02  0.45594000000E+02  0.51100000000E-03 0.  1.
    9900012    2    1    2    0    0 -0.10076711664E+01  0.61249579330E+00 -0.70735910472E-02  0.90008761978E+02  0.90001036830E+02 0.  0.
         12    1    1    2    0    0  0.10076711664E+01 -0.61249579330E+00  0.70735910472E-02  0.11792380218E+01  0.00000000000E+00 0. -1.
         11    1    3    3    0    0  0.31514396156E+02  0.16591820062E+02  0.66510176004E+01  0.36230949386E+02  0.51100000000E-03 0. -1.
        -11    1    3    3    0    0  0.61483381251E+01 -0.83274598665E+01 -0.97715255604E+01  0.14234864297E+02  0.51100000000E-03 0.  1.
        -12    1    3    3    0    0 -0.38670405447E+02 -0.76518644018E+01  0.31134343690E+01  0.39542948295E+02  0.00000000000E+00 0.  1.
</event>
<event>
 7    1  0.2084210E-015  0.9000752E+02  0.7816164E-02  0.1186339E+00
        -11   -1    0    0    0    0  0.00000000000E+00  0.00000000000E+00  0.45593999997E+02  0.45594000000E+02  0.51100000000E-03 0.  1.
         11   -1    0    0    0    0 -0.00000000000E+00 -0.00000000000E+00 -0.45593999997E+02  0.45594000000E+02  0.51100000000E-03 0. -1.
    9900012    2    1    2    0    0 -0.12946561676E+00  0.11280850789E+01 -0.32279948736E+00  0.90007518403E+02  0.89999776846E+02 0.  0.
         12    1    1    2    0    0  0.12946561676E+00 -0.11280850789E+01  0.32279948736E+00  0.11804815967E+01  0.00000000000E+00 0. -1.
         11    1    3    3    0    0  0.32875191934E+02 -0.49081413710E+01 -0.19056722715E+02  0.38314837561E+02  0.51100000000E-03 0. -1.
        -11    1    3    3    0    0 -0.72124597971E+00 -0.97765217331E+01 -0.22641952448E+01  0.10061170574E+02  0.51100000000E-03 0.  1.
        -12    1    3    3    0    0 -0.32283411571E+02  0.15812748183E+02  0.20998118472E+02  0.41631510268E+02  0.00000000000E+00 0.  1.
</event>
<event>
 7    1  0.2084210E-015  0.9000783E+02  0.7816164E-02  0.1186339E+00
        -11   -1    0    0    0    0  0.00000000000E+00  0.00000000000E+00  0.45593999997E+02  0.45594000000E+02  0.51100000000E-03 0.  1.
         11   -1    0    0    0    0 -0.00000000000E+00 -0.00000000000E+00 -0.45593999997E+02  0.45594000000E+02  0.51100000000E-03 0. -1.
    9900012    2    1    2    0    0  0.66881722237E+00 -0.19136007141E-01  0.97216765005E+00  0.90007833654E+02  0.90000096258E+02 0.  0.
         12    1    1    2    0    0 -0.66881722237E+00  0.19136007141E-01 -0.97216765005E+00  0.11801663457E+01  0.00000000000E+00 0. -1.
         11    1    3    3    0    0  0.29844838006E+02  0.62437255920E+01  0.21584092854E+02  0.37357349069E+02  0.51100000000E-03 0. -1.
        -11    1    3    3    0    0 -0.90790388155E+01 -0.26291146521E+01  0.11319253351E+02  0.14746751722E+02  0.51100000000E-03 0.  1.
        -12    1    3    3    0    0 -0.20096981968E+02 -0.36337469470E+01 -0.31931178555E+02  0.37903732863E+02  0.00000000000E+00 0.  1.
</event>
<event>
 7    1  0.2084210E-015  0.9000755E+02  0.7816164E-02  0.1186339E+00
        -11   -1    0    0    0    0  0.00000000000E+00  0.00000000000E+00  0.45593999997E+02  0.45594000000E+02  0.51100000000E-03 0.  1.
         11   -1    0    0    0    0 -0.00000000000E+00 -0.00000000000E+00 -0.45593999997E+02  0.45594000000E+02  0.51100000000E-03 0. -1.
    9900012    2    1    2    0    0  0.10777693023E+01  0.39011686274E+00  0.28227159955E+00  0.90007553012E+02  0.89999811912E+02 0.  0.
         12    1    1    2    0    0 -0.10777693023E+01 -0.39011686274E+00 -0.28227159955E+00  0.11804469880E+01  0.00000000000E+00 0. -1.
         11    1    3    3    0    0  0.29840105012E+02 -0.22527204975E+01 -0.25117700924E+02  0.39069240033E+02  0.51100000000E-03 0. -1.
        -11    1    3    3    0    0 -0.30226914996E+01 -0.13455138931E+02  0.76101644009E+01  0.15750937433E+02  0.51100000000E-03 0.  1.
        -12    1    3    3    0    0 -0.25739644210E+02  0.16097976291E+02  0.17789808123E+02  0.35187375546E+02  0.00000000000E+00 0.  1.
</event>
<event>
 7    1  0.2084210E-015  0.9000770E+02  0.7816164E-02  0.1186339E+00
        -11   -1    0    0    0    0  0.00000000000E+00  0.00000000000E+00  0.45593999997E+02  0.45594000000E+02  0.51100000000E-03 0.  1.
         11   -1    0    0    0    0 -0.00000000000E+00 -0.00000000000E+00 -0.45593999997E+02  0.45594000000E+02  0.51100000000E-03 0. -1.
    9900012    2    1    2    0    0 -0.93025198289E+00  0.67745697552E+00  0.26226471520E+00  0.90007703645E+02  0.89999964533E+02 0.  0.
         12    1    1    2    0    0  0.93025198289E+00 -0.67745697552E+00 -0.26226471520E+00  0.11802963552E+01  0.00000000000E+00 0. -1.
         11    1    3    3    0    0 -0.80984041108E+01  0.35170281316E+01 -0.31316337948E+01  0.93680716535E+01  0.51100000000E-03 0. -1.
        -11    1    3    3    0    0 -0.11221421318E+02 -0.22633745998E+02  0.32343828008E+02  0.41040589236E+02  0.51100000000E-03 0.  1.
         12    1    3    3    0    0  0.18389573446E+02  0.19794174842E+02 -0.28949929498E+02  0.39599042756E+02  0.00000000000E+00 0. -1.
</event>
<event>
 7    1  0.2084210E-015  0.9000770E+02  0.7816164E-02  0.1186339E+00
        -11   -1    0    0    0    0  0.00000000000E+00  0.00000000000E+00  0.45593999997E+02  0.45594000000E+02  0.51100000000E-03 0.  1.
         11   -1    0    0    0    0 -0.00000000000E+00 -0.00000000000E+00 -0.45593999997E+02  0.45594000000E+02  0.51100000000E-03 0. -1.
    9900012    2    1    2    0    0  0.29305242434E+00 -0.22181106074E+00  0.11216189767E+01  0.90007699615E+02  0.89999960450E+02 0.  0.
         12    1    1    2    0    0 -0.29305242434E+00  0.22181106074E+00 -0.11216189767E+01  0.11803003851E+01  0.00000000000E+00 0. -1.
         11    1    3    3    0    0  0.57832063722E+01 -0.14867206891E+02 -0.29978756286E+02  0.33958874325E+02  0.51100000000E-03 0. -1.
        -11    1    3    3    0    0  0.32783349181E+01 -0.14801446296E+01 -0.10220244256E+02  0.10834745077E+02  0.51100000000E-03 0.  1.
        -12    1    3    3    0    0 -0.87684888660E+01  0.16125540460E+02  0.41320619519E+02  0.45214080213E+02  0.00000000000E+00 0.  1.
</event>
<event>
 7    1  0.3379313E-015  0.9000768E+02  0.7816164E-02  0.1186339E+00
        -11   -1    0    0    0    0  0.00000000000E+00  0.00000000000E+00  0.45593999997E+02  0.45594000000E+02  0.51100000000E-03 0. -1.
         11   -1    0    0    0    0 -0.00000000000E+00 -0.00000000000E+00 -0.45593999997E+02  0.45594000000E+02  0.51100000000E-03 0.  1.
    9900012    2    1    2    0    0 -0.27750814546E+00  0.12853109685E+00 -0.11400126129E+01  0.90007678107E+02  0.89999938658E+02 0.  0.
         12    1    1    2    0    0  0.27750814546E+00 -0.12853109685E+00  0.11400126129E+01  0.11803218931E+01  0.00000000000E+00 0. -1.
         11    1    3    3    0    0 -0.18479503478E+02 -0.30961648210E+02  0.11812524983E+02  0.37942739166E+02  0.51100000000E-03 0. -1.
        -11    1    3    3    0    0 -0.73907039632E+01 -0.20483557051E+01 -0.57358133837E+01  0.95769421843E+01  0.51100000000E-03 0.  1.
        -12    1    3    3    0    0  0.25592699296E+02  0.33138535012E+02 -0.72167242118E+01  0.42487996756E+02  0.00000000000E+00 0.  1.
</event>
<event>
 7    1  0.2084210E-015  0.9000779E+02  0.7816164E-02  0.1186339E+00
        -11   -1    0    0    0    0  0.00000000000E+00  0.00000000000E+00  0.45593999997E+02  0.45594000000E+02  0.51100000000E-03 0. -1.
         11   -1    0    0    0    0 -0.00000000000E+00 -0.00000000000E+00 -0.45593999997E+02  0.45594000000E+02  0.51100000000E-03 0.  1.
    9900012    2    1    2    0    0  0.44631634278E+00 -0.10037602247E+01 -0.43147628391E+00  0.90007786185E+02  0.90000048162E+02 0.  0.
         12    1    1    2    0    0 -0.44631634278E+00  0.10037602247E+01  0.43147628391E+00  0.11802138155E+01  0.00000000000E+00 0. -1.
         11    1    3    3    0    0  0.45588157518E+01  0.63048243871E+01 -0.43321628334E+01  0.89051247430E+01  0.51100000000E-03 0. -1.
        -11    1    3    3    0    0 -0.17240830281E+01  0.12600269243E+02 -0.35054252540E+02  0.37289943264E+02  0.51100000000E-03 0.  1.
         12    1    3    3    0    0 -0.23884163810E+01 -0.19908853854E+02  0.38954939089E+02  0.43812718177E+02  0.00000000000E+00 0. -1.
</event>
<event>
 7    1  0.2084210E-015  0.9000773E+02  0.7816164E-02  0.1186339E+00
        -11   -1    0    0    0    0  0.00000000000E+00  0.00000000000E+00  0.45593999997E+02  0.45594000000E+02  0.51100000000E-03 0.  1.
         11   -1    0    0    0    0 -0.00000000000E+00 -0.00000000000E+00 -0.45593999997E+02  0.45594000000E+02  0.51100000000E-03 0. -1.
    9900012    2    1    2    0    0 -0.10882978884E+01  0.19323061500E+00  0.41388295134E+00  0.90007733309E+02  0.89999994589E+02 0.  0.
         12    1    1    2    0    0  0.10882978884E+01 -0.19323061500E+00 -0.41388295134E+00  0.11802666910E+01  0.00000000000E+00 0. -1.
         11    1    3    3    0    0 -0.10107192323E+02  0.30695628516E+02 -0.26749460729E+02  0.41951288373E+02  0.51100000000E-03 0. -1.
        -11    1    3    3    0    0  0.74721016948E+01 -0.20383212000E+01 -0.12070159889E+01  0.78386188140E+01  0.51100000000E-03 0.  1.
        -12    1    3    3    0    0  0.15467927393E+01 -0.28464076701E+02  0.28370359669E+02  0.40217826122E+02  0.00000000000E+00 0.  1.
</event>
<event>
 7    1  0.2084210E-015  0.9000783E+02  0.7816164E-02  0.1186339E+00
        -11   -1    0    0    0    0  0.00000000000E+00  0.00000000000E+00  0.45593999997E+02  0.45594000000E+02  0.51100000000E-03 0. -1.
         11   -1    0    0    0    0 -0.00000000000E+00 -0.00000000000E+00 -0.45593999997E+02  0.45594000000E+02  0.51100000000E-03 0.  1.
    9900012    2    1    2    0    0  0.62500361900E-01  0.11316905975E+01 -0.32887798096E+00  0.90007834490E+02  0.90000097106E+02 0.  0.
         12    1    1    2    0    0 -0.62500361900E-01 -0.11316905975E+01  0.32887798096E+00  0.11801655096E+01  0.00000000000E+00 0. -1.
         11    1    3    3    0    0 -0.19853270220E+02 -0.27277431860E+01  0.31523707159E+02  0.37354210400E+02  0.51100000000E-03 0. -1.
        -11    1    3    3    0    0 -0.88393682363E+00  0.63481213695E+01  0.63893706832E+01  0.90500854813E+01  0.51100000000E-03 0.  1.
        -12    1    3    3    0    0  0.20799707406E+02 -0.24886875859E+01 -0.38241955823E+02  0.43603538609E+02  0.00000000000E+00 0.  1.
</event>
<event>
 7    1  0.2084210E-015  0.9000779E+02  0.7816164E-02  0.1186339E+00
        -11   -1    0    0    0    0  0.00000000000E+00  0.00000000000E+00  0.45593999997E+02  0.45594000000E+02  0.51100000000E-03 0.  1.
         11   -1    0    0    0    0 -0.00000000000E+00 -0.00000000000E+00 -0.45593999997E+02  0.45594000000E+02  0.51100000000E-03 0. -1.
    9900012    2    1    2    0    0 -0.12484448036E+00 -0.10941115187E+01  0.42452567040E+00  0.90007793152E+02  0.90000055221E+02 0.  0.
         12    1    1    2    0    0  0.12484448036E+00  0.10941115187E+01 -0.42452567040E+00  0.11802068481E+01  0.00000000000E+00 0. -1.
         11    1    3    3    0    0 -0.34412704463E+02  0.53345623737E+01 -0.15552159359E+02  0.38138713208E+02  0.51100000000E-03 0. -1.
        -11    1    3    3    0    0 -0.19782114819E+01 -0.34530017686E+01 -0.75523558473E+01  0.85366633404E+01  0.51100000000E-03 0.  1.
        -12    1    3    3    0    0  0.36266071465E+02 -0.29756721237E+01  0.23529040877E+02  0.43332416603E+02  0.00000000000E+00 0.  1.
</event>
<event>
 7    1  0.2084210E-015  0.9000772E+02  0.7816164E-02  0.1186339E+00
        -11   -1    0    0    0    0  0.00000000000E+00  0.00000000000E+00  0.45593999997E+02  0.45594000000E+02  0.51100000000E-03 0.  1.
         11   -1    0    0    0    0 -0.00000000000E+00 -0.00000000000E+00 -0.45593999997E+02  0.45594000000E+02  0.51100000000E-03 0. -1.
    9900012    2    1    2    0    0 -0.13531419956E+00  0.11608682902E+01 -0.16475183529E+00  0.90007716861E+02  0.89999977924E+02 0.  0.
         12    1    1    2    0    0  0.13531419956E+00 -0.11608682902E+01  0.16475183529E+00  0.11802831385E+01  0.00000000000E+00 0. -1.
         11    1    3    3    0    0  0.24341280306E+02  0.14508389886E+02 -0.20780704249E+02  0.35140133372E+02  0.51100000000E-03 0. -1.
        -11    1    3    3    0    0  0.48353380497E+01  0.81128434678E+01 -0.47384571067E+01  0.10566536765E+02  0.51100000000E-03 0.  1.
        -12    1    3    3    0    0 -0.29311932555E+02 -0.21460365064E+02  0.25354409521E+02  0.44301046725E+02  0.00000000000E+00 0.  1.
</event>
<event>
 7    1  0.2084210E-015  0.9000767E+02  0.7816164E-02  0.1186339E+00
        -11   -1    0    0    0    0  0.00000000000E+00  0.00000000000E+00  0.45593999997E+02  0.45594000000E+02  0.51100000000E-03 0. -1.
         11   -1    0    0    0    0 -0.00000000000E+00 -0.00000000000E+00 -0.45593999997E+02  0.45594000000E+02  0.51100000000E-03 0.  1.
    9900012    2    1    2    0    0 -0.11761194263E+01 -0.51433074712E-01 -0.85261380208E-01  0.90007673024E+02  0.89999933508E+02 0.  0.
         12    1    1    2    0    0  0.11761194263E+01  0.51433074712E-01  0.85261380208E-01  0.11803269755E+01  0.00000000000E+00 0. -1.
         11    1    3    3    0    0  0.11349880615E+02  0.37509302129E+02 -0.49602983875E+01  0.39501545496E+02  0.51100000000E-03 0. -1.
        -11    1    3    3    0    0  0.78720919756E+01 -0.13728696599E+01  0.40463746501E+01  0.89569945432E+01  0.51100000000E-03 0.  1.
        -12    1    3    3    0    0 -0.20398092017E+02 -0.36187865544E+02  0.82866235718E+00  0.41549132986E+02  0.00000000000E+00 0.  1.
</event>
<event>
 7    1  0.2084210E-015  0.9000773E+02  0.7816164E-02  0.1186339E+00
        -11   -1    0    0    0    0  0.00000000000E+00  0.00000000000E+00  0.45593999997E+02  0.45594000000E+02  0.51100000000E-03 0.  1.
         11   -1    0    0    0    0 -0.00000000000E+00 -0.00000000000E+00 -0.45593999997E+02  0.45594000000E+02  0.51100000000E-03 0. -1.
    9900012    2    1    2    0    0  0.25311348680E+00  0.10856221387E+01  0.38780441203E+00  0.90007731333E+02  0.89999992586E+02 0.  0.
         12    1    1    2    0    0 -0.25311348680E+00 -0.10856221387E+01 -0.38780441203E+00  0.11802686674E+01  0.00000000000E+00 0. -1.
         11    1    3    3    0    0 -0.50283159361E+01 -0.75272703806E+01 -0.14172114500E+01  0.91625459939E+01  0.51100000000E-03 0. -1.
        -11    1    3    3    0    0 -0.27729789050E+02 -0.22299953530E+02  0.15791318383E+01  0.35619135108E+02  0.51100000000E-03 0.  1.
         12    1    3    3    0    0  0.33011218473E+02  0.30912846049E+02  0.22588402372E+00  0.45226050231E+02  0.00000000000E+00 0. -1.
</event>
<event>
 7    1  0.2084210E-015  0.9000711E+02  0.7816164E-02  0.1186340E+00
        -11   -1    0    0    0    0  0.00000000000E+00  0.00000000000E+00  0.45593999997E+02  0.45594000000E+02  0.51100000000E-03 0.  1.
         11   -1    0    0    0    0 -0.00000000000E+00 -0.00000000000E+00 -0.45593999997E+02  0.45594000000E+02  0.51100000000E-03 0. -1.
    9900012    2    1    2    0    0 -0.98698323118E-01  0.87381375784E+00  0.78816725698E+00  0.90007110730E+02  0.89999363790E+02 0.  0.
         12    1    1    2    0    0  0.98698323118E-01 -0.87381375784E+00 -0.78816725698E+00  0.11808892697E+01  0.00000000000E+00 0. -1.
         11    1    3    3    0    0  0.89220039452E+00  0.23133909330E+01 -0.74675583626E+01  0.78684323288E+01  0.51100000000E-03 0. -1.
        -11    1    3    3    0    0 -0.39382185867E+02  0.10871709415E+02  0.89137482816E+01  0.41816330996E+02  0.51100000000E-03 0.  1.
         12    1    3    3    0    0  0.38391287149E+02 -0.12311286590E+02 -0.65802266198E+00  0.40322347406E+02  0.00000000000E+00 0. -1.
</event>
<event>
 7    1  0.2084210E-015  0.9000771E+02  0.7816164E-02  0.1186339E+00
        -11   -1    0    0    0    0  0.00000000000E+00  0.00000000000E+00  0.45593999997E+02  0.45594000000E+02  0.51100000000E-03 0. -1.
         11   -1    0    0    0    0 -0.00000000000E+00 -0.00000000000E+00 -0.45593999997E+02  0.45594000000E+02  0.51100000000E-03 0.  1.
    9900012    2    1    2    0    0 -0.68667971469E+00 -0.93070921774E+00 -0.23522315843E+00  0.90007712487E+02  0.89999973492E+02 0.  0.
         12    1    1    2    0    0  0.68667971469E+00  0.93070921774E+00  0.23522315843E+00  0.11802875128E+01  0.00000000000E+00 0. -1.
         11    1    3    3    0    0 -0.48250756935E+01 -0.11399848570E+02 -0.16736002609E+02  0.20816620438E+02  0.51100000000E-03 0. -1.
        -11    1    3    3    0    0  0.21787533018E+01  0.27181053336E+02 -0.16695857643E+02  0.31973556091E+02  0.51100000000E-03 0.  1.
         12    1    3    3    0    0  0.19596426770E+01 -0.16711913983E+02  0.33196637094E+02  0.37217535958E+02  0.00000000000E+00 0. -1.
</event>
<event>
 7    1  0.2084210E-015  0.9000769E+02  0.7816164E-02  0.1186339E+00
        -11   -1    0    0    0    0  0.00000000000E+00  0.00000000000E+00  0.45593999997E+02  0.45594000000E+02  0.51100000000E-03 0. -1.
         11   -1    0    0    0    0 -0.00000000000E+00 -0.00000000000E+00 -0.45593999997E+02  0.45594000000E+02  0.51100000000E-03 0.  1.
    9900012    2    1    2    0    0 -0.38734814454E+00  0.84465026675E+00 -0.72778233078E+00  0.90007686576E+02  0.89999947239E+02 0.  0.
         12    1    1    2    0    0  0.38734814454E+00 -0.84465026675E+00  0.72778233078E+00  0.11803134241E+01  0.00000000000E+00 0. -1.
         11    1    3    3    0    0  0.40662145976E+01  0.39581980938E+01  0.56116664117E+01  0.79807414117E+01  0.51100000000E-03 0. -1.
        -11    1    3    3    0    0 -0.18552460683E+02  0.34307205383E+02 -0.13754647688E+02  0.41356601309E+02  0.51100000000E-03 0.  1.
         12    1    3    3    0    0  0.14098897940E+02 -0.37420753210E+02  0.74151989452E+01  0.40670343855E+02  0.00000000000E+00 0. -1.
</event>
<event>
 7    1  0.2084210E-015  0.9000776E+02  0.7816164E-02  0.1186339E+00
        -11   -1    0    0    0    0  0.00000000000E+00  0.00000000000E+00  0.45593999997E+02  0.45594000000E+02  0.51100000000E-03 0.  1.
         11   -1    0    0    0    0 -0.00000000000E+00 -0.00000000000E+00 -0.45593999997E+02  0.45594000000E+02  0.51100000000E-03 0. -1.
    9900012    2    1    2    0    0 -0.15248622947E+00 -0.10266673731E+01  0.56183602495E+00  0.90007763725E+02  0.90000025406E+02 0.  0.
         12    1    1    2    0    0  0.15248622947E+00  0.10266673731E+01 -0.56183602495E+00  0.11802362747E+01  0.00000000000E+00 0. -1.
         11    1    3    3    0    0  0.40548503706E+02 -0.14810828364E+02 -0.60710868173E+01  0.43593576190E+02  0.51100000000E-03 0. -1.
        -11    1    3    3    0    0 -0.23272295828E+01  0.63864484949E+01  0.14378080855E+00  0.67987789412E+01  0.51100000000E-03 0.  1.
        -12    1    3    3    0    0 -0.38373760353E+02  0.73977124959E+01  0.64891420337E+01  0.39615408594E+02  0.00000000000E+00 0.  1.
</event>
<event>
 7    1  0.2084210E-015  0.9000769E+02  0.7816164E-02  0.1186339E+00
        -11   -1    0    0    0    0  0.00000000000E+00  0.00000000000E+00  0.45593999997E+02  0.45594000000E+02  0.51100000000E-03 0.  1.
         11   -1    0    0    0    0 -0.00000000000E+00 -0.00000000000E+00 -0.45593999997E+02  0.45594000000E+02  0.51100000000E-03 0. -1.
    9900012    2    1    2    0    0  0.70838963522E+00 -0.11323086784E+00 -0.93727614923E+00  0.90007693394E+02  0.89999954147E+02 0.  0.
         12    1    1    2    0    0 -0.70838963522E+00  0.11323086784E+00  0.93727614923E+00  0.11803066062E+01  0.00000000000E+00 0. -1.
         11    1    3    3    0    0  0.82594884575E+01  0.13632884191E+02  0.77704077140E+00  0.15958648864E+02  0.51100000000E-03 0. -1.
        -11    1    3    3    0    0  0.10543767778E+02 -0.30828387812E+02 -0.24140571621E+02  0.40550311127E+02  0.51100000000E-03 0.  1.
         12    1    3    3    0    0 -0.18094866600E+02  0.17082272753E+02  0.22426254700E+02  0.33498733403E+02  0.00000000000E+00 0. -1.
</event>
<event>
 7    1  0.2084210E-015  0.9000769E+02  0.7816164E-02  0.1186339E+00
        -11   -1    0    0    0    0  0.00000000000E+00  0.00000000000E+00  0.45593999997E+02  0.45594000000E+02  0.51100000000E-03 0. -1.
         11   -1    0    0    0    0 -0.00000000000E+00 -0.00000000000E+00 -0.45593999997E+02  0.45594000000E+02  0.51100000000E-03 0.  1.
    9900012    2    1    2    0    0  0.10782226041E+01 -0.23367540056E+00 -0.41947690913E+00  0.90007691119E+02  0.89999951842E+02 0.  0.
         12    1    1    2    0    0 -0.10782226041E+01  0.23367540056E+00  0.41947690913E+00  0.11803088808E+01  0.00000000000E+00 0. -1.
         11    1    3    3    0    0 -0.29589403711E+00 -0.54379073003E+01 -0.11317397505E+02  0.12559533257E+02  0.51100000000E-03 0. -1.
        -11    1    3    3    0    0 -0.31910931987E+02 -0.11551346569E+02  0.19586928845E+02  0.39184039731E+02  0.51100000000E-03 0.  1.
         12    1    3    3    0    0  0.33285048628E+02  0.16755578469E+02 -0.86890082492E+01  0.38264118131E+02  0.00000000000E+00 0. -1.
</event>
<event>
 7    1  0.2084210E-015  0.9000772E+02  0.7816164E-02  0.1186339E+00
        -11   -1    0    0    0    0  0.00000000000E+00  0.00000000000E+00  0.45593999997E+02  0.45594000000E+02  0.51100000000E-03 0.  1.
         11   -1    0    0    0    0 -0.00000000000E+00 -0.00000000000E+00 -0.45593999997E+02  0.45594000000E+02  0.51100000000E-03 0. -1.
    9900012    2    1    2    0    0  0.95557029639E+00  0.66745569330E+00 -0.18558127711E+00  0.90007723717E+02  0.89999984870E+02 0.  0.
         12    1    1    2    0    0 -0.95557029639E+00 -0.66745569330E+00  0.18558127711E+00  0.11802762830E+01  0.00000000000E+00 0. -1.
         11    1    3    3    0    0  0.44962549075E+01 -0.82323932821E+01 -0.29972582673E+01  0.98474445785E+01  0.51100000000E-03 0. -1.
        -11    1    3    3    0    0  0.37183937321E+02 -0.33778756673E+01 -0.17707903543E+01  0.37379017342E+02  0.51100000000E-03 0.  1.
         12    1    3    3    0    0 -0.40724621932E+02  0.12277724643E+02  0.45824673445E+01  0.42781261796E+02  0.00000000000E+00 0. -1.
</event>
<event>
 7    1  0.2084210E-015  0.9000763E+02  0.7816164E-02  0.1186339E+00
        -11   -1    0    0    0    0  0.00000000000E+00  0.00000000000E+00  0.45593999997E+02  0.45594000000E+02  0.51100000000E-03 0.  1.
         11   -1    0    0    0    0 -0.00000000000E+00 -0.00000000000E+00 -0.45593999997E+02  0.45594000000E+02  0.51100000000E-03 0. -1.
    9900012    2    1    2    0    0 -0.63417288315E+00  0.93995275314E+00  0.32801708981E+00  0.90007626485E+02  0.89999886354E+02 0.  0.
         12    1    1    2    0    0  0.63417288315E+00 -0.93995275314E+00 -0.32801708981E+00  0.11803735151E+01  0.00000000000E+00 0. -1.
         11    1    3    3    0    0 -0.20516368605E+02  0.22421978735E+02 -0.24284961114E+02  0.38902774293E+02  0.51100000000E-03 0. -1.
        -11    1    3    3    0    0 -0.39643485460E+00 -0.22149806405E+01 -0.79004830254E+01  0.82146778468E+01  0.51100000000E-03 0.  1.
        -12    1    3    3    0    0  0.20278630577E+02 -0.19267045342E+02  0.32513461229E+02  0.42890174345E+02  0.00000000000E+00 0.  1.
</event>
<event>
 7    1  0.2084210E-015  0.9000775E+02  0.7816164E-02  0.1186339E+00
        -11   -1    0    0    0    0  0.00000000000E+00  0.00000000000E+00  0.45593999997E+02  0.45594000000E+02  0.51100000000E-03 0. -1.
         11   -1    0    0    0    0 -0.00000000000E+00 -0.00000000000E+00 -0.45593999997E+02  0.45594000000E+02  0.51100000000E-03 0.  1.
    9900012    2    1    2    0    0 -0.86606588837E+00  0.14682591992E+00 -0.78826380186E+00  0.90007750961E+02  0.90000012473E+02 0.  0.
         12    1    1    2    0    0  0.86606588837E+00 -0.14682591992E+00  0.78826380186E+00  0.11802490394E+01  0.00000000000E+00 0. -1.
         11    1    3    3    0    0 -0.68024275256E+01  0.51718281426E+01 -0.42965282268E+01  0.95645690777E+01  0.51100000000E-03 0. -1.
        -11    1    3    3    0    0 -0.29949184322E+02  0.91608505802E+01 -0.18144779520E+02  0.36195411988E+02  0.51100000000E-03 0.  1.
         12    1    3    3    0    0  0.35885545959E+02 -0.14185852803E+02  0.21653043945E+02  0.44247769894E+02  0.00000000000E+00 0. -1.
</event>
<event>
 7    1  0.2084210E-015  0.9000814E+02  0.7816164E-02  0.1186338E+00
        -11   -1    0    0    0    0  0.00000000000E+00  0.00000000000E+00  0.45593999997E+02  0.45594000000E+02  0.51100000000E-03 0.  1.
         11   -1    0    0    0    0 -0.00000000000E+00 -0.00000000000E+00 -0.45593999997E+02  0.45594000000E+02  0.51100000000E-03 0. -1.
    9900012    2    1    2    0    0  0.55980258957E+00 -0.10269337444E+01 -0.15521512875E+00  0.90008142555E+02  0.90000409236E+02 0.  0.
         12    1    1    2    0    0 -0.55980258957E+00  0.10269337444E+01  0.15521512875E+00  0.11798574451E+01  0.00000000000E+00 0. -1.
         11    1    3    3    0    0 -0.15939722984E+02 -0.21220371443E+02 -0.14829499579E+02  0.30402187273E+02  0.51100000000E-03 0. -1.
        -11    1    3    3    0    0 -0.18071117349E+02  0.61486617439E+01 -0.10412838031E+01  0.19116892941E+02  0.51100000000E-03 0.  1.
        -12    1    3    3    0    0  0.34570642922E+02  0.14044775955E+02  0.15715568253E+02  0.40489062341E+02  0.00000000000E+00 0.  1.
</event>
<event>
 7    1  0.2084210E-015  0.9000769E+02  0.7816164E-02  0.1186339E+00
        -11   -1    0    0    0    0  0.00000000000E+00  0.00000000000E+00  0.45593999997E+02  0.45594000000E+02  0.51100000000E-03 0.  1.
         11   -1    0    0    0    0 -0.00000000000E+00 -0.00000000000E+00 -0.45593999997E+02  0.45594000000E+02  0.51100000000E-03 0. -1.
    9900012    2    1    2    0    0  0.64054227108E+00 -0.15381120083E+00  0.97938072658E+00  0.90007686951E+02  0.89999947619E+02 0.  0.
         12    1    1    2    0    0 -0.64054227108E+00  0.15381120083E+00 -0.97938072658E+00  0.11803130492E+01  0.00000000000E+00 0. -1.
         11    1    3    3    0    0  0.13145717833E+01 -0.54581696703E+01  0.77392821516E+01  0.95611821239E+01  0.51100000000E-03 0. -1.
        -11    1    3    3    0    0 -0.32158068228E+02 -0.67268485312E+00  0.20695083996E+02  0.38247618997E+02  0.51100000000E-03 0.  1.
         12    1    3    3    0    0  0.31484038716E+02  0.59770433226E+01 -0.27454985421E+02  0.42198885829E+02  0.00000000000E+00 0. -1.
</event>
<event>
 7    1  0.2084210E-015  0.9000777E+02  0.7816164E-02  0.1186339E+00
        -11   -1    0    0    0    0  0.00000000000E+00  0.00000000000E+00  0.45593999997E+02  0.45594000000E+02  0.51100000000E-03 0. -1.
         11   -1    0    0    0    0 -0.00000000000E+00 -0.00000000000E+00 -0.45593999997E+02  0.45594000000E+02  0.51100000000E-03 0.  1.
    9900012    2    1    2    0    0 -0.54564485113E+00 -0.36773478102E+00 -0.97978546899E+00  0.90007772591E+02  0.90000034389E+02 0.  0.
         12    1    1    2    0    0  0.54564485113E+00  0.36773478102E+00  0.97978546899E+00  0.11802274094E+01  0.00000000000E+00 0. -1.
         11    1    3    3    0    0 -0.58719298202E+01  0.68713315842E+01 -0.50369906939E+01  0.10347271769E+02  0.51100000000E-03 0. -1.
        -11    1    3    3    0    0 -0.23962977418E+02 -0.22673325882E+01 -0.27346841873E+02  0.36430959972E+02  0.51100000000E-03 0.  1.
         12    1    3    3    0    0  0.29289262387E+02 -0.49717337770E+01  0.31404047098E+02  0.43229540849E+02  0.00000000000E+00 0. -1.
</event>
<event>
 7    1  0.2084210E-015  0.9000819E+02  0.7816164E-02  0.1186338E+00
        -11   -1    0    0    0    0  0.00000000000E+00  0.00000000000E+00  0.45593999997E+02  0.45594000000E+02  0.51100000000E-03 0.  1.
         11   -1    0    0    0    0 -0.00000000000E+00 -0.00000000000E+00 -0.45593999997E+02  0.45594000000E+02  0.51100000000E-03 0. -1.
    9900012    2    1    2    0    0  0.18763680021E+00 -0.53909805860E+00  0.10325279089E+01  0.90008191470E+02  0.90000458796E+02 0.  0.
         12    1    1    2    0    0 -0.18763680021E+00  0.53909805860E+00 -0.10325279089E+01  0.11798085303E+01  0.00000000000E+00 0. -1.
         11    1    3    3    0    0  0.20290798511E+02 -0.89827568279E+01 -0.28155963577E+02  0.35849193989E+02  0.51100000000E-03 0. -1.
        -11    1    3    3    0    0  0.84859101567E+01 -0.20648646354E+01 -0.35634866982E+01  0.94325380921E+01  0.51100000000E-03 0.  1.
        -12    1    3    3    0    0 -0.28589071868E+02  0.10508523405E+02  0.32751978185E+02  0.44726459388E+02  0.00000000000E+00 0.  1.
</event>
<event>
 7    1  0.2084210E-015  0.9000772E+02  0.7816164E-02  0.1186339E+00
        -11   -1    0    0    0    0  0.00000000000E+00  0.00000000000E+00  0.45593999997E+02  0.45594000000E+02  0.51100000000E-03 0.  1.
         11   -1    0    0    0    0 -0.00000000000E+00 -0.00000000000E+00 -0.45593999997E+02  0.45594000000E+02  0.51100000000E-03 0. -1.
    9900012    2    1    2    0    0 -0.27982154099E+00 -0.11386370055E+01  0.13518466608E+00  0.90007716467E+02  0.89999977524E+02 0.  0.
         12    1    1    2    0    0  0.27982154099E+00  0.11386370055E+01 -0.13518466608E+00  0.11802835333E+01  0.00000000000E+00 0. -1.
         11    1    3    3    0    0  0.23920163200E+01  0.20501605706E+00 -0.82383174949E+01  0.85810051315E+01  0.51100000000E-03 0. -1.
        -11    1    3    3    0    0 -0.29979259095E+02  0.21671090823E+02  0.22187669461E+02  0.43135656129E+02  0.51100000000E-03 0.  1.
         12    1    3    3    0    0  0.27307421234E+02 -0.23014743886E+02 -0.13814167300E+02  0.38291055206E+02  0.00000000000E+00 0. -1.
</event>
<event>
 7    1  0.2084210E-015  0.9000776E+02  0.7816164E-02  0.1186339E+00
        -11   -1    0    0    0    0  0.00000000000E+00  0.00000000000E+00  0.45593999997E+02  0.45594000000E+02  0.51100000000E-03 0. -1.
         11   -1    0    0    0    0 -0.00000000000E+00 -0.00000000000E+00 -0.45593999997E+02  0.45594000000E+02  0.51100000000E-03 0.  1.
    9900012    2    1    2    0    0 -0.84023470184E+00  0.82883604116E+00 -0.91493558305E-03  0.90007760883E+02  0.90000022526E+02 0.  0.
         12    1    1    2    0    0  0.84023470184E+00 -0.82883604116E+00  0.91493558305E-03  0.11802391175E+01  0.00000000000E+00 0. -1.
         11    1    3    3    0    0 -0.28605890752E+02 -0.62563483933E+01  0.29489006043E+02  0.41557675086E+02  0.51100000000E-03 0. -1.
        -11    1    3    3    0    0  0.81876074490E+01  0.30692238161E+01  0.38696170328E+01  0.95619551774E+01  0.51100000000E-03 0.  1.
        -12    1    3    3    0    0  0.19578048601E+02  0.40159606183E+01 -0.33359538011E+02  0.38888130619E+02  0.00000000000E+00 0.  1.
</event>
<event>
 7    1  0.2084210E-015  0.9000776E+02  0.7816164E-02  0.1186339E+00
        -11   -1    0    0    0    0  0.00000000000E+00  0.00000000000E+00  0.45593999997E+02  0.45594000000E+02  0.51100000000E-03 0. -1.
         11   -1    0    0    0    0 -0.00000000000E+00 -0.00000000000E+00 -0.45593999997E+02  0.45594000000E+02  0.51100000000E-03 0.  1.
    9900012    2    1    2    0    0 -0.94844865227E+00  0.20103608069E+00 -0.67304348704E+00  0.90007763631E+02  0.90000025311E+02 0.  0.
         12    1    1    2    0    0  0.94844865227E+00 -0.20103608069E+00  0.67304348704E+00  0.11802363692E+01  0.00000000000E+00 0. -1.
         11    1    3    3    0    0 -0.78959315060E+01  0.48232741758E+01 -0.96665738709E+00  0.93029100225E+01  0.51100000000E-03 0. -1.
        -11    1    3    3    0    0 -0.36404049222E+02  0.22769512710E+01 -0.35078337521E+01  0.36643474245E+02  0.51100000000E-03 0.  1.
         12    1    3    3    0    0  0.43351532075E+02 -0.68991893662E+01  0.38014476522E+01  0.44061379364E+02  0.00000000000E+00 0. -1.
</event>
<event>
 7    1  0.2084210E-015  0.9000772E+02  0.7816164E-02  0.1186339E+00
        -11   -1    0    0    0    0  0.00000000000E+00  0.00000000000E+00  0.45593999997E+02  0.45594000000E+02  0.51100000000E-03 0.  1.
         11   -1    0    0    0    0 -0.00000000000E+00 -0.00000000000E+00 -0.45593999997E+02  0.45594000000E+02  0.51100000000E-03 0. -1.
    9900012    2    1    2    0    0 -0.10003788346E+00 -0.10396762693E+01 -0.54965255618E+00  0.90007723653E+02  0.89999984805E+02 0.  0.
         12    1    1    2    0    0  0.10003788346E+00  0.10396762693E+01  0.54965255618E+00  0.11802763471E+01  0.00000000000E+00 0. -1.
         11    1    3    3    0    0 -0.41329600004E+01  0.68133994700E+01 -0.21590121278E+02  0.23013846001E+02  0.51100000000E-03 0.  1.
        -11    1    3    3    0    0 -0.11121968193E+01  0.24519180690E+02 -0.50995008345E+01  0.25068548273E+02  0.51100000000E-03 0. -1.
        -12    1    3    3    0    0  0.51451189362E+01 -0.32372256429E+02  0.26139969556E+02  0.41925329379E+02  0.00000000000E+00 0.  1.
</event>
<event>
 7    1  0.2084210E-015  0.9000774E+02  0.7816164E-02  0.1186339E+00
        -11   -1    0    0    0    0  0.00000000000E+00  0.00000000000E+00  0.45593999997E+02  0.45594000000E+02  0.51100000000E-03 0. -1.
         11   -1    0    0    0    0 -0.00000000000E+00 -0.00000000000E+00 -0.45593999997E+02  0.45594000000E+02  0.51100000000E-03 0.  1.
    9900012    2    1    2    0    0 -0.11660554233E+01 -0.19773739859E-01  0.18146868034E+00  0.90007742768E+02  0.90000004173E+02 0.  0.
         12    1    1    2    0    0  0.11660554233E+01  0.19773739859E-01 -0.18146868034E+00  0.11802572316E+01  0.00000000000E+00 0. -1.
         11    1    3    3    0    0 -0.11949513778E+02  0.36378158498E+02 -0.71261292908E+01  0.38947952631E+02  0.51100000000E-03 0. -1.
        -11    1    3    3    0    0 -0.68918166010E+01  0.11614093758E+01  0.64955209082E+01  0.95413730632E+01  0.51100000000E-03 0.  1.
        -12    1    3    3    0    0  0.17675274956E+02 -0.37559341613E+02  0.81207706300E+00  0.41518417074E+02  0.00000000000E+00 0.  1.
</event>
<event>
 7    1  0.2084210E-015  0.9000767E+02  0.7816164E-02  0.1186339E+00
        -11   -1    0    0    0    0  0.00000000000E+00  0.00000000000E+00  0.45593999997E+02  0.45594000000E+02  0.51100000000E-03 0.  1.
         11   -1    0    0    0    0 -0.00000000000E+00 -0.00000000000E+00 -0.45593999997E+02  0.45594000000E+02  0.51100000000E-03 0. -1.
    9900012    2    1    2    0    0  0.59203955240E+00 -0.53164359216E+00  0.87179673683E+00  0.90007667296E+02  0.89999927705E+02 0.  0.
         12    1    1    2    0    0 -0.59203955240E+00  0.53164359216E+00 -0.87179673683E+00  0.11803327035E+01  0.00000000000E+00 0. -1.
         11    1    3    3    0    0  0.53074069929E+01 -0.11352156706E+02  0.25459335976E+01  0.12787564624E+02  0.51100000000E-03 0. -1.
        -11    1    3    3    0    0 -0.11995789393E+02 -0.25195330683E+02 -0.21721412095E+02  0.35362740208E+02  0.51100000000E-03 0.  1.
         12    1    3    3    0    0  0.72804219521E+01  0.36015843797E+02  0.20047275234E+02  0.41857362465E+02  0.00000000000E+00 0. -1.
</event>
<event>
 7    1  0.2084210E-015  0.9000800E+02  0.7816164E-02  0.1186339E+00
        -11   -1    0    0    0    0  0.00000000000E+00  0.00000000000E+00  0.45593999997E+02  0.45594000000E+02  0.51100000000E-03 0.  1.
         11   -1    0    0    0    0 -0.00000000000E+00 -0.00000000000E+00 -0.45593999997E+02  0.45594000000E+02  0.51100000000E-03 0. -1.
    9900012    2    1    2    0    0  0.93039321048E+00 -0.14199173506E+00  0.71177131831E+00  0.90007995090E+02  0.90000259824E+02 0.  0.
         12    1    1    2    0    0 -0.93039321048E+00  0.14199173506E+00 -0.71177131831E+00  0.11800049104E+01  0.00000000000E+00 0. -1.
         11    1    3    3    0    0  0.35789299720E+01  0.66910348857E+01  0.57064308347E+01  0.94943162323E+01  0.51100000000E-03 0. -1.
        -11    1    3    3    0    0  0.19099995399E+02  0.30284677576E+02  0.55192043623E+01  0.36227519059E+02  0.51100000000E-03 0.  1.
         12    1    3    3    0    0 -0.21748532161E+02 -0.37117704197E+02 -0.10513863879E+02  0.44286159798E+02  0.00000000000E+00 0. -1.
</event>
<event>
 7    1  0.2084210E-015  0.9000781E+02  0.7816164E-02  0.1186339E+00
        -11   -1    0    0    0    0  0.00000000000E+00  0.00000000000E+00  0.45593999997E+02  0.45594000000E+02  0.51100000000E-03 0.  1.
         11   -1    0    0    0    0 -0.00000000000E+00 -0.00000000000E+00 -0.45593999997E+02  0.45594000000E+02  0.51100000000E-03 0. -1.
    9900012    2    1    2    0    0 -0.71192981095E+00  0.49544811714E+00  0.80034040786E+00  0.90007806092E+02  0.90000068332E+02 0.  0.
         12    1    1    2    0    0  0.71192981095E+00 -0.49544811714E+00 -0.80034040786E+00  0.11801939082E+01  0.00000000000E+00 0. -1.
         11    1    3    3    0    0 -0.39732435239E+01  0.35079036079E+02  0.18236563070E+02  0.39735345339E+02  0.51100000000E-03 0. -1.
        -11    1    3    3    0    0 -0.76581276833E+01  0.25504027192E+01 -0.55009968183E+01  0.97679291510E+01  0.51100000000E-03 0.  1.
        -12    1    3    3    0    0  0.10919441396E+02 -0.37133990681E+02 -0.11935225844E+02  0.40504531602E+02  0.00000000000E+00 0.  1.
</event>
<event>
 7    1  0.2084210E-015  0.9000777E+02  0.7816164E-02  0.1186339E+00
        -11   -1    0    0    0    0  0.00000000000E+00  0.00000000000E+00  0.45593999997E+02  0.45594000000E+02  0.51100000000E-03 0.  1.
         11   -1    0    0    0    0 -0.00000000000E+00 -0.00000000000E+00 -0.45593999997E+02  0.45594000000E+02  0.51100000000E-03 0. -1.
    9900012    2    1    2    0    0  0.74326263857E+00  0.88044075657E+00  0.25557651721E+00  0.90007773483E+02  0.90000035293E+02 0.  0.
         12    1    1    2    0    0 -0.74326263857E+00 -0.88044075657E+00 -0.25557651721E+00  0.11802265172E+01  0.00000000000E+00 0. -1.
         11    1    3    3    0    0 -0.66160689539E+01  0.79703916523E+01  0.10445768574E+02  0.14711002442E+02  0.51100000000E-03 0. -1.
        -11    1    3    3    0    0  0.33202184335E+02  0.18459474527E+02 -0.19785776348E+01  0.38040136883E+02  0.51100000000E-03 0.  1.
         12    1    3    3    0    0 -0.25842852742E+02 -0.25549425423E+02 -0.82116144224E+01  0.37256634157E+02  0.00000000000E+00 0. -1.
</event>
<event>
 7    1  0.2084210E-015  0.9000776E+02  0.7816164E-02  0.1186339E+00
        -11   -1    0    0    0    0  0.00000000000E+00  0.00000000000E+00  0.45593999997E+02  0.45594000000E+02  0.51100000000E-03 0.  1.
         11   -1    0    0    0    0 -0.00000000000E+00 -0.00000000000E+00 -0.45593999997E+02  0.45594000000E+02  0.51100000000E-03 0. -1.
    9900012    2    1    2    0    0 -0.57222972074E+00 -0.25180779602E+00  0.10010568911E+01  0.90007758957E+02  0.90000020576E+02 0.  0.
         12    1    1    2    0    0  0.57222972074E+00  0.25180779602E+00 -0.10010568911E+01  0.11802410426E+01  0.00000000000E+00 0. -1.
         11    1    3    3    0    0  0.38450986299E+01  0.70480877072E+01  0.11641556814E+01  0.81126803533E+01  0.51100000000E-03 0. -1.
        -11    1    3    3    0    0 -0.38698888383E+02  0.34223344777E+01 -0.16779461436E+02  0.42318632559E+02  0.51100000000E-03 0.  1.
         12    1    3    3    0    0  0.34281560032E+02 -0.10722229981E+02  0.16616362645E+02  0.39576446045E+02  0.00000000000E+00 0. -1.
</event>
<event>
 7    1  0.2084210E-015  0.9000772E+02  0.7816164E-02  0.1186339E+00
        -11   -1    0    0    0    0  0.00000000000E+00  0.00000000000E+00  0.45593999997E+02  0.45594000000E+02  0.51100000000E-03 0.  1.
         11   -1    0    0    0    0 -0.00000000000E+00 -0.00000000000E+00 -0.45593999997E+02  0.45594000000E+02  0.51100000000E-03 0. -1.
    9900012    2    1    2    0    0  0.98445896430E+00 -0.62644099632E+00  0.17741487548E+00  0.90007718757E+02  0.89999979845E+02 0.  0.
         12    1    1    2    0    0 -0.98445896430E+00  0.62644099632E+00 -0.17741487548E+00  0.11802812429E+01  0.00000000000E+00 0. -1.
         11    1    3    3    0    0 -0.26476536984E+01  0.23132967315E+01  0.97046013180E+01  0.10321855399E+02  0.51100000000E-03 0. -1.
        -11    1    3    3    0    0 -0.22690534946E+02  0.28636181582E+02 -0.12124143520E+02  0.38495274100E+02  0.51100000000E-03 0.  1.
         12    1    3    3    0    0  0.26322647608E+02 -0.31575919309E+02  0.25969570778E+01  0.41190589258E+02  0.00000000000E+00 0. -1.
</event>
<event>
 7    1  0.2084210E-015  0.9000782E+02  0.7816164E-02  0.1186339E+00
        -11   -1    0    0    0    0  0.00000000000E+00  0.00000000000E+00  0.45593999997E+02  0.45594000000E+02  0.51100000000E-03 0. -1.
         11   -1    0    0    0    0 -0.00000000000E+00 -0.00000000000E+00 -0.45593999997E+02  0.45594000000E+02  0.51100000000E-03 0.  1.
    9900012    2    1    2    0    0  0.27353648074E+00  0.37063183916E+00 -0.10865677948E+01  0.90007822158E+02  0.90000084610E+02 0.  0.
         12    1    1    2    0    0 -0.27353648074E+00 -0.37063183916E+00  0.10865677948E+01  0.11801778422E+01  0.00000000000E+00 0. -1.
         11    1    3    3    0    0  0.20295385515E+01  0.62496161574E+01  0.24491244795E+02  0.25357401300E+02  0.51100000000E-03 0. -1.
        -11    1    3    3    0    0  0.53677391258E+00 -0.10260243005E+02  0.18036030629E+02  0.20757146092E+02  0.51100000000E-03 0.  1.
        -12    1    3    3    0    0 -0.22927759833E+01  0.43812586867E+01 -0.43613843219E+02  0.43893274766E+02  0.00000000000E+00 0.  1.
</event>
<event>
 7    1  0.2084210E-015  0.9000766E+02  0.7816164E-02  0.1186339E+00
        -11   -1    0    0    0    0  0.00000000000E+00  0.00000000000E+00  0.45593999997E+02  0.45594000000E+02  0.51100000000E-03 0.  1.
         11   -1    0    0    0    0 -0.00000000000E+00 -0.00000000000E+00 -0.45593999997E+02  0.45594000000E+02  0.51100000000E-03 0. -1.
    9900012    2    1    2    0    0  0.75504310572E+00 -0.24543448672E+00  0.87343068030E+00  0.90007657113E+02  0.89999917386E+02 0.  0.
         12    1    1    2    0    0 -0.75504310572E+00  0.24543448672E+00 -0.87343068030E+00  0.11803428875E+01  0.00000000000E+00 0. -1.
         11    1    3    3    0    0  0.82016020810E+01  0.19606415700E+00  0.75884018673E+01  0.11175355073E+02  0.51100000000E-03 0. -1.
        -11    1    3    3    0    0 -0.79137834078E+01 -0.15883510026E+01  0.35597792735E+02  0.36501420172E+02  0.51100000000E-03 0.  1.
         12    1    3    3    0    0  0.46722443256E+00  0.11468523589E+01 -0.42312763922E+02  0.42330881868E+02  0.00000000000E+00 0. -1.
</event>
<event>
 7    1  0.2084210E-015  0.9000764E+02  0.7816164E-02  0.1186339E+00
        -11   -1    0    0    0    0  0.00000000000E+00  0.00000000000E+00  0.45593999997E+02  0.45594000000E+02  0.51100000000E-03 0. -1.
         11   -1    0    0    0    0 -0.00000000000E+00 -0.00000000000E+00 -0.45593999997E+02  0.45594000000E+02  0.51100000000E-03 0.  1.
    9900012    2    1    2    0    0 -0.58301572997E+00  0.89662892641E+00 -0.49938686591E+00  0.90007644962E+02  0.89999905076E+02 0.  0.
         12    1    1    2    0    0  0.58301572997E+00 -0.89662892641E+00  0.49938686591E+00  0.11803550377E+01  0.00000000000E+00 0. -1.
         11    1    3    3    0    0  0.68686690024E+01 -0.88562698600E+00  0.73058353344E+01  0.10066686606E+02  0.51100000000E-03 0. -1.
        -11    1    3    3    0    0  0.13911077382E+02 -0.31665026251E+02  0.10627413699E+02  0.36181955221E+02  0.51100000000E-03 0.  1.
         12    1    3    3    0    0 -0.21362762115E+02  0.33447282163E+02 -0.18432635899E+02  0.43759003136E+02  0.00000000000E+00 0. -1.
</event>
<event>
 7    1  0.2084210E-015  0.9000767E+02  0.7816164E-02  0.1186339E+00
        -11   -1    0    0    0    0  0.00000000000E+00  0.00000000000E+00  0.45593999997E+02  0.45594000000E+02  0.51100000000E-03 0. -1.
         11   -1    0    0    0    0 -0.00000000000E+00 -0.00000000000E+00 -0.45593999997E+02  0.45594000000E+02  0.51100000000E-03 0.  1.
    9900012    2    1    2    0    0 -0.10173844216E+01 -0.58577573006E+00 -0.12235676807E+00  0.90007671467E+02  0.89999931930E+02 0.  0.
         12    1    1    2    0    0  0.10173844216E+01  0.58577573006E+00  0.12235676807E+00  0.11803285331E+01  0.00000000000E+00 0. -1.
         11    1    3    3    0    0  0.34139890647E+02  0.42505505195E+01  0.14043224698E+02  0.37159271700E+02  0.51100000000E-03 0. -1.
        -11    1    3    3    0    0  0.11223562006E+01  0.63486911308E+01  0.68898547699E+01  0.94358709999E+01  0.51100000000E-03 0.  1.
        -12    1    3    3    0    0 -0.36279631269E+02 -0.11185017380E+02 -0.21055436236E+02  0.43412528767E+02  0.00000000000E+00 0.  1.
</event>
<event>
 7    1  0.2161856E-015  0.9000767E+02  0.7816164E-02  0.1186339E+00
        -11   -1    0    0    0    0  0.00000000000E+00  0.00000000000E+00  0.45593999997E+02  0.45594000000E+02  0.51100000000E-03 0.  1.
         11   -1    0    0    0    0 -0.00000000000E+00 -0.00000000000E+00 -0.45593999997E+02  0.45594000000E+02  0.51100000000E-03 0. -1.
    9900012    2    1    2    0    0 -0.24128144724E-01 -0.86520170446E+00 -0.80250970835E+00  0.90007670390E+02  0.89999930839E+02 0.  0.
         12    1    1    2    0    0  0.24128144724E-01  0.86520170446E+00  0.80250970835E+00  0.11803296102E+01  0.00000000000E+00 0. -1.
         11    1    3    3    0    0  0.94634087560E+01  0.66595891764E+00 -0.95562467751E+00  0.95348217261E+01  0.51100000000E-03 0. -1.
        -11    1    3    3    0    0 -0.20833822186E+02  0.19601803149E+01 -0.36429714141E+02  0.42012075959E+02  0.51100000000E-03 0.  1.
         12    1    3    3    0    0  0.11346285286E+02 -0.34913409370E+01  0.36582829110E+02  0.38460772704E+02  0.00000000000E+00 0. -1.
</event>
<event>
 7    1  0.2084210E-015  0.9000772E+02  0.7816164E-02  0.1186339E+00
        -11   -1    0    0    0    0  0.00000000000E+00  0.00000000000E+00  0.45593999997E+02  0.45594000000E+02  0.51100000000E-03 0.  1.
         11   -1    0    0    0    0 -0.00000000000E+00 -0.00000000000E+00 -0.45593999997E+02  0.45594000000E+02  0.51100000000E-03 0. -1.
    9900012    2    1    2    0    0  0.79199984854E-01  0.24200105868E-01  0.11773708640E+01  0.90007720188E+02  0.89999981295E+02 0.  0.
         12    1    1    2    0    0 -0.79199984854E-01 -0.24200105868E-01 -0.11773708640E+01  0.11802798118E+01  0.00000000000E+00 0. -1.
         11    1    3    3    0    0  0.24276340976E+02  0.28748748459E+02 -0.92098887084E+00  0.37638802982E+02  0.51100000000E-03 0. -1.
        -11    1    3    3    0    0  0.16038670959E+01  0.53003508972E+01 -0.67804689778E+01  0.87544770897E+01  0.51100000000E-03 0.  1.
        -12    1    3    3    0    0 -0.25801008087E+02 -0.34024899251E+02  0.88788287126E+01  0.43614440116E+02  0.00000000000E+00 0.  1.
</event>
<event>
 7    1  0.2084210E-015  0.9000780E+02  0.7816164E-02  0.1186339E+00
        -11   -1    0    0    0    0  0.00000000000E+00  0.00000000000E+00  0.45593999997E+02  0.45594000000E+02  0.51100000000E-03 0.  1.
         11   -1    0    0    0    0 -0.00000000000E+00 -0.00000000000E+00 -0.45593999997E+02  0.45594000000E+02  0.51100000000E-03 0. -1.
    9900012    2    1    2    0    0 -0.25394437007E+00 -0.85461011404E+00  0.77332192570E+00  0.90007799597E+02  0.90000061752E+02 0.  0.
         12    1    1    2    0    0  0.25394437007E+00  0.85461011404E+00 -0.77332192570E+00  0.11802004028E+01  0.00000000000E+00 0. -1.
         11    1    3    3    0    0  0.73641412568E+01  0.52445520478E+01  0.56293846422E+01  0.10650158419E+02  0.51100000000E-03 0. -1.
        -11    1    3    3    0    0  0.20578864639E+02 -0.57108658027E+01  0.28541420543E+02  0.35647108507E+02  0.51100000000E-03 0.  1.
         12    1    3    3    0    0 -0.28196950266E+02 -0.38829635915E+00 -0.33397483260E+02  0.43710532671E+02  0.00000000000E+00 0. -1.
</event>
<event>
 7    1  0.2084210E-015  0.9000781E+02  0.7816164E-02  0.1186339E+00
        -11   -1    0    0    0    0  0.00000000000E+00  0.00000000000E+00  0.45593999997E+02  0.45594000000E+02  0.51100000000E-03 0.  1.
         11   -1    0    0    0    0 -0.00000000000E+00 -0.00000000000E+00 -0.45593999997E+02  0.45594000000E+02  0.51100000000E-03 0. -1.
    9900012    2    1    2    0    0  0.59308055103E+00 -0.98534035630E+00  0.26498203643E+00  0.90007806949E+02  0.90000069201E+02 0.  0.
         12    1    1    2    0    0 -0.59308055103E+00  0.98534035630E+00 -0.26498203643E+00  0.11801930509E+01  0.00000000000E+00 0. -1.
         11    1    3    3    0    0  0.32367050711E+01  0.60192132071E+01 -0.56672003071E+01  0.88783076615E+01  0.51100000000E-03 0. -1.
        -11    1    3    3    0    0  0.32397745294E+02  0.17875900811E+02 -0.33798584865E+01  0.37156226579E+02  0.51100000000E-03 0.  1.
         12    1    3    3    0    0 -0.35041369814E+02 -0.24880454374E+02  0.93120408300E+01  0.43973272709E+02  0.00000000000E+00 0. -1.
</event>
<event>
 7    1  0.2084210E-015  0.9000786E+02  0.7816164E-02  0.1186339E+00
        -11   -1    0    0    0    0  0.00000000000E+00  0.00000000000E+00  0.45593999997E+02  0.45594000000E+02  0.51100000000E-03 0.  1.
         11   -1    0    0    0    0 -0.00000000000E+00 -0.00000000000E+00 -0.45593999997E+02  0.45594000000E+02  0.51100000000E-03 0. -1.
    9900012    2    1    2    0    0  0.36087568161E+00  0.79755287302E+00  0.79145625082E+00  0.90007862364E+02  0.90000125347E+02 0.  0.
         12    1    1    2    0    0 -0.36087568161E+00 -0.79755287302E+00 -0.79145625082E+00  0.11801376360E+01  0.00000000000E+00 0. -1.
         11    1    3    3    0    0  0.12959477771E+02 -0.30828732992E+02 -0.15605410096E+02  0.36903762228E+02  0.51100000000E-03 0. -1.
        -11    1    3    3    0    0  0.74364161676E+01  0.33733277702E+01 -0.74494225453E+01  0.11053213206E+02  0.51100000000E-03 0.  1.
        -12    1    3    3    0    0 -0.20035018257E+02  0.28252958095E+02  0.23846288893E+02  0.42050886930E+02  0.00000000000E+00 0.  1.
</event>
<event>
 7    1  0.2084210E-015  0.9000781E+02  0.7816164E-02  0.1186339E+00
        -11   -1    0    0    0    0  0.00000000000E+00  0.00000000000E+00  0.45593999997E+02  0.45594000000E+02  0.51100000000E-03 0. -1.
         11   -1    0    0    0    0 -0.00000000000E+00 -0.00000000000E+00 -0.45593999997E+02  0.45594000000E+02  0.51100000000E-03 0.  1.
    9900012    2    1    2    0    0 -0.91412353719E+00  0.53704029143E+00  0.51847331235E+00  0.90007809892E+02  0.90000072182E+02 0.  0.
         12    1    1    2    0    0  0.91412353719E+00 -0.53704029143E+00 -0.51847331235E+00  0.11801901082E+01  0.00000000000E+00 0. -1.
         11    1    3    3    0    0 -0.18468705779E+01  0.13860102055E+01 -0.91031130741E+01  0.93914122007E+01  0.51100000000E-03 0. -1.
        -11    1    3    3    0    0 -0.14999582668E+02 -0.43490580782E+01 -0.32166521141E+02  0.35757333079E+02  0.51100000000E-03 0.  1.
         12    1    3    3    0    0  0.15932329709E+02  0.35000881641E+01  0.41788107528E+02  0.44859064612E+02  0.00000000000E+00 0. -1.
</event>
<event>
 7    1  0.2084210E-015  0.9000771E+02  0.7816164E-02  0.1186339E+00
        -11   -1    0    0    0    0  0.00000000000E+00  0.00000000000E+00  0.45593999997E+02  0.45594000000E+02  0.51100000000E-03 0. -1.
         11   -1    0    0    0    0 -0.00000000000E+00 -0.00000000000E+00 -0.45593999997E+02  0.45594000000E+02  0.51100000000E-03 0.  1.
    9900012    2    1    2    0    0 -0.95535471923E-01 -0.54897975212E+00 -0.10404660096E+01  0.90007713886E+02  0.89999974909E+02 0.  0.
         12    1    1    2    0    0  0.95535471923E-01  0.54897975212E+00  0.10404660096E+01  0.11802861144E+01  0.00000000000E+00 0. -1.
         11    1    3    3    0    0  0.26341558683E+01  0.11884995155E+02  0.17816045890E+00  0.12174712661E+02  0.51100000000E-03 0. -1.
        -11    1    3    3    0    0 -0.33556213623E+02  0.65041893732E+01  0.16029522177E+02  0.37752742067E+02  0.51100000000E-03 0.  1.
         12    1    3    3    0    0  0.30826522283E+02 -0.18938164280E+02 -0.17248148646E+02  0.40080259157E+02  0.00000000000E+00 0. -1.
</event>
<event>
 7    1  0.2084210E-015  0.9000777E+02  0.7816164E-02  0.1186339E+00
        -11   -1    0    0    0    0  0.00000000000E+00  0.00000000000E+00  0.45593999997E+02  0.45594000000E+02  0.51100000000E-03 0. -1.
         11   -1    0    0    0    0 -0.00000000000E+00 -0.00000000000E+00 -0.45593999997E+02  0.45594000000E+02  0.51100000000E-03 0.  1.
    9900012    2    1    2    0    0  0.45152325994E-01  0.77559382839E+00 -0.88845444820E+00  0.90007772977E+02  0.90000034780E+02 0.  0.
         12    1    1    2    0    0 -0.45152325994E-01 -0.77559382839E+00  0.88845444820E+00  0.11802270230E+01  0.00000000000E+00 0. -1.
         11    1    3    3    0    0 -0.39174560545E+01  0.54046729538E+01 -0.44775775315E+01  0.80377641473E+01  0.51100000000E-03 0. -1.
        -11    1    3    3    0    0  0.20498887891E+02  0.19333373650E+02 -0.27502656384E+02  0.39374863173E+02  0.51100000000E-03 0.  1.
         12    1    3    3    0    0 -0.16536279511E+02 -0.23962452776E+02  0.31091779467E+02  0.42595145657E+02  0.00000000000E+00 0. -1.
</event>
<event>
 7    1  0.2084210E-015  0.9000775E+02  0.7816164E-02  0.1186339E+00
        -11   -1    0    0    0    0  0.00000000000E+00  0.00000000000E+00  0.45593999997E+02  0.45594000000E+02  0.51100000000E-03 0.  1.
         11   -1    0    0    0    0 -0.00000000000E+00 -0.00000000000E+00 -0.45593999997E+02  0.45594000000E+02  0.51100000000E-03 0. -1.
    9900012    2    1    2    0    0 -0.40321926353E+00  0.80971974817E+00 -0.75813148148E+00  0.90007747829E+02  0.90000009300E+02 0.  0.
         12    1    1    2    0    0  0.40321926353E+00 -0.80971974817E+00  0.75813148148E+00  0.11802521715E+01  0.00000000000E+00 0. -1.
         11    1    3    3    0    0  0.12424540518E+02 -0.18159164498E+02  0.32954423076E+02  0.39624720351E+02  0.51100000000E-03 0.  1.
        -11    1    3    3    0    0 -0.12791073896E+02 -0.46306798563E+01 -0.15123769418E+02  0.20341660921E+02  0.51100000000E-03 0. -1.
        -12    1    3    3    0    0 -0.36685885762E-01  0.23599564103E+02 -0.18588785139E+02  0.30041366557E+02  0.00000000000E+00 0.  1.
</event>
<event>
 7    1  0.2084210E-015  0.9000779E+02  0.7816164E-02  0.1186339E+00
        -11   -1    0    0    0    0  0.00000000000E+00  0.00000000000E+00  0.45593999997E+02  0.45594000000E+02  0.51100000000E-03 0.  1.
         11   -1    0    0    0    0 -0.00000000000E+00 -0.00000000000E+00 -0.45593999997E+02  0.45594000000E+02  0.51100000000E-03 0. -1.
    9900012    2    1    2    0    0 -0.48484522427E+00 -0.15955364240E+00  0.10641209870E+01  0.90007794200E+02  0.90000056283E+02 0.  0.
         12    1    1    2    0    0  0.48484522427E+00  0.15955364240E+00 -0.10641209870E+01  0.11802058004E+01  0.00000000000E+00 0. -1.
         11    1    3    3    0    0 -0.14541739154E+02  0.33443324111E+02 -0.21077280890E+02  0.42120895945E+02  0.51100000000E-03 0. -1.
        -11    1    3    3    0    0  0.13589663242E+02 -0.83264986796E+01  0.30973978413E+01  0.16235867730E+02  0.51100000000E-03 0.  1.
        -12    1    3    3    0    0  0.46723068804E+00 -0.25276379073E+02  0.19044004036E+02  0.31651030525E+02  0.00000000000E+00 0.  1.
</event>
<event>
 7    1  0.2084210E-015  0.9000777E+02  0.7816164E-02  0.1186339E+00
        -11   -1    0    0    0    0  0.00000000000E+00  0.00000000000E+00  0.45593999997E+02  0.45594000000E+02  0.51100000000E-03 0.  1.
         11   -1    0    0    0    0 -0.00000000000E+00 -0.00000000000E+00 -0.45593999997E+02  0.45594000000E+02  0.51100000000E-03 0. -1.
    9900012    2    1    2    0    0  0.30373937126E+00 -0.67667413447E+00  0.91803650877E+00  0.90007772682E+02  0.90000034482E+02 0.  0.
         12    1    1    2    0    0 -0.30373937126E+00  0.67667413447E+00 -0.91803650877E+00  0.11802273177E+01  0.00000000000E+00 0. -1.
         11    1    3    3    0    0  0.24611603769E+02  0.77282984642E+01 -0.32144734414E+02  0.41215792944E+02  0.51100000000E-03 0. -1.
        -11    1    3    3    0    0 -0.71486199071E+01  0.29112199299E+01 -0.21557314648E+01  0.80140593001E+01  0.51100000000E-03 0.  1.
        -12    1    3    3    0    0 -0.17159244491E+02 -0.11316192529E+02  0.35218502387E+02  0.40777920438E+02  0.00000000000E+00 0.  1.
</event>
<event>
 7    1  0.2084210E-015  0.9000763E+02  0.7816164E-02  0.1186339E+00
        -11   -1    0    0    0    0  0.00000000000E+00  0.00000000000E+00  0.45593999997E+02  0.45594000000E+02  0.51100000000E-03 0. -1.
         11   -1    0    0    0    0 -0.00000000000E+00 -0.00000000000E+00 -0.45593999997E+02  0.45594000000E+02  0.51100000000E-03 0.  1.
    9900012    2    1    2    0    0 -0.59566711748E+00  0.17264516629E+00 -0.10043185950E+01  0.90007626538E+02  0.89999886409E+02 0.  0.
         12    1    1    2    0    0  0.59566711748E+00 -0.17264516629E+00  0.10043185950E+01  0.11803734615E+01  0.00000000000E+00 0. -1.
         11    1    3    3    0    0  0.38901995909E+02  0.18238820144E+02 -0.15476969502E+01  0.42993199603E+02  0.51100000000E-03 0. -1.
        -11    1    3    3    0    0 -0.39143523760E+01  0.15550221326E+01  0.45291128512E+01  0.61849100104E+01  0.51100000000E-03 0.  1.
        -12    1    3    3    0    0 -0.35583310651E+02 -0.19621197110E+02 -0.39857344960E+01  0.40829516926E+02  0.00000000000E+00 0.  1.
</event>
<event>
 7    1  0.2084210E-015  0.9000775E+02  0.7816164E-02  0.1186339E+00
        -11   -1    0    0    0    0  0.00000000000E+00  0.00000000000E+00  0.45593999997E+02  0.45594000000E+02  0.51100000000E-03 0.  1.
         11   -1    0    0    0    0 -0.00000000000E+00 -0.00000000000E+00 -0.45593999997E+02  0.45594000000E+02  0.51100000000E-03 0. -1.
    9900012    2    1    2    0    0  0.76309510928E+00 -0.89893130600E+00 -0.50941386987E-01  0.90007751440E+02  0.90000012959E+02 0.  0.
         12    1    1    2    0    0 -0.76309510928E+00  0.89893130600E+00  0.50941386987E-01  0.11802485601E+01  0.00000000000E+00 0. -1.
         11    1    3    3    0    0  0.21312414872E+02 -0.22659654618E+02 -0.28089990746E+02  0.41913321933E+02  0.51100000000E-03 0. -1.
        -11    1    3    3    0    0 -0.96969223996E+01 -0.18720097701E+01  0.32511157362E-01  0.98760205467E+01  0.51100000000E-03 0.  1.
        -12    1    3    3    0    0 -0.10852397363E+02  0.23632733082E+02  0.28006538201E+02  0.38218408961E+02  0.00000000000E+00 0.  1.
</event>
<event>
 7    1  0.2084210E-015  0.9000769E+02  0.7816164E-02  0.1186339E+00
        -11   -1    0    0    0    0  0.00000000000E+00  0.00000000000E+00  0.45593999997E+02  0.45594000000E+02  0.51100000000E-03 0.  1.
         11   -1    0    0    0    0 -0.00000000000E+00 -0.00000000000E+00 -0.45593999997E+02  0.45594000000E+02  0.51100000000E-03 0. -1.
    9900012    2    1    2    0    0  0.11132839626E+01  0.32469247351E+00  0.21977364822E+00  0.90007692057E+02  0.89999952792E+02 0.  0.
         12    1    1    2    0    0 -0.11132839626E+01 -0.32469247351E+00 -0.21977364822E+00  0.11803079430E+01  0.00000000000E+00 0. -1.
         11    1    3    3    0    0 -0.15327465270E+02  0.32838300299E+02 -0.98167294540E+01  0.37545350385E+02  0.51100000000E-03 0. -1.
        -11    1    3    3    0    0  0.68126284896E+01  0.72983735204E+01  0.50856370855E+01  0.11204546747E+02  0.51100000000E-03 0.  1.
        -12    1    3    3    0    0  0.96281207435E+01 -0.39811981346E+02  0.49508660167E+01  0.41257794925E+02  0.00000000000E+00 0.  1.
</event>
<event>
 7    1  0.2084210E-015  0.9000780E+02  0.7816164E-02  0.1186339E+00
        -11   -1    0    0    0    0  0.00000000000E+00  0.00000000000E+00  0.45593999997E+02  0.45594000000E+02  0.51100000000E-03 0.  1.
         11   -1    0    0    0    0 -0.00000000000E+00 -0.00000000000E+00 -0.45593999997E+02  0.45594000000E+02  0.51100000000E-03 0. -1.
    9900012    2    1    2    0    0 -0.11085411529E+01  0.34466079993E+00  0.21266928209E+00  0.90007795451E+02  0.90000057551E+02 0.  0.
         12    1    1    2    0    0  0.11085411529E+01 -0.34466079993E+00 -0.21266928209E+00  0.11802045493E+01  0.00000000000E+00 0. -1.
         11    1    3    3    0    0 -0.16294025907E+01  0.22981670970E+01 -0.99540554240E+01  0.10345034773E+02  0.51100000000E-03 0. -1.
        -11    1    3    3    0    0 -0.77270540730E+01  0.34497228242E+02  0.20529195641E+02  0.40880484280E+02  0.51100000000E-03 0.  1.
         12    1    3    3    0    0  0.82479155108E+01 -0.36450734539E+02 -0.10362470935E+02  0.38782276398E+02  0.00000000000E+00 0. -1.
</event>
<event>
 7    1  0.2084210E-015  0.9000780E+02  0.7816164E-02  0.1186339E+00
        -11   -1    0    0    0    0  0.00000000000E+00  0.00000000000E+00  0.45593999997E+02  0.45594000000E+02  0.51100000000E-03 0.  1.
         11   -1    0    0    0    0 -0.00000000000E+00 -0.00000000000E+00 -0.45593999997E+02  0.45594000000E+02  0.51100000000E-03 0. -1.
    9900012    2    1    2    0    0 -0.31606911485E+00  0.90811066645E+00 -0.68433351357E+00  0.90007797888E+02  0.90000060020E+02 0.  0.
         12    1    1    2    0    0  0.31606911485E+00 -0.90811066645E+00  0.68433351357E+00  0.11802021122E+01  0.00000000000E+00 0. -1.
         11    1    3    3    0    0  0.15027635996E+01 -0.19870055735E+02 -0.26441685947E+02  0.33109517806E+02  0.51100000000E-03 0. -1.
        -11    1    3    3    0    0 -0.30664233439E+01  0.20688586040E+02 -0.85306711122E+01  0.22587449930E+02  0.51100000000E-03 0.  1.
        -12    1    3    3    0    0  0.12475906294E+01  0.89580361563E-01  0.34288023546E+02  0.34310830152E+02  0.00000000000E+00 0.  1.
</event>
<event>
 7    1  0.2084210E-015  0.9000776E+02  0.7816164E-02  0.1186339E+00
        -11   -1    0    0    0    0  0.00000000000E+00  0.00000000000E+00  0.45593999997E+02  0.45594000000E+02  0.51100000000E-03 0.  1.
         11   -1    0    0    0    0 -0.00000000000E+00 -0.00000000000E+00 -0.45593999997E+02  0.45594000000E+02  0.51100000000E-03 0. -1.
    9900012    2    1    2    0    0  0.11021897929E+01  0.39101697471E+00  0.15893362570E+00  0.90007755741E+02  0.90000017317E+02 0.  0.
         12    1    1    2    0    0 -0.11021897929E+01 -0.39101697471E+00 -0.15893362570E+00  0.11802442592E+01  0.00000000000E+00 0. -1.
         11    1    3    3    0    0 -0.85509650388E+01 -0.10282582641E+01  0.81435530221E+00  0.86509821970E+01  0.51100000000E-03 0. -1.
        -11    1    3    3    0    0 -0.66622346072E+01  0.38695513191E+02 -0.78320056022E+01  0.40038336917E+02  0.51100000000E-03 0.  1.
         12    1    3    3    0    0  0.16315389439E+02 -0.37276237952E+02  0.71765839256E+01  0.41318436627E+02  0.00000000000E+00 0. -1.
</event>
<event>
 7    1  0.2084210E-015  0.9000768E+02  0.7816164E-02  0.1186339E+00
        -11   -1    0    0    0    0  0.00000000000E+00  0.00000000000E+00  0.45593999997E+02  0.45594000000E+02  0.51100000000E-03 0. -1.
         11   -1    0    0    0    0 -0.00000000000E+00 -0.00000000000E+00 -0.45593999997E+02  0.45594000000E+02  0.51100000000E-03 0.  1.
    9900012    2    1    2    0    0 -0.16431426092E+00 -0.10178827497E+01 -0.57451559444E+00  0.90007681129E+02  0.89999941720E+02 0.  0.
         12    1    1    2    0    0  0.16431426092E+00  0.10178827497E+01  0.57451559444E+00  0.11803188708E+01  0.00000000000E+00 0. -1.
         11    1    3    3    0    0  0.37408701849E+02  0.40515497185E+01  0.68025617865E+01  0.38237427689E+02  0.51100000000E-03 0. -1.
        -11    1    3    3    0    0  0.23382400028E+01 -0.15348038492E+01  0.82896340690E+01  0.87487726239E+01  0.51100000000E-03 0.  1.
        -12    1    3    3    0    0 -0.39911256113E+02 -0.35346286190E+01 -0.15666711450E+02  0.43021480816E+02  0.00000000000E+00 0.  1.
</event>
<event>
 7    1  0.2129836E-015  0.9000774E+02  0.7816164E-02  0.1186339E+00
        -11   -1    0    0    0    0  0.00000000000E+00  0.00000000000E+00  0.45593999997E+02  0.45594000000E+02  0.51100000000E-03 0.  1.
         11   -1    0    0    0    0 -0.00000000000E+00 -0.00000000000E+00 -0.45593999997E+02  0.45594000000E+02  0.51100000000E-03 0. -1.
    9900012    2    1    2    0    0 -0.39850869737E+00  0.36881353589E+00  0.10479463221E+01  0.90007735580E+02  0.89999996890E+02 0.  0.
         12    1    1    2    0    0  0.39850869737E+00 -0.36881353589E+00 -0.10479463221E+01  0.11802644196E+01  0.00000000000E+00 0. -1.
         11    1    3    3    0    0  0.22328924330E+01  0.40948718844E+01 -0.35387316592E+02  0.35693360170E+02  0.51100000000E-03 0. -1.
        -11    1    3    3    0    0  0.36868784686E+01  0.11386280367E+01 -0.81522904809E+01  0.90193895023E+01  0.51100000000E-03 0.  1.
        -12    1    3    3    0    0 -0.63182795989E+01 -0.48646863853E+01  0.44587553395E+02  0.45294985909E+02  0.00000000000E+00 0.  1.
</event>
<event>
 7    1  0.2084210E-015  0.9000766E+02  0.7816164E-02  0.1186339E+00
        -11   -1    0    0    0    0  0.00000000000E+00  0.00000000000E+00  0.45593999997E+02  0.45594000000E+02  0.51100000000E-03 0. -1.
         11   -1    0    0    0    0 -0.00000000000E+00 -0.00000000000E+00 -0.45593999997E+02  0.45594000000E+02  0.51100000000E-03 0.  1.
    9900012    2    1    2    0    0  0.11227484206E+01 -0.10091544072E+00 -0.34994139361E+00  0.90007658134E+02  0.89999918421E+02 0.  0.
         12    1    1    2    0    0 -0.11227484206E+01  0.10091544072E+00  0.34994139361E+00  0.11803418661E+01  0.00000000000E+00 0. -1.
         11    1    3    3    0    0 -0.96579223510E+01  0.32278358736E+01  0.58531944826E+01  0.11745393756E+02  0.51100000000E-03 0. -1.
        -11    1    3    3    0    0 -0.81093119283E+01 -0.35598193802E+02  0.94702741655E+01  0.37718409761E+02  0.51100000000E-03 0.  1.
         12    1    3    3    0    0  0.18889982700E+02  0.32269442487E+02 -0.15673410042E+02  0.40543854617E+02  0.00000000000E+00 0. -1.
</event>
<event>
 7    1  0.2084210E-015  0.9000776E+02  0.7816164E-02  0.1186339E+00
        -11   -1    0    0    0    0  0.00000000000E+00  0.00000000000E+00  0.45593999997E+02  0.45594000000E+02  0.51100000000E-03 0.  1.
         11   -1    0    0    0    0 -0.00000000000E+00 -0.00000000000E+00 -0.45593999997E+02  0.45594000000E+02  0.51100000000E-03 0. -1.
    9900012    2    1    2    0    0  0.11592764150E+01  0.20452960664E+00 -0.84908084428E-01  0.90007761232E+02  0.90000022880E+02 0.  0.
         12    1    1    2    0    0 -0.11592764150E+01 -0.20452960664E+00  0.84908084428E-01  0.11802387678E+01  0.00000000000E+00 0. -1.
         11    1    3    3    0    0  0.13643437527E+02 -0.26288430140E+02 -0.20314331053E+02  0.35915135989E+02  0.51100000000E-03 0. -1.
        -11    1    3    3    0    0  0.60522016182E+01 -0.15737085898E+01 -0.80187642182E+01  0.10168887992E+02  0.51100000000E-03 0.  1.
        -12    1    3    3    0    0 -0.18536362730E+02  0.28066668336E+02  0.28248187186E+02  0.43923737251E+02  0.00000000000E+00 0.  1.
</event>
<event>
 7    1  0.2084210E-015  0.9000767E+02  0.7816164E-02  0.1186339E+00
        -11   -1    0    0    0    0  0.00000000000E+00  0.00000000000E+00  0.45593999997E+02  0.45594000000E+02  0.51100000000E-03 0.  1.
         11   -1    0    0    0    0 -0.00000000000E+00 -0.00000000000E+00 -0.45593999997E+02  0.45594000000E+02  0.51100000000E-03 0. -1.
    9900012    2    1    2    0    0  0.85296068656E+00  0.81274857951E+00  0.71228143374E-01  0.90007671387E+02  0.89999931849E+02 0.  0.
         12    1    1    2    0    0 -0.85296068656E+00 -0.81274857951E+00 -0.71228143374E-01  0.11803286130E+01  0.00000000000E+00 0. -1.
         11    1    3    3    0    0  0.27429746593E+02 -0.22073606848E+02  0.11762355203E+02  0.37121262339E+02  0.51100000000E-03 0. -1.
        -11    1    3    3    0    0  0.96148695403E+01  0.39944993516E+01 -0.48719503218E+01  0.11495113812E+02  0.51100000000E-03 0.  1.
        -12    1    3    3    0    0 -0.36191655447E+02  0.18891856076E+02 -0.68191767375E+01  0.41391295237E+02  0.00000000000E+00 0.  1.
</event>
<event>
 7    1  0.2558896E-015  0.9000814E+02  0.7816164E-02  0.1186338E+00
        -11   -1    0    0    0    0  0.00000000000E+00  0.00000000000E+00  0.45593999997E+02  0.45594000000E+02  0.51100000000E-03 0. -1.
         11   -1    0    0    0    0 -0.00000000000E+00 -0.00000000000E+00 -0.45593999997E+02  0.45594000000E+02  0.51100000000E-03 0.  1.
    9900012    2    1    2    0    0 -0.21534628035E+00  0.92388806891E+00 -0.70151433384E+00  0.90008141727E+02  0.90000408397E+02 0.  0.
         12    1    1    2    0    0  0.21534628035E+00 -0.92388806891E+00  0.70151433384E+00  0.11798582732E+01  0.00000000000E+00 0. -1.
         11    1    3    3    0    0 -0.29474393884E+02 -0.24728140965E+02  0.90645935047E+00  0.38484315237E+02  0.51100000000E-03 0. -1.
        -11    1    3    3    0    0 -0.32851638373E+00 -0.22889845213E+01  0.91440384000E+01  0.94319039263E+01  0.51100000000E-03 0.  1.
        -12    1    3    3    0    0  0.29587563988E+02  0.27941013556E+02 -0.10752012084E+02  0.42091922564E+02  0.00000000000E+00 0.  1.
</event>
<event>
 7    1  0.2084210E-015  0.9000828E+02  0.7816164E-02  0.1186338E+00
        -11   -1    0    0    0    0  0.00000000000E+00  0.00000000000E+00  0.45593999997E+02  0.45594000000E+02  0.51100000000E-03 0.  1.
         11   -1    0    0    0    0 -0.00000000000E+00 -0.00000000000E+00 -0.45593999997E+02  0.45594000000E+02  0.51100000000E-03 0. -1.
    9900012    2    1    2    0    0  0.73110454270E+00 -0.46957986262E+00  0.79795109093E+00  0.90008277557E+02  0.90000546019E+02 0.  0.
         12    1    1    2    0    0 -0.73110454270E+00  0.46957986262E+00 -0.79795109093E+00  0.11797224433E+01  0.00000000000E+00 0. -1.
         11    1    3    3    0    0  0.18710031819E+02 -0.28433416836E+02  0.13212807925E+02  0.36511680010E+02  0.51100000000E-03 0. -1.
        -11    1    3    3    0    0  0.54660600264E+01 -0.36036382888E+01  0.70500130658E+01  0.96211592658E+01  0.51100000000E-03 0.  1.
        -12    1    3    3    0    0 -0.23444987303E+02  0.31567475262E+02 -0.19464869900E+02  0.43875438280E+02  0.00000000000E+00 0.  1.
</event>
<event>
 7    1  0.2084210E-015  0.9000774E+02  0.7816164E-02  0.1186339E+00
        -11   -1    0    0    0    0  0.00000000000E+00  0.00000000000E+00  0.45593999997E+02  0.45594000000E+02  0.51100000000E-03 0.  1.
         11   -1    0    0    0    0 -0.00000000000E+00 -0.00000000000E+00 -0.45593999997E+02  0.45594000000E+02  0.51100000000E-03 0. -1.
    9900012    2    1    2    0    0  0.91901323552E+00 -0.44888183455E+00  0.58901714563E+00  0.90007736713E+02  0.89999998038E+02 0.  0.
         12    1    1    2    0    0 -0.91901323552E+00  0.44888183455E+00 -0.58901714563E+00  0.11802632869E+01  0.00000000000E+00 0. -1.
         11    1    3    3    0    0 -0.70021597358E+01 -0.20540871271E+01  0.57451816130E+01  0.92874445850E+01  0.51100000000E-03 0. -1.
        -11    1    3    3    0    0 -0.24940907506E+02  0.64891700466E+00  0.25567013179E+02  0.35723131493E+02  0.51100000000E-03 0.  1.
         12    1    3    3    0    0  0.32862080477E+02  0.95628828793E+00 -0.30723177646E+02  0.44997160636E+02  0.00000000000E+00 0. -1.
</event>
<event>
 7    1  0.2084210E-015  0.9000774E+02  0.7816164E-02  0.1186339E+00
        -11   -1    0    0    0    0  0.00000000000E+00  0.00000000000E+00  0.45593999997E+02  0.45594000000E+02  0.51100000000E-03 0. -1.
         11   -1    0    0    0    0 -0.00000000000E+00 -0.00000000000E+00 -0.45593999997E+02  0.45594000000E+02  0.51100000000E-03 0.  1.
    9900012    2    1    2    0    0  0.89111016165E+00  0.38105011362E+00 -0.67359363512E+00  0.90007743717E+02  0.90000005134E+02 0.  0.
         12    1    1    2    0    0 -0.89111016165E+00 -0.38105011362E+00  0.67359363511E+00  0.11802562834E+01  0.00000000000E+00 0. -1.
         11    1    3    3    0    0  0.34324051094E+02  0.15172049408E+00  0.75665699790E+01  0.35148491918E+02  0.51100000000E-03 0. -1.
        -11    1    3    3    0    0  0.90329580551E+01 -0.35032216166E+01  0.40385720638E+01  0.10496521209E+02  0.51100000000E-03 0.  1.
        -12    1    3    3    0    0 -0.42465898987E+02  0.37325512362E+01 -0.12278735678E+02  0.44362730590E+02  0.00000000000E+00 0.  1.
</event>
<event>
 7    1  0.2084210E-015  0.9000792E+02  0.7816164E-02  0.1186339E+00
        -11   -1    0    0    0    0  0.00000000000E+00  0.00000000000E+00  0.45593999997E+02  0.45594000000E+02  0.51100000000E-03 0.  1.
         11   -1    0    0    0    0 -0.00000000000E+00 -0.00000000000E+00 -0.45593999997E+02  0.45594000000E+02  0.51100000000E-03 0. -1.
    9900012    2    1    2    0    0  0.70466268931E+00 -0.80417304174E+00  0.49933625627E+00  0.90007923526E+02  0.90000187317E+02 0.  0.
         12    1    1    2    0    0 -0.70466268931E+00  0.80417304174E+00 -0.49933625627E+00  0.11800764736E+01  0.00000000000E+00 0. -1.
         11    1    3    3    0    0 -0.26070350938E+02  0.17687268966E+02 -0.13360604099E+02  0.34220000345E+02  0.51100000000E-03 0. -1.
        -11    1    3    3    0    0 -0.64358838705E+01  0.74433308514E+01 -0.31717336945E+01  0.10338455893E+02  0.51100000000E-03 0.  1.
        -12    1    3    3    0    0  0.33210897498E+02 -0.25934772859E+02  0.17031674050E+02  0.45449467288E+02  0.00000000000E+00 0.  1.
</event>
<event>
 7    1  0.2084210E-015  0.9000771E+02  0.7816164E-02  0.1186339E+00
        -11   -1    0    0    0    0  0.00000000000E+00  0.00000000000E+00  0.45593999997E+02  0.45594000000E+02  0.51100000000E-03 0.  1.
         11   -1    0    0    0    0 -0.00000000000E+00 -0.00000000000E+00 -0.45593999997E+02  0.45594000000E+02  0.51100000000E-03 0. -1.
    9900012    2    1    2    0    0  0.10774596922E+01  0.11480543325E+00  0.46794634556E+00  0.90007714671E+02  0.89999975705E+02 0.  0.
         12    1    1    2    0    0 -0.10774596922E+01 -0.11480543325E+00 -0.46794634556E+00  0.11802853291E+01  0.00000000000E+00 0. -1.
         11    1    3    3    0    0  0.46215598029E+01 -0.45128280266E+01  0.81782218689E+01  0.10421503970E+02  0.51100000000E-03 0. -1.
        -11    1    3    3    0    0 -0.29439607847E+02  0.13430042719E+02  0.22057607884E+02  0.39161136647E+02  0.51100000000E-03 0.  1.
         12    1    3    3    0    0  0.25895507736E+02 -0.88024092596E+01 -0.29767883407E+02  0.40425074054E+02  0.00000000000E+00 0. -1.
</event>
<event>
 7    1  0.2084210E-015  0.9000772E+02  0.7816164E-02  0.1186339E+00
        -11   -1    0    0    0    0  0.00000000000E+00  0.00000000000E+00  0.45593999997E+02  0.45594000000E+02  0.51100000000E-03 0.  1.
         11   -1    0    0    0    0 -0.00000000000E+00 -0.00000000000E+00 -0.45593999997E+02  0.45594000000E+02  0.51100000000E-03 0. -1.
    9900012    2    1    2    0    0 -0.23057238340E+00 -0.55648491548E+00  0.10149992965E+01  0.90007719247E+02  0.89999980341E+02 0.  0.
         12    1    1    2    0    0  0.23057238340E+00  0.55648491548E+00 -0.10149992965E+01  0.11802807534E+01  0.00000000000E+00 0. -1.
         11    1    3    3    0    0  0.23709293036E+01  0.15414107315E+02 -0.37717362090E+02  0.40814402034E+02  0.51100000000E-03 0. -1.
        -11    1    3    3    0    0 -0.63251898617E+00 -0.78973749198E+01 -0.15413754254E+01  0.80712111455E+01  0.51100000000E-03 0.  1.
        -12    1    3    3    0    0 -0.19689827008E+01 -0.80732173106E+01  0.40273736812E+02  0.41122106067E+02  0.00000000000E+00 0.  1.
</event>
<event>
 7    1  0.3182962E-015  0.9000782E+02  0.7816164E-02  0.1186339E+00
        -11   -1    0    0    0    0  0.00000000000E+00  0.00000000000E+00  0.45593999997E+02  0.45594000000E+02  0.51100000000E-03 0.  1.
         11   -1    0    0    0    0 -0.00000000000E+00 -0.00000000000E+00 -0.45593999997E+02  0.45594000000E+02  0.51100000000E-03 0. -1.
    9900012    2    1    2    0    0 -0.38711117006E+00  0.10303784715E+01  0.42577888911E+00  0.90007820982E+02  0.90000083419E+02 0.  0.
         12    1    1    2    0    0  0.38711117006E+00 -0.10303784715E+01 -0.42577888911E+00  0.11801790182E+01  0.00000000000E+00 0. -1.
         11    1    3    3    0    0 -0.84216936508E+01  0.10475860676E+02 -0.36620511086E+02  0.39009363150E+02  0.51100000000E-03 0. -1.
        -11    1    3    3    0    0 -0.89137781622E+01  0.35458634974E+01  0.17596115449E+01  0.97531954824E+01  0.51100000000E-03 0.  1.
        -12    1    3    3    0    0  0.16948360643E+02 -0.12991345702E+02  0.35286678431E+02  0.41245262350E+02  0.00000000000E+00 0.  1.
</event>
<event>
 7    1  0.2084210E-015  0.9000774E+02  0.7816164E-02  0.1186339E+00
        -11   -1    0    0    0    0  0.00000000000E+00  0.00000000000E+00  0.45593999997E+02  0.45594000000E+02  0.51100000000E-03 0.  1.
         11   -1    0    0    0    0 -0.00000000000E+00 -0.00000000000E+00 -0.45593999997E+02  0.45594000000E+02  0.51100000000E-03 0. -1.
    9900012    2    1    2    0    0 -0.56829694330E+00 -0.10344314173E+01  0.21628467321E-02  0.90007739668E+02  0.90000001032E+02 0.  0.
         12    1    1    2    0    0  0.56829694330E+00  0.10344314173E+01 -0.21628467321E-02  0.11802603318E+01  0.00000000000E+00 0. -1.
         11    1    3    3    0    0  0.35191091781E+02 -0.68974126406E+01 -0.50965342037E+01  0.36221014660E+02  0.51100000000E-03 0. -1.
        -11    1    3    3    0    0  0.86920823912E+01  0.20088055750E+01  0.57380184316E+00  0.89396221927E+01  0.51100000000E-03 0.  1.
        -12    1    3    3    0    0 -0.44451471116E+02  0.38541756483E+01  0.45248952073E+01  0.44847102815E+02  0.00000000000E+00 0.  1.
</event>
<event>
 7    1  0.2084210E-015  0.9000774E+02  0.7816164E-02  0.1186339E+00
        -11   -1    0    0    0    0  0.00000000000E+00  0.00000000000E+00  0.45593999997E+02  0.45594000000E+02  0.51100000000E-03 0.  1.
         11   -1    0    0    0    0 -0.00000000000E+00 -0.00000000000E+00 -0.45593999997E+02  0.45594000000E+02  0.51100000000E-03 0. -1.
    9900012    2    1    2    0    0  0.13475073129E-02  0.10364886750E+01  0.56452988010E+00  0.90007743852E+02  0.90000005271E+02 0.  0.
         12    1    1    2    0    0 -0.13475073129E-02 -0.10364886750E+01 -0.56452988010E+00  0.11802561479E+01  0.00000000000E+00 0. -1.
         11    1    3    3    0    0 -0.12576450856E+01  0.71434724358E+01 -0.12660759064E+02  0.14591288153E+02  0.51100000000E-03 0. -1.
        -11    1    3    3    0    0 -0.28532866376E+02 -0.50098382380E+01  0.29588453846E+02  0.41408930728E+02  0.51100000000E-03 0.  1.
         12    1    3    3    0    0  0.29791858969E+02 -0.10971455227E+01 -0.16363164901E+02  0.34007524972E+02  0.00000000000E+00 0. -1.
</event>
<event>
 7    1  0.2084210E-015  0.9000773E+02  0.7816164E-02  0.1186339E+00
        -11   -1    0    0    0    0  0.00000000000E+00  0.00000000000E+00  0.45593999997E+02  0.45594000000E+02  0.51100000000E-03 0.  1.
         11   -1    0    0    0    0 -0.00000000000E+00 -0.00000000000E+00 -0.45593999997E+02  0.45594000000E+02  0.51100000000E-03 0. -1.
    9900012    2    1    2    0    0  0.25741446171E-01  0.34637556617E+00 -0.11280052688E+01  0.90007731157E+02  0.89999992408E+02 0.  0.
         12    1    1    2    0    0 -0.25741446171E-01 -0.34637556617E+00  0.11280052688E+01  0.11802688428E+01  0.00000000000E+00 0. -1.
         11    1    3    3    0    0  0.74827735956E+01 -0.30488452486E+01  0.63557357193E+01  0.10280210836E+02  0.51100000000E-03 0. -1.
        -11    1    3    3    0    0  0.17164529832E+02 -0.18466264878E+02  0.23536432817E+02  0.34490400011E+02  0.51100000000E-03 0.  1.
         12    1    3    3    0    0 -0.24621561981E+02  0.21861485693E+02 -0.31020173805E+02  0.45237120311E+02  0.00000000000E+00 0. -1.
</event>
<event>
 7    1  0.2084210E-015  0.9000771E+02  0.7816164E-02  0.1186339E+00
        -11   -1    0    0    0    0  0.00000000000E+00  0.00000000000E+00  0.45593999997E+02  0.45594000000E+02  0.51100000000E-03 0. -1.
         11   -1    0    0    0    0 -0.00000000000E+00 -0.00000000000E+00 -0.45593999997E+02  0.45594000000E+02  0.51100000000E-03 0.  1.
    9900012    2    1    2    0    0  0.26185919650E+00 -0.10835727603E+01 -0.38779587696E+00  0.90007709439E+02  0.89999970404E+02 0.  0.
         12    1    1    2    0    0 -0.26185919650E+00  0.10835727603E+01  0.38779587696E+00  0.11802905607E+01  0.00000000000E+00 0. -1.
         11    1    3    3    0    0 -0.31216219848E+00 -0.42443988804E+01 -0.98997739009E+01  0.10775801160E+02  0.51100000000E-03 0. -1.
        -11    1    3    3    0    0 -0.46005092514E+01 -0.22832142976E+02 -0.26008910102E+02  0.34913247389E+02  0.51100000000E-03 0.  1.
         12    1    3    3    0    0  0.51745306464E+01  0.25992969096E+02  0.35520888126E+02  0.44318660890E+02  0.00000000000E+00 0. -1.
</event>
<event>
 7    1  0.2084210E-015  0.9000768E+02  0.7816164E-02  0.1186339E+00
        -11   -1    0    0    0    0  0.00000000000E+00  0.00000000000E+00  0.45593999997E+02  0.45594000000E+02  0.51100000000E-03 0.  1.
         11   -1    0    0    0    0 -0.00000000000E+00 -0.00000000000E+00 -0.45593999997E+02  0.45594000000E+02  0.51100000000E-03 0. -1.
    9900012    2    1    2    0    0 -0.19106870055E+00 -0.72293732722E+00 -0.91323896367E+00  0.90007681809E+02  0.89999942409E+02 0.  0.
         12    1    1    2    0    0  0.19106870055E+00  0.72293732722E+00  0.91323896367E+00  0.11803181911E+01  0.00000000000E+00 0. -1.
         11    1    3    3    0    0  0.33712512901E+00  0.17433278181E+02 -0.33084836466E+02  0.37398385603E+02  0.51100000000E-03 0. -1.
        -11    1    3    3    0    0  0.38471849596E+01  0.10403827361E+02  0.28685320533E+01  0.11457265480E+02  0.51100000000E-03 0.  1.
        -12    1    3    3    0    0 -0.43753787892E+01 -0.28560042869E+02  0.29303065449E+02  0.41152030726E+02  0.00000000000E+00 0.  1.
</event>
<event>
 7    1  0.2084210E-015  0.9000773E+02  0.7816164E-02  0.1186339E+00
        -11   -1    0    0    0    0  0.00000000000E+00  0.00000000000E+00  0.45593999997E+02  0.45594000000E+02  0.51100000000E-03 0. -1.
         11   -1    0    0    0    0 -0.00000000000E+00 -0.00000000000E+00 -0.45593999997E+02  0.45594000000E+02  0.51100000000E-03 0.  1.
    9900012    2    1    2    0    0  0.11480677414E+01 -0.99456164306E-01  0.25511815235E+00  0.90007730396E+02  0.89999991637E+02 0.  0.
         12    1    1    2    0    0 -0.11480677414E+01  0.99456164306E-01 -0.25511815235E+00  0.11802696044E+01  0.00000000000E+00 0. -1.
         11    1    3    3    0    0 -0.42335477163E+00 -0.31633111745E+02  0.13192811650E+02  0.34276570240E+02  0.51100000000E-03 0. -1.
        -11    1    3    3    0    0 -0.50530207176E+00 -0.88643876545E+01  0.63509326855E+01  0.10916365920E+02  0.51100000000E-03 0.  1.
        -12    1    3    3    0    0  0.20767245848E+01  0.40398043236E+02 -0.19288626183E+02  0.44814794235E+02  0.00000000000E+00 0.  1.
</event>
<event>
 7    1  0.2084210E-015  0.9000776E+02  0.7816164E-02  0.1186339E+00
        -11   -1    0    0    0    0  0.00000000000E+00  0.00000000000E+00  0.45593999997E+02  0.45594000000E+02  0.51100000000E-03 0. -1.
         11   -1    0    0    0    0 -0.00000000000E+00 -0.00000000000E+00 -0.45593999997E+02  0.45594000000E+02  0.51100000000E-03 0.  1.
    9900012    2    1    2    0    0 -0.11621556428E+01  0.17641481125E+00  0.10598831776E+00  0.90007762123E+02  0.90000023783E+02 0.  0.
         12    1    1    2    0    0  0.11621556428E+01 -0.17641481125E+00 -0.10598831776E+00  0.11802378774E+01  0.00000000000E+00 0. -1.
         11    1    3    3    0    0  0.14745379642E+02  0.29564466421E+01 -0.58127014376E+00  0.15050072185E+02  0.51100000000E-03 0. -1.
        -11    1    3    3    0    0 -0.13368750229E+02  0.52559703775E+01 -0.35239966374E+02  0.38055274767E+02  0.51100000000E-03 0.  1.
         12    1    3    3    0    0 -0.25387850559E+01 -0.80360022083E+01  0.35927224836E+02  0.36902415171E+02  0.00000000000E+00 0. -1.
</event>
<event>
 7    1  0.2084210E-015  0.9000787E+02  0.7816164E-02  0.1186339E+00
        -11   -1    0    0    0    0  0.00000000000E+00  0.00000000000E+00  0.45593999997E+02  0.45594000000E+02  0.51100000000E-03 0.  1.
         11   -1    0    0    0    0 -0.00000000000E+00 -0.00000000000E+00 -0.45593999997E+02  0.45594000000E+02  0.51100000000E-03 0. -1.
    9900012    2    1    2    0    0  0.27647352912E+00  0.10728198067E+01  0.40659480312E+00  0.90007873192E+02  0.90000136318E+02 0.  0.
         12    1    1    2    0    0 -0.27647352912E+00 -0.10728198067E+01 -0.40659480312E+00  0.11801268084E+01  0.00000000000E+00 0. -1.
         11    1    3    3    0    0 -0.29844486909E+01 -0.84020312535E+01  0.33414249269E+00  0.89225957344E+01  0.51100000000E-03 0. -1.
        -11    1    3    3    0    0  0.28747346594E+02 -0.24290770656E+02  0.68118972355E+01  0.38247266823E+02  0.51100000000E-03 0.  1.
         12    1    3    3    0    0 -0.25486424374E+02  0.33765621716E+02 -0.67394449250E+01  0.42838010634E+02  0.00000000000E+00 0. -1.
</event>
<event>
 7    1  0.2084210E-015  0.9000773E+02  0.7816164E-02  0.1186339E+00
        -11   -1    0    0    0    0  0.00000000000E+00  0.00000000000E+00  0.45593999997E+02  0.45594000000E+02  0.51100000000E-03 0.  1.
         11   -1    0    0    0    0 -0.00000000000E+00 -0.00000000000E+00 -0.45593999997E+02  0.45594000000E+02  0.51100000000E-03 0. -1.
    9900012    2    1    2    0    0 -0.72792725382E+00  0.58546577925E+00  0.72138342287E+00  0.90007727867E+02  0.89999989075E+02 0.  0.
         12    1    1    2    0    0  0.72792725382E+00 -0.58546577925E+00 -0.72138342287E+00  0.11802721332E+01  0.00000000000E+00 0. -1.
         11    1    3    3    0    0  0.24222871010E+02 -0.13771136508E+02 -0.32404670840E+02  0.42737037487E+02  0.51100000000E-03 0. -1.
        -11    1    3    3    0    0 -0.33379092404E+01  0.72912897442E+01  0.12503295818E+01  0.81159022022E+01  0.51100000000E-03 0.  1.
        -12    1    3    3    0    0 -0.21612889024E+02  0.70653125431E+01  0.31875724681E+02  0.39154788177E+02  0.00000000000E+00 0.  1.
</event>
<event>
 7    1  0.2084210E-015  0.9000771E+02  0.7816164E-02  0.1186339E+00
        -11   -1    0    0    0    0  0.00000000000E+00  0.00000000000E+00  0.45593999997E+02  0.45594000000E+02  0.51100000000E-03 0. -1.
         11   -1    0    0    0    0 -0.00000000000E+00 -0.00000000000E+00 -0.45593999997E+02  0.45594000000E+02  0.51100000000E-03 0.  1.
    9900012    2    1    2    0    0  0.28121393023E+00  0.11093363833E+01  0.28875314336E+00  0.90007708992E+02  0.89999969951E+02 0.  0.
         12    1    1    2    0    0 -0.28121393023E+00 -0.11093363833E+01 -0.28875314336E+00  0.11802910080E+01  0.00000000000E+00 0. -1.
         11    1    3    3    0    0 -0.72437935581E+01 -0.41569852595E+02  0.78394135906E+01  0.42918313056E+02  0.51100000000E-03 0. -1.
        -11    1    3    3    0    0  0.67438701433E+01  0.41025345256E+01 -0.14391644844E+01  0.80238250678E+01  0.51100000000E-03 0.  1.
        -12    1    3    3    0    0  0.78113734500E+00  0.38576654453E+02 -0.61114959629E+01  0.39065570868E+02  0.00000000000E+00 0.  1.
</event>
<event>
 7    1  0.2084210E-015  0.9000774E+02  0.7816164E-02  0.1186339E+00
        -11   -1    0    0    0    0  0.00000000000E+00  0.00000000000E+00  0.45593999997E+02  0.45594000000E+02  0.51100000000E-03 0. -1.
         11   -1    0    0    0    0 -0.00000000000E+00 -0.00000000000E+00 -0.45593999997E+02  0.45594000000E+02  0.51100000000E-03 0.  1.
    9900012    2    1    2    0    0  0.85763439951E+00 -0.70652564114E+00 -0.39785748169E+00  0.90007743324E+02  0.90000004736E+02 0.  0.
         12    1    1    2    0    0 -0.85763439951E+00  0.70652564114E+00  0.39785748169E+00  0.11802566757E+01  0.00000000000E+00 0. -1.
         11    1    3    3    0    0 -0.91988010884E+01 -0.24604141953E+01  0.34643871733E+02  0.35928671397E+02  0.51100000000E-03 0. -1.
        -11    1    3    3    0    0 -0.43105248307E+01 -0.28074554685E+01  0.74156916156E+01  0.90252375549E+01  0.51100000000E-03 0.  1.
        -12    1    3    3    0    0  0.14366960319E+02  0.45613440227E+01 -0.42457420830E+02  0.45053834372E+02  0.00000000000E+00 0.  1.
</event>
<event>
 7    1  0.2084210E-015  0.9000758E+02  0.7816164E-02  0.1186339E+00
        -11   -1    0    0    0    0  0.00000000000E+00  0.00000000000E+00  0.45593999997E+02  0.45594000000E+02  0.51100000000E-03 0.  1.
         11   -1    0    0    0    0 -0.00000000000E+00 -0.00000000000E+00 -0.45593999997E+02  0.45594000000E+02  0.51100000000E-03 0. -1.
    9900012    2    1    2    0    0  0.72161656491E+00 -0.26212891698E+00  0.89663269643E+00  0.90007579639E+02  0.89999838890E+02 0.  0.
         12    1    1    2    0    0 -0.72161656491E+00  0.26212891698E+00 -0.89663269643E+00  0.11804203608E+01  0.00000000000E+00 0. -1.
         11    1    3    3    0    0 -0.76824409031E+01  0.18225069682E+01  0.42634891895E+01  0.89732251843E+01  0.51100000000E-03 0. -1.
        -11    1    3    3    0    0 -0.17574384467E+02  0.96659164564E+01  0.30661944595E+02  0.36639374680E+02  0.51100000000E-03 0.  1.
         12    1    3    3    0    0  0.25978441935E+02 -0.11750552342E+02 -0.34028801088E+02  0.44394979775E+02  0.00000000000E+00 0. -1.
</event>
<event>
 7    1  0.2084210E-015  0.9000774E+02  0.7816164E-02  0.1186339E+00
        -11   -1    0    0    0    0  0.00000000000E+00  0.00000000000E+00  0.45593999997E+02  0.45594000000E+02  0.51100000000E-03 0.  1.
         11   -1    0    0    0    0 -0.00000000000E+00 -0.00000000000E+00 -0.45593999997E+02  0.45594000000E+02  0.51100000000E-03 0. -1.
    9900012    2    1    2    0    0  0.25651489455E+00  0.32779372993E+00  0.11044283983E+01  0.90007741254E+02  0.90000002639E+02 0.  0.
         12    1    1    2    0    0 -0.25651489455E+00 -0.32779372993E+00 -0.11044283983E+01  0.11802587460E+01  0.00000000000E+00 0. -1.
         11    1    3    3    0    0  0.22672185324E+02  0.29447823227E+02 -0.72190564934E+01  0.37859174015E+02  0.51100000000E-03 0. -1.
        -11    1    3    3    0    0  0.68778238167E+01  0.57522234281E+00 -0.48156574302E+01  0.84158123757E+01  0.51100000000E-03 0.  1.
        -12    1    3    3    0    0 -0.29293494247E+02 -0.29695251840E+02  0.13139142322E+02  0.43732754863E+02  0.00000000000E+00 0.  1.
</event>
<event>
 7    1  0.2084210E-015  0.9000765E+02  0.7816164E-02  0.1186339E+00
        -11   -1    0    0    0    0  0.00000000000E+00  0.00000000000E+00  0.45593999997E+02  0.45594000000E+02  0.51100000000E-03 0. -1.
         11   -1    0    0    0    0 -0.00000000000E+00 -0.00000000000E+00 -0.45593999997E+02  0.45594000000E+02  0.51100000000E-03 0.  1.
    9900012    2    1    2    0    0  0.59193581527E+00  0.27900096685E+00 -0.98234251058E+00  0.90007649901E+02  0.89999910079E+02 0.  0.
         12    1    1    2    0    0 -0.59193581527E+00 -0.27900096685E+00  0.98234251058E+00  0.11803500993E+01  0.00000000000E+00 0. -1.
         11    1    3    3    0    0  0.19269267333E+02  0.43882998854E+01 -0.19965436566E+02  0.28092356558E+02  0.51100000000E-03 0. -1.
        -11    1    3    3    0    0  0.13254191506E+02  0.15220848628E+02  0.32565621968E+00  0.20185486808E+02  0.51100000000E-03 0.  1.
        -12    1    3    3    0    0 -0.31931523024E+02 -0.19330147547E+02  0.18657437836E+02  0.41729806535E+02  0.00000000000E+00 0.  1.
</event>
<event>
 7    1  0.2084210E-015  0.9000746E+02  0.7816164E-02  0.1186340E+00
        -11   -1    0    0    0    0  0.00000000000E+00  0.00000000000E+00  0.45593999997E+02  0.45594000000E+02  0.51100000000E-03 0.  1.
         11   -1    0    0    0    0 -0.00000000000E+00 -0.00000000000E+00 -0.45593999997E+02  0.45594000000E+02  0.51100000000E-03 0. -1.
    9900012    2    1    2    0    0  0.11950202089E+00  0.10980168400E+01  0.41683170796E+00  0.90007461823E+02  0.89999719519E+02 0.  0.
         12    1    1    2    0    0 -0.11950202089E+00 -0.10980168400E+01 -0.41683170796E+00  0.11805381767E+01  0.00000000000E+00 0. -1.
         11    1    3    3    0    0  0.63366586915E+01  0.25019382908E+02 -0.15257511935E+02  0.29981901794E+02  0.51100000000E-03 0. -1.
        -11    1    3    3    0    0  0.46007823979E+01  0.85435313811E+01 -0.12412407182E+02  0.15755220704E+02  0.51100000000E-03 0.  1.
        -12    1    3    3    0    0 -0.10817939069E+02 -0.32464897449E+02  0.28086750824E+02  0.44270339325E+02  0.00000000000E+00 0.  1.
</event>
<event>
 7    1  0.2084210E-015  0.9000769E+02  0.7816164E-02  0.1186339E+00
        -11   -1    0    0    0    0  0.00000000000E+00  0.00000000000E+00  0.45593999997E+02  0.45594000000E+02  0.51100000000E-03 0. -1.
         11   -1    0    0    0    0 -0.00000000000E+00 -0.00000000000E+00 -0.45593999997E+02  0.45594000000E+02  0.51100000000E-03 0.  1.
    9900012    2    1    2    0    0  0.92077465377E+00  0.55687660353E+00 -0.48497426919E+00  0.90007687517E+02  0.89999948193E+02 0.  0.
         12    1    1    2    0    0 -0.92077465377E+00 -0.55687660353E+00  0.48497426919E+00  0.11803124825E+01  0.00000000000E+00 0. -1.
         11    1    3    3    0    0 -0.35779595982E+01  0.98842483667E+01 -0.14375758768E+01  0.10609749541E+02  0.51100000000E-03 0. -1.
        -11    1    3    3    0    0 -0.18119437839E+02  0.27216179397E+02 -0.11489796669E+02  0.34656166498E+02  0.51100000000E-03 0.  1.
         12    1    3    3    0    0  0.22618172091E+02 -0.36543551161E+02  0.12442398276E+02  0.44741771478E+02  0.00000000000E+00 0. -1.
</event>
<event>
 7    1  0.2084210E-015  0.9000824E+02  0.7816164E-02  0.1186338E+00
        -11   -1    0    0    0    0  0.00000000000E+00  0.00000000000E+00  0.45593999997E+02  0.45594000000E+02  0.51100000000E-03 0.  1.
         11   -1    0    0    0    0 -0.00000000000E+00 -0.00000000000E+00 -0.45593999997E+02  0.45594000000E+02  0.51100000000E-03 0. -1.
    9900012    2    1    2    0    0  0.64918420831E+00 -0.87118790361E+00  0.45980774023E+00  0.90008240848E+02  0.90000508825E+02 0.  0.
         12    1    1    2    0    0 -0.64918420831E+00  0.87118790361E+00 -0.45980774023E+00  0.11797591524E+01  0.00000000000E+00 0. -1.
         11    1    3    3    0    0  0.13686978207E+02  0.99899696595E+01 -0.39572607519E+02  0.43047928317E+02  0.51100000000E-03 0. -1.
        -11    1    3    3    0    0 -0.44646971107E+01 -0.77056254913E+01  0.39551629689E+01  0.97444085954E+01  0.51100000000E-03 0.  1.
        -12    1    3    3    0    0 -0.85730968876E+01 -0.31555320718E+01  0.36077252291E+02  0.37215903935E+02  0.00000000000E+00 0.  1.
</event>
<event>
 7    1  0.2084210E-015  0.9000778E+02  0.7816164E-02  0.1186339E+00
        -11   -1    0    0    0    0  0.00000000000E+00  0.00000000000E+00  0.45593999997E+02  0.45594000000E+02  0.51100000000E-03 0.  1.
         11   -1    0    0    0    0 -0.00000000000E+00 -0.00000000000E+00 -0.45593999997E+02  0.45594000000E+02  0.51100000000E-03 0. -1.
    9900012    2    1    2    0    0  0.11270568822E+01 -0.28286214693E-01  0.34907695388E+00  0.90007783052E+02  0.90000044988E+02 0.  0.
         12    1    1    2    0    0 -0.11270568822E+01  0.28286214693E-01 -0.34907695388E+00  0.11802169485E+01  0.00000000000E+00 0. -1.
         11    1    3    3    0    0  0.43111426495E+02  0.12049867641E+01  0.36110984321E+01  0.43279176514E+02  0.51100000000E-03 0. -1.
        -11    1    3    3    0    0 -0.56658749406E+01 -0.45471660319E+01  0.56297444058E+01  0.91909129089E+01  0.51100000000E-03 0.  1.
        -12    1    3    3    0    0 -0.36318494672E+02  0.33138930531E+01 -0.88917658841E+01  0.37537693629E+02  0.00000000000E+00 0.  1.
</event>
<event>
 7    1  0.2084210E-015  0.9000773E+02  0.7816164E-02  0.1186339E+00
        -11   -1    0    0    0    0  0.00000000000E+00  0.00000000000E+00  0.45593999997E+02  0.45594000000E+02  0.51100000000E-03 0. -1.
         11   -1    0    0    0    0 -0.00000000000E+00 -0.00000000000E+00 -0.45593999997E+02  0.45594000000E+02  0.51100000000E-03 0.  1.
    9900012    2    1    2    0    0 -0.10480480262E+01  0.21676789575E+00  0.49763496295E+00  0.90007731580E+02  0.89999992837E+02 0.  0.
         12    1    1    2    0    0  0.10480480262E+01 -0.21676789575E+00 -0.49763496295E+00  0.11802684195E+01  0.00000000000E+00 0. -1.
         11    1    3    3    0    0  0.16696557016E+01  0.23327568661E+02  0.30330441050E+02  0.38300115722E+02  0.51100000000E-03 0. -1.
        -11    1    3    3    0    0  0.72758879033E+01  0.63327089702E+01 -0.17369777777E+01  0.98009611643E+01  0.51100000000E-03 0.  1.
        -12    1    3    3    0    0 -0.99935916311E+01 -0.29443509735E+02 -0.28095828309E+02  0.41906654694E+02  0.00000000000E+00 0.  1.
</event>
<event>
 7    1  0.2084210E-015  0.9000735E+02  0.7816164E-02  0.1186340E+00
        -11   -1    0    0    0    0  0.00000000000E+00  0.00000000000E+00  0.45593999997E+02  0.45594000000E+02  0.51100000000E-03 0.  1.
         11   -1    0    0    0    0 -0.00000000000E+00 -0.00000000000E+00 -0.45593999997E+02  0.45594000000E+02  0.51100000000E-03 0. -1.
    9900012    2    1    2    0    0  0.85426839935E-01  0.78985513530E+00  0.87335782673E+00  0.90007354933E+02  0.89999611218E+02 0.  0.
         12    1    1    2    0    0 -0.85426839935E-01 -0.78985513530E+00 -0.87335782673E+00  0.11806450666E+01  0.00000000000E+00 0. -1.
         11    1    3    3    0    0  0.20265042306E+02 -0.20810086895E+02 -0.16820510602E+02  0.33565774732E+02  0.51100000000E-03 0. -1.
        -11    1    3    3    0    0  0.91430706549E+01  0.11874424511E+02 -0.73315919916E+01  0.16683822699E+02  0.51100000000E-03 0.  1.
         12    1    3    3    0    0 -0.29322686121E+02  0.97255175196E+01  0.25025460420E+02  0.39757757502E+02  0.00000000000E+00 0. -1.
</event>
<event>
 7    1  0.2084210E-015  0.9000774E+02  0.7816164E-02  0.1186339E+00
        -11   -1    0    0    0    0  0.00000000000E+00  0.00000000000E+00  0.45593999997E+02  0.45594000000E+02  0.51100000000E-03 0. -1.
         11   -1    0    0    0    0 -0.00000000000E+00 -0.00000000000E+00 -0.45593999997E+02  0.45594000000E+02  0.51100000000E-03 0.  1.
    9900012    2    1    2    0    0  0.63952845600E+00  0.89423571270E+00 -0.42936514083E+00  0.90007742155E+02  0.90000003552E+02 0.  0.
         12    1    1    2    0    0 -0.63952845600E+00 -0.89423571270E+00  0.42936514083E+00  0.11802578447E+01  0.00000000000E+00 0. -1.
         11    1    3    3    0    0 -0.49697109857E+01 -0.45206246227E+01  0.59637227538E+01  0.89833214129E+01  0.51100000000E-03 0. -1.
        -11    1    3    3    0    0 -0.21759405122E+02  0.14429350122E+02 -0.32811499957E+02  0.41931758679E+02  0.51100000000E-03 0.  1.
         12    1    3    3    0    0  0.27368644563E+02 -0.90144897865E+01  0.26418412062E+02  0.39092662064E+02  0.00000000000E+00 0. -1.
</event>
<event>
 7    1  0.2084210E-015  0.9000772E+02  0.7816164E-02  0.1186339E+00
        -11   -1    0    0    0    0  0.00000000000E+00  0.00000000000E+00  0.45593999997E+02  0.45594000000E+02  0.51100000000E-03 0.  1.
         11   -1    0    0    0    0 -0.00000000000E+00 -0.00000000000E+00 -0.45593999997E+02  0.45594000000E+02  0.51100000000E-03 0. -1.
    9900012    2    1    2    0    0 -0.11494960675E+01  0.11908540782E-01  0.26752843932E+00  0.90007722707E+02  0.89999983847E+02 0.  0.
         12    1    1    2    0    0  0.11494960675E+01 -0.11908540782E-01 -0.26752843932E+00  0.11802772930E+01  0.00000000000E+00 0. -1.
         11    1    3    3    0    0 -0.33896583034E+02  0.49010393761E+01 -0.96717066285E+00  0.34262719502E+02  0.51100000000E-03 0. -1.
        -11    1    3    3    0    0 -0.57222919766E+00  0.16245923608E+02 -0.28666563707E+00  0.16258525689E+02  0.51100000000E-03 0.  1.
        -12    1    3    3    0    0  0.33319316164E+02 -0.21135054443E+02  0.15213647392E+01  0.39486477516E+02  0.00000000000E+00 0.  1.
</event>
<event>
 7    1  0.2084210E-015  0.9000773E+02  0.7816164E-02  0.1186339E+00
        -11   -1    0    0    0    0  0.00000000000E+00  0.00000000000E+00  0.45593999997E+02  0.45594000000E+02  0.51100000000E-03 0. -1.
         11   -1    0    0    0    0 -0.00000000000E+00 -0.00000000000E+00 -0.45593999997E+02  0.45594000000E+02  0.51100000000E-03 0.  1.
    9900012    2    1    2    0    0  0.91179139592E+00  0.50086895762E+00 -0.55748831783E+00  0.90007734569E+02  0.89999995866E+02 0.  0.
         12    1    1    2    0    0 -0.91179139592E+00 -0.50086895762E+00  0.55748831783E+00  0.11802654307E+01  0.00000000000E+00 0. -1.
         11    1    3    3    0    0  0.27007511126E+02  0.14035762545E+02  0.22584933382E+02  0.37901022460E+02  0.51100000000E-03 0. -1.
        -11    1    3    3    0    0  0.33792770250E+01 -0.45671036563E+01  0.69928958095E+01  0.90099134892E+01  0.51100000000E-03 0.  1.
        -12    1    3    3    0    0 -0.29474996755E+02 -0.89677899308E+01 -0.30135317509E+02  0.43096798620E+02  0.00000000000E+00 0.  1.
</event>
<event>
 7    1  0.2084210E-015  0.9000791E+02  0.7816164E-02  0.1186339E+00
        -11   -1    0    0    0    0  0.00000000000E+00  0.00000000000E+00  0.45593999997E+02  0.45594000000E+02  0.51100000000E-03 0.  1.
         11   -1    0    0    0    0 -0.00000000000E+00 -0.00000000000E+00 -0.45593999997E+02  0.45594000000E+02  0.51100000000E-03 0. -1.
    9900012    2    1    2    0    0 -0.10546265457E+01 -0.52108927204E+00  0.94002300693E-01  0.90007912032E+02  0.90000175670E+02 0.  0.
         12    1    1    2    0    0  0.10546265457E+01  0.52108927204E+00 -0.94002300693E-01  0.11800879683E+01  0.00000000000E+00 0. -1.
         11    1    3    3    0    0  0.81350517714E+01  0.10888533319E+01 -0.33570010504E+02  0.34558794459E+02  0.51100000000E-03 0. -1.
        -11    1    3    3    0    0 -0.57937125540E+00  0.22575590648E+01 -0.10260490150E+02  0.10521877321E+02  0.51100000000E-03 0.  1.
        -12    1    3    3    0    0 -0.86103070617E+01 -0.38675016687E+01  0.43924502955E+02  0.44927240252E+02  0.00000000000E+00 0.  1.
</event>
<event>
 7    1  0.2084210E-015  0.9000775E+02  0.7816164E-02  0.1186339E+00
        -11   -1    0    0    0    0  0.00000000000E+00  0.00000000000E+00  0.45593999997E+02  0.45594000000E+02  0.51100000000E-03 0.  1.
         11   -1    0    0    0    0 -0.00000000000E+00 -0.00000000000E+00 -0.45593999997E+02  0.45594000000E+02  0.51100000000E-03 0. -1.
    9900012    2    1    2    0    0 -0.10266155086E+01  0.57680089933E+00  0.79725464328E-01  0.90007747980E+02  0.90000009454E+02 0.  0.
         12    1    1    2    0    0  0.10266155086E+01 -0.57680089933E+00 -0.79725464328E-01  0.11802520195E+01  0.00000000000E+00 0. -1.
         11    1    3    3    0    0 -0.70061004991E+01 -0.34922160540E+01 -0.87006903215E+01  0.11703974945E+02  0.51100000000E-03 0. -1.
        -11    1    3    3    0    0 -0.10977573298E+02 -0.77006414044E+01  0.39263197673E+02  0.41489826287E+02  0.51100000000E-03 0.  1.
         12    1    3    3    0    0  0.16957058289E+02  0.11769658358E+02 -0.30482781887E+02  0.36813946749E+02  0.00000000000E+00 0. -1.
</event>
<event>
 7    1  0.2084210E-015  0.9000775E+02  0.7816164E-02  0.1186339E+00
        -11   -1    0    0    0    0  0.00000000000E+00  0.00000000000E+00  0.45593999997E+02  0.45594000000E+02  0.51100000000E-03 0. -1.
         11   -1    0    0    0    0 -0.00000000000E+00 -0.00000000000E+00 -0.45593999997E+02  0.45594000000E+02  0.51100000000E-03 0.  1.
    9900012    2    1    2    0    0 -0.16884976474E+00 -0.85548767399E+00  0.79537230073E+00  0.90007751509E+02  0.90000013029E+02 0.  0.
         12    1    1    2    0    0  0.16884976474E+00  0.85548767399E+00 -0.79537230073E+00  0.11802484909E+01  0.00000000000E+00 0. -1.
         11    1    3    3    0    0  0.71060932684E+00 -0.93157687454E+00 -0.72450083175E+01  0.73391380195E+01  0.51100000000E-03 0. -1.
        -11    1    3    3    0    0  0.21032163907E+00 -0.12844104576E+02 -0.35229167849E+02  0.37498126955E+02  0.51100000000E-03 0.  1.
         12    1    3    3    0    0 -0.10897807306E+01  0.12920193776E+02  0.43269548467E+02  0.45170486535E+02  0.00000000000E+00 0. -1.
</event>
<event>
 7    1  0.2084210E-015  0.9000785E+02  0.7816164E-02  0.1186339E+00
        -11   -1    0    0    0    0  0.00000000000E+00  0.00000000000E+00  0.45593999997E+02  0.45594000000E+02  0.51100000000E-03 0. -1.
         11   -1    0    0    0    0 -0.00000000000E+00 -0.00000000000E+00 -0.45593999997E+02  0.45594000000E+02  0.51100000000E-03 0.  1.
    9900012    2    1    2    0    0 -0.37051887279E+00 -0.85670284851E+00  0.72216547407E+00  0.90007852985E+02  0.90000115844E+02 0.  0.
         12    1    1    2    0    0  0.37051887279E+00  0.85670284851E+00 -0.72216547407E+00  0.11801470153E+01  0.00000000000E+00 0. -1.
         11    1    3    3    0    0  0.94158183406E+01  0.45824308909E+01 -0.81917878178E+01  0.13295175659E+02  0.51100000000E-03 0. -1.
        -11    1    3    3    0    0 -0.16282672709E+02  0.17607154607E+02 -0.25359648465E+02  0.34903425254E+02  0.51100000000E-03 0.  1.
         12    1    3    3    0    0  0.64963354952E+01 -0.23046288347E+02  0.34273601757E+02  0.41809252072E+02  0.00000000000E+00 0. -1.
</event>
<event>
 7    1  0.2084210E-015  0.9000786E+02  0.7816164E-02  0.1186339E+00
        -11   -1    0    0    0    0  0.00000000000E+00  0.00000000000E+00  0.45593999997E+02  0.45594000000E+02  0.51100000000E-03 0.  1.
         11   -1    0    0    0    0 -0.00000000000E+00 -0.00000000000E+00 -0.45593999997E+02  0.45594000000E+02  0.51100000000E-03 0. -1.
    9900012    2    1    2    0    0 -0.10899515821E+00  0.78400108317E+00  0.87532507884E+00  0.90007859484E+02  0.90000122430E+02 0.  0.
         12    1    1    2    0    0  0.10899515821E+00 -0.78400108317E+00 -0.87532507884E+00  0.11801405156E+01  0.00000000000E+00 0. -1.
         11    1    3    3    0    0 -0.11350962448E+01 -0.10053466082E+02  0.30434780483E+01  0.10565196763E+02  0.51100000000E-03 0. -1.
        -11    1    3    3    0    0  0.24564512011E+02  0.12951395205E+02  0.29115815726E+02  0.40235365212E+02  0.51100000000E-03 0.  1.
         12    1    3    3    0    0 -0.23538410925E+02 -0.21139280399E+01 -0.31283968695E+02  0.39207297509E+02  0.00000000000E+00 0. -1.
</event>
<event>
 7    1  0.2084210E-015  0.9000771E+02  0.7816164E-02  0.1186339E+00
        -11   -1    0    0    0    0  0.00000000000E+00  0.00000000000E+00  0.45593999997E+02  0.45594000000E+02  0.51100000000E-03 0. -1.
         11   -1    0    0    0    0 -0.00000000000E+00 -0.00000000000E+00 -0.45593999997E+02  0.45594000000E+02  0.51100000000E-03 0.  1.
    9900012    2    1    2    0    0  0.50673747509E+00  0.51874484047E+00 -0.93124372385E+00  0.90007705989E+02  0.89999966908E+02 0.  0.
         12    1    1    2    0    0 -0.50673747509E+00 -0.51874484047E+00  0.93124372385E+00  0.11802940106E+01  0.00000000000E+00 0. -1.
         11    1    3    3    0    0  0.70314024473E+01 -0.80729566994E+01 -0.10313079617E+02  0.14865155959E+02  0.51100000000E-03 0. -1.
        -11    1    3    3    0    0  0.23174442147E+02 -0.11421590890E+02 -0.16766319712E+02  0.30799626365E+02  0.51100000000E-03 0.  1.
         12    1    3    3    0    0 -0.29699107119E+02  0.20013292430E+02  0.26148155605E+02  0.44342923665E+02  0.00000000000E+00 0. -1.
</event>
<event>
 7    1  0.2084210E-015  0.9000779E+02  0.7816164E-02  0.1186339E+00
        -11   -1    0    0    0    0  0.00000000000E+00  0.00000000000E+00  0.45593999997E+02  0.45594000000E+02  0.51100000000E-03 0. -1.
         11   -1    0    0    0    0 -0.00000000000E+00 -0.00000000000E+00 -0.45593999997E+02  0.45594000000E+02  0.51100000000E-03 0.  1.
    9900012    2    1    2    0    0 -0.73773715295E+00  0.69005838759E+00 -0.61030080697E+00  0.90007786562E+02  0.90000048544E+02 0.  0.
         12    1    1    2    0    0  0.73773715295E+00 -0.69005838759E+00  0.61030080697E+00  0.11802134384E+01  0.00000000000E+00 0. -1.
         11    1    3    3    0    0 -0.55465338331E+01 -0.54742856956E+01 -0.69052146155E+01  0.10412196242E+02  0.51100000000E-03 0. -1.
        -11    1    3    3    0    0 -0.26795223873E+02 -0.19668370597E+02 -0.11354557615E+02  0.35124845954E+02  0.51100000000E-03 0.  1.
         12    1    3    3    0    0  0.31604020554E+02  0.25832714681E+02  0.17649471423E+02  0.44470744366E+02  0.00000000000E+00 0. -1.
</event>
<event>
 7    1  0.2084210E-015  0.9000776E+02  0.7816164E-02  0.1186339E+00
        -11   -1    0    0    0    0  0.00000000000E+00  0.00000000000E+00  0.45593999997E+02  0.45594000000E+02  0.51100000000E-03 0.  1.
         11   -1    0    0    0    0 -0.00000000000E+00 -0.00000000000E+00 -0.45593999997E+02  0.45594000000E+02  0.51100000000E-03 0. -1.
    9900012    2    1    2    0    0 -0.19578342513E+00 -0.27906131539E+00  0.11299347713E+01  0.90007763179E+02  0.90000024852E+02 0.  0.
         12    1    1    2    0    0  0.19578342513E+00  0.27906131539E+00 -0.11299347713E+01  0.11802368215E+01  0.00000000000E+00 0. -1.
         11    1    3    3    0    0  0.15863116907E+02  0.29794822481E+02 -0.18701530299E+02  0.38589080845E+02  0.51100000000E-03 0. -1.
        -11    1    3    3    0    0 -0.59328026709E+01  0.64372043999E+01  0.22495136940E+00  0.87570743629E+01  0.51100000000E-03 0.  1.
        -12    1    3    3    0    0 -0.10126097661E+02 -0.36511088197E+02  0.19606513701E+02  0.42661607971E+02  0.00000000000E+00 0.  1.
</event>
<event>
 7    1  0.2084210E-015  0.9000763E+02  0.7816164E-02  0.1186339E+00
        -11   -1    0    0    0    0  0.00000000000E+00  0.00000000000E+00  0.45593999997E+02  0.45594000000E+02  0.51100000000E-03 0. -1.
         11   -1    0    0    0    0 -0.00000000000E+00 -0.00000000000E+00 -0.45593999997E+02  0.45594000000E+02  0.51100000000E-03 0.  1.
    9900012    2    1    2    0    0  0.75709344902E+00  0.50735961303E+00 -0.75010902084E+00  0.90007632341E+02  0.89999892288E+02 0.  0.
         12    1    1    2    0    0 -0.75709344902E+00 -0.50735961303E+00  0.75010902084E+00  0.11803676591E+01  0.00000000000E+00 0. -1.
         11    1    3    3    0    0 -0.86226891888E+01  0.39241062161E+02  0.83140936399E+00  0.40185855350E+02  0.51100000000E-03 0. -1.
        -11    1    3    3    0    0 -0.45504013076E+01 -0.32983303383E+00  0.67318635421E+01  0.81322154977E+01  0.51100000000E-03 0.  1.
        -12    1    3    3    0    0  0.13930183945E+02 -0.38403869515E+02 -0.83133819269E+01  0.41689561493E+02  0.00000000000E+00 0.  1.
</event>
<event>
 7    1  0.2084210E-015  0.9000777E+02  0.7816164E-02  0.1186339E+00
        -11   -1    0    0    0    0  0.00000000000E+00  0.00000000000E+00  0.45593999997E+02  0.45594000000E+02  0.51100000000E-03 0. -1.
         11   -1    0    0    0    0 -0.00000000000E+00 -0.00000000000E+00 -0.45593999997E+02  0.45594000000E+02  0.51100000000E-03 0.  1.
    9900012    2    1    2    0    0  0.49575181136E-01 -0.23710135958E+00 -0.11551027654E+01  0.90007772415E+02  0.90000034211E+02 0.  0.
         12    1    1    2    0    0 -0.49575181136E-01  0.23710135958E+00  0.11551027654E+01  0.11802275848E+01  0.00000000000E+00 0. -1.
         11    1    3    3    0    0  0.67501497425E+01  0.62791801399E+00  0.58797220539E+00  0.68047420343E+01  0.51100000000E-03 0. -1.
        -11    1    3    3    0    0 -0.23061191548E+02 -0.34280443465E+02 -0.14629239259E+02  0.43829008673E+02  0.51100000000E-03 0.  1.
         12    1    3    3    0    0  0.16360616987E+02  0.33415424091E+02  0.12886164288E+02  0.39374021708E+02  0.00000000000E+00 0. -1.
</event>
<event>
 7    1  0.2084210E-015  0.9000778E+02  0.7816164E-02  0.1186339E+00
        -11   -1    0    0    0    0  0.00000000000E+00  0.00000000000E+00  0.45593999997E+02  0.45594000000E+02  0.51100000000E-03 0. -1.
         11   -1    0    0    0    0 -0.00000000000E+00 -0.00000000000E+00 -0.45593999997E+02  0.45594000000E+02  0.51100000000E-03 0.  1.
    9900012    2    1    2    0    0  0.67819066103E+00 -0.95469535584E-01 -0.96117937397E+00  0.90007778498E+02  0.90000040374E+02 0.  0.
         12    1    1    2    0    0 -0.67819066103E+00  0.95469535584E-01  0.96117937397E+00  0.11802215020E+01  0.00000000000E+00 0. -1.
         11    1    3    3    0    0 -0.19765242995E+02  0.31951406919E+02 -0.96851244892E+01  0.38798954514E+02  0.51100000000E-03 0. -1.
        -11    1    3    3    0    0 -0.88851924972E+01 -0.35810125770E+01  0.20396907241E+01  0.97944185789E+01  0.51100000000E-03 0.  1.
        -12    1    3    3    0    0  0.29328626153E+02 -0.28465863877E+02  0.66842543912E+01  0.41414405405E+02  0.00000000000E+00 0.  1.
</event>
<event>
 7    1  0.2084210E-015  0.9000784E+02  0.7816164E-02  0.1186339E+00
        -11   -1    0    0    0    0  0.00000000000E+00  0.00000000000E+00  0.45593999997E+02  0.45594000000E+02  0.51100000000E-03 0.  1.
         11   -1    0    0    0    0 -0.00000000000E+00 -0.00000000000E+00 -0.45593999997E+02  0.45594000000E+02  0.51100000000E-03 0. -1.
    9900012    2    1    2    0    0  0.47440380070E+00 -0.95365700091E+00  0.50818677531E+00  0.90007841350E+02  0.90000104055E+02 0.  0.
         12    1    1    2    0    0 -0.47440380070E+00  0.95365700091E+00 -0.50818677531E+00  0.11801586504E+01  0.00000000000E+00 0. -1.
         11    1    3    3    0    0  0.26076312454E+02 -0.95459680702E+01 -0.19766956255E+02  0.34085658824E+02  0.51100000000E-03 0. -1.
        -11    1    3    3    0    0  0.10958678609E+02 -0.57859992551E+01  0.18495473959E+01  0.12529614921E+02  0.51100000000E-03 0.  1.
        -12    1    3    3    0    0 -0.36560587263E+02  0.14378310324E+02  0.18425595635E+02  0.43392567604E+02  0.00000000000E+00 0.  1.
</event>
<event>
 7    1  0.2084210E-015  0.9000766E+02  0.7816164E-02  0.1186339E+00
        -11   -1    0    0    0    0  0.00000000000E+00  0.00000000000E+00  0.45593999997E+02  0.45594000000E+02  0.51100000000E-03 0. -1.
         11   -1    0    0    0    0 -0.00000000000E+00 -0.00000000000E+00 -0.45593999997E+02  0.45594000000E+02  0.51100000000E-03 0.  1.
    9900012    2    1    2    0    0 -0.36947417255E+00 -0.86177247476E+00 -0.71696709565E+00  0.90007659041E+02  0.89999919341E+02 0.  0.
         12    1    1    2    0    0  0.36947417255E+00  0.86177247476E+00  0.71696709565E+00  0.11803409587E+01  0.00000000000E+00 0. -1.
         11    1    3    3    0    0  0.29714688740E+02 -0.23635510550E+02  0.19842239974E+02  0.42840571581E+02  0.51100000000E-03 0. -1.
        -11    1    3    3    0    0 -0.87866393187E+01  0.12811713056E+01  0.23847417747E+01  0.91942060029E+01  0.51100000000E-03 0.  1.
        -12    1    3    3    0    0 -0.21297523594E+02  0.21492566770E+02 -0.22943948845E+02  0.37972881458E+02  0.00000000000E+00 0.  1.
</event>
<event>
 7    1  0.2084210E-015  0.9000770E+02  0.7816164E-02  0.1186339E+00
        -11   -1    0    0    0    0  0.00000000000E+00  0.00000000000E+00  0.45593999997E+02  0.45594000000E+02  0.51100000000E-03 0. -1.
         11   -1    0    0    0    0 -0.00000000000E+00 -0.00000000000E+00 -0.45593999997E+02  0.45594000000E+02  0.51100000000E-03 0.  1.
    9900012    2    1    2    0    0 -0.94958581563E+00  0.45154419078E+00 -0.53619313133E+00  0.90007699847E+02  0.89999960685E+02 0.  0.
         12    1    1    2    0    0  0.94958581563E+00 -0.45154419078E+00  0.53619313133E+00  0.11803001532E+01  0.00000000000E+00 0. -1.
         11    1    3    3    0    0  0.80871559080E+01  0.45832584526E+01 -0.25815955552E+00  0.92991932629E+01  0.51100000000E-03 0. -1.
        -11    1    3    3    0    0  0.34577154618E+02 -0.68278407320E+01 -0.84742983364E+01  0.36249313968E+02  0.51100000000E-03 0.  1.
         12    1    3    3    0    0 -0.43613896342E+02  0.26961264702E+01  0.81962647606E+01  0.44459192616E+02  0.00000000000E+00 0. -1.
</event>
<event>
 7    1  0.2084210E-015  0.9000780E+02  0.7816164E-02  0.1186339E+00
        -11   -1    0    0    0    0  0.00000000000E+00  0.00000000000E+00  0.45593999997E+02  0.45594000000E+02  0.51100000000E-03 0.  1.
         11   -1    0    0    0    0 -0.00000000000E+00 -0.00000000000E+00 -0.45593999997E+02  0.45594000000E+02  0.51100000000E-03 0. -1.
    9900012    2    1    2    0    0 -0.10633642249E+01 -0.47457468951E+00 -0.19211294736E+00  0.90007800019E+02  0.90000062179E+02 0.  0.
         12    1    1    2    0    0  0.10633642249E+01  0.47457468951E+00  0.19211294736E+00  0.11801999811E+01  0.00000000000E+00 0. -1.
         11    1    3    3    0    0 -0.81449598947E+01 -0.96958424776E+01 -0.24118984880E+01  0.12890577474E+02  0.51100000000E-03 0. -1.
        -11    1    3    3    0    0  0.14508153812E+02 -0.30428297438E+02  0.11693500191E+02  0.35680607604E+02  0.51100000000E-03 0.  1.
         12    1    3    3    0    0 -0.74265581417E+01  0.39649565227E+02 -0.94737146500E+01  0.41436614941E+02  0.00000000000E+00 0. -1.
</event>
<event>
 7    1  0.2084210E-015  0.9000781E+02  0.7816164E-02  0.1186339E+00
        -11   -1    0    0    0    0  0.00000000000E+00  0.00000000000E+00  0.45593999997E+02  0.45594000000E+02  0.51100000000E-03 0. -1.
         11   -1    0    0    0    0 -0.00000000000E+00 -0.00000000000E+00 -0.45593999997E+02  0.45594000000E+02  0.51100000000E-03 0.  1.
    9900012    2    1    2    0    0  0.61684088903E+00 -0.96432327581E+00 -0.28711365045E+00  0.90007810900E+02  0.90000073204E+02 0.  0.
         12    1    1    2    0    0 -0.61684088903E+00  0.96432327581E+00  0.28711365045E+00  0.11801890996E+01  0.00000000000E+00 0. -1.
         11    1    3    3    0    0  0.59199415513E+01  0.15970186342E+01 -0.40758864195E+01  0.73626779676E+01  0.51100000000E-03 0. -1.
        -11    1    3    3    0    0  0.75721438874E+01 -0.39246612596E+02  0.14163509383E+02  0.42405647756E+02  0.51100000000E-03 0.  1.
         12    1    3    3    0    0 -0.12875244550E+02  0.36685270686E+02 -0.10374736614E+02  0.40239485177E+02  0.00000000000E+00 0. -1.
</event>
<event>
 7    1  0.2084210E-015  0.9000674E+02  0.7816164E-02  0.1186341E+00
        -11   -1    0    0    0    0  0.00000000000E+00  0.00000000000E+00  0.45593999997E+02  0.45594000000E+02  0.51100000000E-03 0. -1.
         11   -1    0    0    0    0 -0.00000000000E+00 -0.00000000000E+00 -0.45593999997E+02  0.45594000000E+02  0.51100000000E-03 0.  1.
    9900012    2    1    2    0    0  0.27255791747E+00 -0.10108577465E+01 -0.54704726662E+00  0.90006737153E+02  0.89998985278E+02 0.  0.
         12    1    1    2    0    0 -0.27255791747E+00  0.10108577465E+01  0.54704726662E+00  0.11812628471E+01  0.00000000000E+00 0. -1.
         11    1    3    3    0    0 -0.96858405577E+01 -0.39662328618E+01 -0.16378777722E+01  0.10593826234E+02  0.51100000000E-03 0. -1.
        -11    1    3    3    0    0 -0.21113714856E+01 -0.26833195441E+02 -0.25966256935E+02  0.37399528962E+02  0.51100000000E-03 0.  1.
         12    1    3    3    0    0  0.12069769961E+02  0.29788570556E+02  0.27057087440E+02  0.42013381957E+02  0.00000000000E+00 0. -1.
</event>
<event>
 7    1  0.2084210E-015  0.9000779E+02  0.7816164E-02  0.1186339E+00
        -11   -1    0    0    0    0  0.00000000000E+00  0.00000000000E+00  0.45593999997E+02  0.45594000000E+02  0.51100000000E-03 0.  1.
         11   -1    0    0    0    0 -0.00000000000E+00 -0.00000000000E+00 -0.45593999997E+02  0.45594000000E+02  0.51100000000E-03 0. -1.
    9900012    2    1    2    0    0  0.10240381526E+01 -0.47819457822E+00  0.33996453204E+00  0.90007788123E+02  0.90000050126E+02 0.  0.
         12    1    1    2    0    0 -0.10240381526E+01  0.47819457822E+00 -0.33996453204E+00  0.11802118775E+01  0.00000000000E+00 0. -1.
         11    1    3    3    0    0 -0.20022838587E+01 -0.20324345575E+00 -0.79733687311E+01  0.82234456122E+01  0.51100000000E-03 0. -1.
        -11    1    3    3    0    0 -0.17918238824E+02  0.35125555005E+02  0.97774754779E+01  0.40625939053E+02  0.51100000000E-03 0.  1.
         12    1    3    3    0    0  0.20944560835E+02 -0.35400506128E+02 -0.14641422147E+01  0.41158403457E+02  0.00000000000E+00 0. -1.
</event>
<event>
 7    1  0.2084210E-015  0.9000777E+02  0.7816164E-02  0.1186339E+00
        -11   -1    0    0    0    0  0.00000000000E+00  0.00000000000E+00  0.45593999997E+02  0.45594000000E+02  0.51100000000E-03 0. -1.
         11   -1    0    0    0    0 -0.00000000000E+00 -0.00000000000E+00 -0.45593999997E+02  0.45594000000E+02  0.51100000000E-03 0.  1.
    9900012    2    1    2    0    0  0.69753922552E+00  0.66475638539E+00  0.68152629544E+00  0.90007771160E+02  0.90000032939E+02 0.  0.
         12    1    1    2    0    0 -0.69753922552E+00 -0.66475638539E+00 -0.68152629544E+00  0.11802288399E+01  0.00000000000E+00 0. -1.
         11    1    3    3    0    0  0.12974933661E+01  0.31376337842E+02 -0.21374843769E+02  0.37987392801E+02  0.51100000000E-03 0. -1.
        -11    1    3    3    0    0  0.42699259353E+01  0.74749782263E+01  0.44178383828E+01  0.96759941719E+01  0.51100000000E-03 0.  1.
        -12    1    3    3    0    0 -0.48698800759E+01 -0.38186559683E+02  0.17638531681E+02  0.42344384188E+02  0.00000000000E+00 0.  1.
</event>
<event>
 7    1  0.2084210E-015  0.9000779E+02  0.7816164E-02  0.1186339E+00
        -11   -1    0    0    0    0  0.00000000000E+00  0.00000000000E+00  0.45593999997E+02  0.45594000000E+02  0.51100000000E-03 0. -1.
         11   -1    0    0    0    0 -0.00000000000E+00 -0.00000000000E+00 -0.45593999997E+02  0.45594000000E+02  0.51100000000E-03 0.  1.
    9900012    2    1    2    0    0  0.54955149207E+00  0.27480640986E+00 -0.10076591701E+01  0.90007787134E+02  0.90000049124E+02 0.  0.
         12    1    1    2    0    0 -0.54955149207E+00 -0.27480640986E+00  0.10076591701E+01  0.11802128658E+01  0.00000000000E+00 0. -1.
         11    1    3    3    0    0 -0.84418201150E+01  0.30260324332E+02  0.16917295514E+02  0.35681177717E+02  0.51100000000E-03 0. -1.
        -11    1    3    3    0    0 -0.16630240171E+00  0.86227554490E+01  0.34112225843E+01  0.92744815382E+01  0.51100000000E-03 0.  1.
        -12    1    3    3    0    0  0.91576740087E+01 -0.38608273371E+02 -0.21336177269E+02  0.45052127879E+02  0.00000000000E+00 0.  1.
</event>
<event>
 7    1  0.2084210E-015  0.9000771E+02  0.7816164E-02  0.1186339E+00
        -11   -1    0    0    0    0  0.00000000000E+00  0.00000000000E+00  0.45593999997E+02  0.45594000000E+02  0.51100000000E-03 0. -1.
         11   -1    0    0    0    0 -0.00000000000E+00 -0.00000000000E+00 -0.45593999997E+02  0.45594000000E+02  0.51100000000E-03 0.  1.
    9900012    2    1    2    0    0  0.83333966690E+00  0.25550181932E+00 -0.79582452118E+00  0.90007714929E+02  0.89999975966E+02 0.  0.
         12    1    1    2    0    0 -0.83333966690E+00 -0.25550181932E+00  0.79582452118E+00  0.11802850709E+01  0.00000000000E+00 0. -1.
         11    1    3    3    0    0  0.31092002550E+02 -0.12934624914E+02  0.84435556863E+01  0.34717585992E+02  0.51100000000E-03 0. -1.
        -11    1    3    3    0    0  0.51610923150E+01  0.14464216495E+02  0.62886946304E+01  0.16595123173E+02  0.51100000000E-03 0.  1.
        -12    1    3    3    0    0 -0.35419755198E+02 -0.12740897620E+01 -0.15528074838E+02  0.38695005765E+02  0.00000000000E+00 0.  1.
</event>
<event>
 7    1  0.2617078E-015  0.9000774E+02  0.7816164E-02  0.1186339E+00
        -11   -1    0    0    0    0  0.00000000000E+00  0.00000000000E+00  0.45593999997E+02  0.45594000000E+02  0.51100000000E-03 0.  1.
         11   -1    0    0    0    0 -0.00000000000E+00 -0.00000000000E+00 -0.45593999997E+02  0.45594000000E+02  0.51100000000E-03 0. -1.
    9900012    2    1    2    0    0 -0.43778673273E+00  0.92091312262E+00  0.59436572684E+00  0.90007742054E+02  0.90000003449E+02 0.  0.
         12    1    1    2    0    0  0.43778673273E+00 -0.92091312262E+00 -0.59436572684E+00  0.11802579464E+01  0.00000000000E+00 0. -1.
         11    1    3    3    0    0 -0.89735776792E+01  0.28151695642E+02 -0.29727863994E+02  0.41914066395E+02  0.51100000000E-03 0. -1.
        -11    1    3    3    0    0  0.73701129207E+01 -0.59514591715E+01 -0.17038136539E+01  0.96250408811E+01  0.51100000000E-03 0.  1.
        -12    1    3    3    0    0  0.11656780258E+01 -0.21279323348E+02  0.32026043375E+02  0.38468634777E+02  0.00000000000E+00 0.  1.
</event>
<event>
 7    1  0.2084210E-015  0.9000778E+02  0.7816164E-02  0.1186339E+00
        -11   -1    0    0    0    0  0.00000000000E+00  0.00000000000E+00  0.45593999997E+02  0.45594000000E+02  0.51100000000E-03 0.  1.
         11   -1    0    0    0    0 -0.00000000000E+00 -0.00000000000E+00 -0.45593999997E+02  0.45594000000E+02  0.51100000000E-03 0. -1.
    9900012    2    1    2    0    0  0.71443543176E+00  0.23704865259E+00  0.90901701246E+00  0.90007778843E+02  0.90000040724E+02 0.  0.
         12    1    1    2    0    0 -0.71443543176E+00 -0.23704865259E+00 -0.90901701246E+00  0.11802211567E+01  0.00000000000E+00 0. -1.
         11    1    3    3    0    0  0.22658196648E+01  0.35504682327E+02  0.11280944627E+02  0.37322595272E+02  0.51100000000E-03 0. -1.
        -11    1    3    3    0    0  0.10952759495E+01  0.66388758201E+01  0.45499830038E+01  0.81226010093E+01  0.51100000000E-03 0.  1.
        -12    1    3    3    0    0 -0.26466601825E+01 -0.41906509494E+02 -0.14921910619E+02  0.44562582562E+02  0.00000000000E+00 0.  1.
</event>
<event>
 7    1  0.2084210E-015  0.9000779E+02  0.7816164E-02  0.1186339E+00
        -11   -1    0    0    0    0  0.00000000000E+00  0.00000000000E+00  0.45593999997E+02  0.45594000000E+02  0.51100000000E-03 0.  1.
         11   -1    0    0    0    0 -0.00000000000E+00 -0.00000000000E+00 -0.45593999997E+02  0.45594000000E+02  0.51100000000E-03 0. -1.
    9900012    2    1    2    0    0 -0.72971936120E+00 -0.73595418228E+00  0.56460192995E+00  0.90007790593E+02  0.90000052629E+02 0.  0.
         12    1    1    2    0    0  0.72971936120E+00  0.73595418228E+00 -0.56460192995E+00  0.11802094068E+01  0.00000000000E+00 0. -1.
         11    1    3    3    0    0 -0.11594286997E+02  0.21549990184E+00 -0.29243882829E+01  0.11959346900E+02  0.51100000000E-03 0. -1.
        -11    1    3    3    0    0 -0.15985529968E+02  0.19234504307E+02  0.27185395967E+02  0.36939803444E+02  0.51100000000E-03 0.  1.
         12    1    3    3    0    0  0.26850097604E+02 -0.20185958391E+02 -0.23696405755E+02  0.41108640250E+02  0.00000000000E+00 0. -1.
</event>
<event>
 7    1  0.2084210E-015  0.9000814E+02  0.7816164E-02  0.1186338E+00
        -11   -1    0    0    0    0  0.00000000000E+00  0.00000000000E+00  0.45593999997E+02  0.45594000000E+02  0.51100000000E-03 0.  1.
         11   -1    0    0    0    0 -0.00000000000E+00 -0.00000000000E+00 -0.45593999997E+02  0.45594000000E+02  0.51100000000E-03 0. -1.
    9900012    2    1    2    0    0 -0.25108916984E+00 -0.88258699280E+00  0.74165821415E+00  0.90008143027E+02  0.90000409714E+02 0.  0.
         12    1    1    2    0    0  0.25108916984E+00  0.88258699280E+00 -0.74165821415E+00  0.11798569734E+01  0.00000000000E+00 0. -1.
         11    1    3    3    0    0  0.41991499200E+02 -0.76379466792E+01  0.83669228902E+00  0.42688690409E+02  0.51100000000E-03 0. -1.
        -11    1    3    3    0    0 -0.37915004479E+01  0.78149887874E+01 -0.15634350259E+01  0.88257495282E+01  0.51100000000E-03 0.  1.
        -12    1    3    3    0    0 -0.38451087922E+02 -0.10596291010E+01  0.14684009510E+01  0.38493703090E+02  0.00000000000E+00 0.  1.
</event>
<event>
 7    1  0.2084210E-015  0.9000776E+02  0.7816164E-02  0.1186339E+00
        -11   -1    0    0    0    0  0.00000000000E+00  0.00000000000E+00  0.45593999997E+02  0.45594000000E+02  0.51100000000E-03 0.  1.
         11   -1    0    0    0    0 -0.00000000000E+00 -0.00000000000E+00 -0.45593999997E+02  0.45594000000E+02  0.51100000000E-03 0. -1.
    9900012    2    1    2    0    0 -0.30053616424E+00  0.10951640927E+01  0.32133783486E+00  0.90007760880E+02  0.90000022524E+02 0.  0.
         12    1    1    2    0    0  0.30053616424E+00 -0.10951640927E+01 -0.32133783486E+00  0.11802391199E+01  0.00000000000E+00 0. -1.
         11    1    3    3    0    0 -0.21157352835E+01 -0.95505834956E+01 -0.97219289849E+00  0.98303174002E+01  0.51100000000E-03 0. -1.
        -11    1    3    3    0    0 -0.32009304514E+02 -0.16498490605E+02  0.61661770695E+01  0.36535154408E+02  0.51100000000E-03 0.  1.
         12    1    3    3    0    0  0.33824503633E+02  0.27144238194E+02 -0.48726463362E+01  0.43642289072E+02  0.00000000000E+00 0. -1.
</event>
<event>
 7    1  0.2084210E-015  0.9000777E+02  0.7816164E-02  0.1186339E+00
        -11   -1    0    0    0    0  0.00000000000E+00  0.00000000000E+00  0.45593999997E+02  0.45594000000E+02  0.51100000000E-03 0. -1.
         11   -1    0    0    0    0 -0.00000000000E+00 -0.00000000000E+00 -0.45593999997E+02  0.45594000000E+02  0.51100000000E-03 0.  1.
    9900012    2    1    2    0    0  0.36795886298E+00 -0.71539913534E+00  0.86356324514E+00  0.90007774968E+02  0.90000036798E+02 0.  0.
         12    1    1    2    0    0 -0.36795886298E+00  0.71539913534E+00 -0.86356324514E+00  0.11802250320E+01  0.00000000000E+00 0. -1.
         11    1    3    3    0    0 -0.81008237127E+01 -0.23670402209E+01 -0.35596621088E+01  0.91595534182E+01  0.51100000000E-03 0. -1.
        -11    1    3    3    0    0 -0.13219405692E+02 -0.16936223646E+02 -0.29504253011E+02  0.36497798622E+02  0.51100000000E-03 0.  1.
         12    1    3    3    0    0  0.21688188268E+02  0.18587864732E+02  0.33927478365E+02  0.44350422928E+02  0.00000000000E+00 0. -1.
</event>
<event>
 7    1  0.2084210E-015  0.9000770E+02  0.7816164E-02  0.1186339E+00
        -11   -1    0    0    0    0  0.00000000000E+00  0.00000000000E+00  0.45593999997E+02  0.45594000000E+02  0.51100000000E-03 0. -1.
         11   -1    0    0    0    0 -0.00000000000E+00 -0.00000000000E+00 -0.45593999997E+02  0.45594000000E+02  0.51100000000E-03 0.  1.
    9900012    2    1    2    0    0  0.31172243218E+00  0.10514689934E+01 -0.43629931806E+00  0.90007697067E+02  0.89999957868E+02 0.  0.
         12    1    1    2    0    0 -0.31172243218E+00 -0.10514689934E+01  0.43629931806E+00  0.11803029330E+01  0.00000000000E+00 0. -1.
         11    1    3    3    0    0  0.61588667486E+01 -0.14781572530E+02  0.26416227815E+02  0.30890833889E+02  0.51100000000E-03 0. -1.
        -11    1    3    3    0    0 -0.14066687574E+01 -0.14955093745E+02  0.37481664316E+01  0.15481676194E+02  0.51100000000E-03 0.  1.
        -12    1    3    3    0    0 -0.44404755591E+01  0.30788135268E+02 -0.30600693565E+02  0.43635186984E+02  0.00000000000E+00 0.  1.
</event>
<event>
 7    1  0.2084210E-015  0.9000769E+02  0.7816164E-02  0.1186339E+00
        -11   -1    0    0    0    0  0.00000000000E+00  0.00000000000E+00  0.45593999997E+02  0.45594000000E+02  0.51100000000E-03 0. -1.
         11   -1    0    0    0    0 -0.00000000000E+00 -0.00000000000E+00 -0.45593999997E+02  0.45594000000E+02  0.51100000000E-03 0.  1.
    9900012    2    1    2    0    0  0.91729428434E+00  0.74213141105E+00 -0.30856489660E-01  0.90007686500E+02  0.89999947162E+02 0.  0.
         12    1    1    2    0    0 -0.91729428434E+00 -0.74213141105E+00  0.30856489660E-01  0.11803135000E+01  0.00000000000E+00 0. -1.
         11    1    3    3    0    0 -0.25637129869E+01  0.16557272426E+02 -0.76505373982E+01  0.18418648626E+02  0.51100000000E-03 0. -1.
        -11    1    3    3    0    0  0.83825302628E+01  0.24791024603E+02 -0.86626138869E+01  0.27566330806E+02  0.51100000000E-03 0.  1.
         12    1    3    3    0    0 -0.49015229916E+01 -0.40606165618E+02  0.16282294796E+02  0.44022707068E+02  0.00000000000E+00 0. -1.
</event>
<event>
 7    1  0.2499048E-015  0.9000778E+02  0.7816164E-02  0.1186339E+00
        -11   -1    0    0    0    0  0.00000000000E+00  0.00000000000E+00  0.45593999997E+02  0.45594000000E+02  0.51100000000E-03 0. -1.
         11   -1    0    0    0    0 -0.00000000000E+00 -0.00000000000E+00 -0.45593999997E+02  0.45594000000E+02  0.51100000000E-03 0.  1.
    9900012    2    1    2    0    0 -0.75332701119E+00  0.41226226453E+00 -0.80960983976E+00  0.90007775507E+02  0.90000037344E+02 0.  0.
         12    1    1    2    0    0  0.75332701119E+00 -0.41226226453E+00  0.80960983976E+00  0.11802244927E+01  0.00000000000E+00 0. -1.
         11    1    3    3    0    0 -0.35283296695E+02 -0.40392985720E+01  0.81788260682E+01  0.36443382866E+02  0.51100000000E-03 0. -1.
        -11    1    3    3    0    0 -0.57533923984E+01 -0.69631343630E+01  0.37796811559E+01  0.97914633303E+01  0.51100000000E-03 0.  1.
        -12    1    3    3    0    0  0.40283362082E+02  0.11414695200E+02 -0.12768117064E+02  0.43772929311E+02  0.00000000000E+00 0.  1.
</event>
<event>
 7    1  0.2084210E-015  0.9000778E+02  0.7816164E-02  0.1186339E+00
        -11   -1    0    0    0    0  0.00000000000E+00  0.00000000000E+00  0.45593999997E+02  0.45594000000E+02  0.51100000000E-03 0.  1.
         11   -1    0    0    0    0 -0.00000000000E+00 -0.00000000000E+00 -0.45593999997E+02  0.45594000000E+02  0.51100000000E-03 0. -1.
    9900012    2    1    2    0    0 -0.13092997723E+00  0.69549293733E+00  0.94448918765E+00  0.90007782685E+02  0.90000044617E+02 0.  0.
         12    1    1    2    0    0  0.13092997723E+00 -0.69549293733E+00 -0.94448918765E+00  0.11802173149E+01  0.00000000000E+00 0. -1.
         11    1    3    3    0    0 -0.19922151065E+01 -0.85426429140E+01 -0.14723740341E+01  0.88945800657E+01  0.51100000000E-03 0. -1.
        -11    1    3    3    0    0 -0.33165355821E+01 -0.17791383108E+02  0.34429875491E+02  0.38896645713E+02  0.51100000000E-03 0.  1.
         12    1    3    3    0    0  0.51778207113E+01  0.27029518959E+02 -0.32013012269E+02  0.42216556906E+02  0.00000000000E+00 0. -1.
</event>
<event>
 7    1  0.2084210E-015  0.9000766E+02  0.7816164E-02  0.1186339E+00
        -11   -1    0    0    0    0  0.00000000000E+00  0.00000000000E+00  0.45593999997E+02  0.45594000000E+02  0.51100000000E-03 0. -1.
         11   -1    0    0    0    0 -0.00000000000E+00 -0.00000000000E+00 -0.45593999997E+02  0.45594000000E+02  0.51100000000E-03 0.  1.
    9900012    2    1    2    0    0 -0.88551207217E+00  0.77396027759E+00 -0.10022794224E+00  0.90007664547E+02  0.89999924919E+02 0.  0.
         12    1    1    2    0    0  0.88551207217E+00 -0.77396027759E+00  0.10022794224E+00  0.11803354530E+01  0.00000000000E+00 0. -1.
         11    1    3    3    0    0  0.47658528363E+01  0.66507186860E+01 -0.23510014277E+01  0.85130852381E+01  0.51100000000E-03 0. -1.
        -11    1    3    3    0    0  0.19219477101E+02  0.24847780800E+02 -0.18901818977E+02  0.36661686699E+02  0.51100000000E-03 0.  1.
         12    1    3    3    0    0 -0.24870842010E+02 -0.30724539209E+02  0.21152592462E+02  0.44832892610E+02  0.00000000000E+00 0. -1.
</event>
<event>
 7    1  0.2084210E-015  0.9000771E+02  0.7816164E-02  0.1186339E+00
        -11   -1    0    0    0    0  0.00000000000E+00  0.00000000000E+00  0.45593999997E+02  0.45594000000E+02  0.51100000000E-03 0. -1.
         11   -1    0    0    0    0 -0.00000000000E+00 -0.00000000000E+00 -0.45593999997E+02  0.45594000000E+02  0.51100000000E-03 0.  1.
    9900012    2    1    2    0    0 -0.10373793082E+01 -0.15758390484E+00  0.54046136376E+00  0.90007708933E+02  0.89999969891E+02 0.  0.
         12    1    1    2    0    0  0.10373793082E+01  0.15758390484E+00 -0.54046136376E+00  0.11802910666E+01  0.00000000000E+00 0. -1.
         11    1    3    3    0    0  0.53392956753E+01 -0.25827724765E+02  0.26607186742E+02  0.37463606759E+02  0.51100000000E-03 0. -1.
        -11    1    3    3    0    0 -0.89734960461E+01  0.16782611996E+01  0.70733897560E+01  0.11548724382E+02  0.51100000000E-03 0.  1.
        -12    1    3    3    0    0  0.25968210626E+01  0.23991879660E+02 -0.33140115134E+02  0.40995377793E+02  0.00000000000E+00 0.  1.
</event>
<event>
 7    1  0.2084210E-015  0.9000774E+02  0.7816164E-02  0.1186339E+00
        -11   -1    0    0    0    0  0.00000000000E+00  0.00000000000E+00  0.45593999997E+02  0.45594000000E+02  0.51100000000E-03 0. -1.
         11   -1    0    0    0    0 -0.00000000000E+00 -0.00000000000E+00 -0.45593999997E+02  0.45594000000E+02  0.51100000000E-03 0.  1.
    9900012    2    1    2    0    0 -0.74261257831E+00  0.80791703556E+00 -0.43453402265E+00  0.90007735964E+02  0.89999997279E+02 0.  0.
         12    1    1    2    0    0  0.74261257831E+00 -0.80791703556E+00  0.43453402265E+00  0.11802640360E+01  0.00000000000E+00 0. -1.
         11    1    3    3    0    0 -0.21707057312E+01  0.16650152776E+01  0.92130003907E+01  0.96105991336E+01  0.51100000000E-03 0. -1.
        -11    1    3    3    0    0  0.85047197400E+01  0.37644168502E+02 -0.13901855569E+02  0.41020425017E+02  0.51100000000E-03 0.  1.
         12    1    3    3    0    0 -0.70766265871E+01 -0.38501266744E+02  0.42543211552E+01  0.39376711813E+02  0.00000000000E+00 0. -1.
</event>
<event>
 7    1  0.2084210E-015  0.9000773E+02  0.7816164E-02  0.1186339E+00
        -11   -1    0    0    0    0  0.00000000000E+00  0.00000000000E+00  0.45593999997E+02  0.45594000000E+02  0.51100000000E-03 0.  1.
         11   -1    0    0    0    0 -0.00000000000E+00 -0.00000000000E+00 -0.45593999997E+02  0.45594000000E+02  0.51100000000E-03 0. -1.
    9900012    2    1    2    0    0  0.11778860645E+01  0.67981451968E-01  0.31666935704E-01  0.90007728907E+02  0.89999990128E+02 0.  0.
         12    1    1    2    0    0 -0.11778860645E+01 -0.67981451968E-01 -0.31666935704E-01  0.11802710932E+01  0.00000000000E+00 0. -1.
         11    1    3    3    0    0 -0.45023549739E+01 -0.13921918694E+00 -0.95772411951E+01  0.10583672872E+02  0.51100000000E-03 0. -1.
        -11    1    3    3    0    0  0.42667580794E+01 -0.35721134030E+02  0.21063032433E+02  0.41687599793E+02  0.51100000000E-03 0.  1.
         12    1    3    3    0    0  0.14134829590E+01  0.35928334669E+02 -0.11454124302E+02  0.37736456242E+02  0.00000000000E+00 0. -1.
</event>
<event>
 7    1  0.2084210E-015  0.9000773E+02  0.7816164E-02  0.1186339E+00
        -11   -1    0    0    0    0  0.00000000000E+00  0.00000000000E+00  0.45593999997E+02  0.45594000000E+02  0.51100000000E-03 0.  1.
         11   -1    0    0    0    0 -0.00000000000E+00 -0.00000000000E+00 -0.45593999997E+02  0.45594000000E+02  0.51100000000E-03 0. -1.
    9900012    2    1    2    0    0  0.98312852514E+00  0.52310924951E+00  0.39096520965E+00  0.90007729362E+02  0.89999990590E+02 0.  0.
         12    1    1    2    0    0 -0.98312852514E+00 -0.52310924951E+00 -0.39096520965E+00  0.11802706380E+01  0.00000000000E+00 0. -1.
         11    1    3    3    0    0  0.71488727491E+01  0.56779183997E+01  0.51251173831E+01  0.10469573410E+02  0.51100000000E-03 0. -1.
        -11    1    3    3    0    0 -0.98436568319E+01 -0.40441529435E+02  0.69232529151E+01  0.42194150235E+02  0.51100000000E-03 0.  1.
         12    1    3    3    0    0  0.36779126079E+01  0.35286720285E+02 -0.11657405089E+02  0.37344005717E+02  0.00000000000E+00 0. -1.
</event>
<event>
 7    1  0.2084210E-015  0.9000773E+02  0.7816164E-02  0.1186339E+00
        -11   -1    0    0    0    0  0.00000000000E+00  0.00000000000E+00  0.45593999997E+02  0.45594000000E+02  0.51100000000E-03 0.  1.
         11   -1    0    0    0    0 -0.00000000000E+00 -0.00000000000E+00 -0.45593999997E+02  0.45594000000E+02  0.51100000000E-03 0. -1.
    9900012    2    1    2    0    0 -0.76851560770E+00 -0.46203237617E+00  0.76743265876E+00  0.90007727556E+02  0.89999988760E+02 0.  0.
         12    1    1    2    0    0  0.76851560770E+00  0.46203237617E+00 -0.76743265876E+00  0.11802724438E+01  0.00000000000E+00 0. -1.
         11    1    3    3    0    0 -0.65175349145E+00 -0.77976332941E+01 -0.50226560785E+01  0.92981149674E+01  0.51100000000E-03 0. -1.
        -11    1    3    3    0    0  0.27222104162E+02 -0.74663456097E+01 -0.24446434512E+02  0.37341899154E+02  0.51100000000E-03 0.  1.
         12    1    3    3    0    0 -0.27338866278E+02  0.14801946528E+02  0.30236523249E+02  0.43367713435E+02  0.00000000000E+00 0. -1.
</event>
<event>
 7    1  0.2084210E-015  0.9000775E+02  0.7816164E-02  0.1186339E+00
        -11   -1    0    0    0    0  0.00000000000E+00  0.00000000000E+00  0.45593999997E+02  0.45594000000E+02  0.51100000000E-03 0.  1.
         11   -1    0    0    0    0 -0.00000000000E+00 -0.00000000000E+00 -0.45593999997E+02  0.45594000000E+02  0.51100000000E-03 0. -1.
    9900012    2    1    2    0    0 -0.12766518704E+00 -0.64653004897E+00  0.97913275118E+00  0.90007745600E+02  0.90000007042E+02 0.  0.
         12    1    1    2    0    0  0.12766518704E+00  0.64653004897E+00 -0.97913275118E+00  0.11802544000E+01  0.00000000000E+00 0. -1.
         11    1    3    3    0    0  0.10787780998E+02 -0.80195938602E+01 -0.32075568568E+02  0.34778329514E+02  0.51100000000E-03 0. -1.
        -11    1    3    3    0    0  0.46221670469E+01  0.12210730337E+01 -0.88813648287E+01  0.10086331793E+02  0.51100000000E-03 0.  1.
        -12    1    3    3    0    0 -0.15537613232E+02  0.61519907775E+01  0.41936066148E+02  0.45143084293E+02  0.00000000000E+00 0.  1.
</event>
<event>
 7    1  0.2084210E-015  0.9000774E+02  0.7816164E-02  0.1186339E+00
        -11   -1    0    0    0    0  0.00000000000E+00  0.00000000000E+00  0.45593999997E+02  0.45594000000E+02  0.51100000000E-03 0. -1.
         11   -1    0    0    0    0 -0.00000000000E+00 -0.00000000000E+00 -0.45593999997E+02  0.45594000000E+02  0.51100000000E-03 0.  1.
    9900012    2    1    2    0    0 -0.62333700227E+00 -0.10003981344E+01 -0.60618507236E-01  0.90007737297E+02  0.89999998629E+02 0.  0.
         12    1    1    2    0    0  0.62333700227E+00  0.10003981344E+01  0.60618507236E-01  0.11802627035E+01  0.00000000000E+00 0. -1.
         11    1    3    3    0    0 -0.28173445444E+02 -0.19807595276E+02 -0.16691843476E+02  0.38271418809E+02  0.51100000000E-03 0. -1.
        -11    1    3    3    0    0  0.91336426593E-01 -0.41256117488E+01 -0.75157596697E+01  0.85741272627E+01  0.51100000000E-03 0.  1.
        -12    1    3    3    0    0  0.27458772015E+02  0.22932808890E+02  0.24146984639E+02  0.43162191224E+02  0.00000000000E+00 0.  1.
</event>
<event>
 7    1  0.2084210E-015  0.9000779E+02  0.7816164E-02  0.1186339E+00
        -11   -1    0    0    0    0  0.00000000000E+00  0.00000000000E+00  0.45593999997E+02  0.45594000000E+02  0.51100000000E-03 0. -1.
         11   -1    0    0    0    0 -0.00000000000E+00 -0.00000000000E+00 -0.45593999997E+02  0.45594000000E+02  0.51100000000E-03 0.  1.
    9900012    2    1    2    0    0 -0.47672210953E+00 -0.32895940912E-01 -0.10791443548E+01  0.90007788726E+02  0.90000050737E+02 0.  0.
         12    1    1    2    0    0  0.47672210953E+00  0.32895940912E-01  0.10791443548E+01  0.11802112740E+01  0.00000000000E+00 0. -1.
         11    1    3    3    0    0 -0.24640416621E+01  0.13051109741E+02  0.30510461371E+02  0.33275985637E+02  0.51100000000E-03 0. -1.
        -11    1    3    3    0    0 -0.16827549228E+01  0.36019799106E+00  0.11405457908E+02  0.11534551447E+02  0.51100000000E-03 0.  1.
        -12    1    3    3    0    0  0.36700744754E+01 -0.13444203673E+02 -0.42995063634E+02  0.45197251642E+02  0.00000000000E+00 0.  1.
</event>
<event>
 7    1  0.2084210E-015  0.9000774E+02  0.7816164E-02  0.1186339E+00
        -11   -1    0    0    0    0  0.00000000000E+00  0.00000000000E+00  0.45593999997E+02  0.45594000000E+02  0.51100000000E-03 0.  1.
         11   -1    0    0    0    0 -0.00000000000E+00 -0.00000000000E+00 -0.45593999997E+02  0.45594000000E+02  0.51100000000E-03 0. -1.
    9900012    2    1    2    0    0 -0.84536195424E+00  0.82128973427E+00 -0.62085550907E-01  0.90007742284E+02  0.90000003682E+02 0.  0.
         12    1    1    2    0    0  0.84536195424E+00 -0.82128973427E+00  0.62085550907E-01  0.11802577163E+01  0.00000000000E+00 0. -1.
         11    1    3    3    0    0 -0.59404096875E+00 -0.34825731971E+02  0.17523899257E+02  0.38990659618E+02  0.51100000000E-03 0. -1.
        -11    1    3    3    0    0  0.69784680776E+01  0.66621884846E+00  0.51290987943E+01  0.86862258183E+01  0.51100000000E-03 0.  1.
        -12    1    3    3    0    0 -0.72297890631E+01  0.34980802857E+02 -0.22715083602E+02  0.42330856848E+02  0.00000000000E+00 0.  1.
</event>
<event>
 7    1  0.2084210E-015  0.9000813E+02  0.7816164E-02  0.1186338E+00
        -11   -1    0    0    0    0  0.00000000000E+00  0.00000000000E+00  0.45593999997E+02  0.45594000000E+02  0.51100000000E-03 0.  1.
         11   -1    0    0    0    0 -0.00000000000E+00 -0.00000000000E+00 -0.45593999997E+02  0.45594000000E+02  0.51100000000E-03 0. -1.
    9900012    2    1    2    0    0  0.47843633243E+00 -0.25618355324E+00  0.10476403577E+01  0.90008134899E+02  0.90000401479E+02 0.  0.
         12    1    1    2    0    0 -0.47843633243E+00  0.25618355324E+00 -0.10476403577E+01  0.11798651009E+01  0.00000000000E+00 0. -1.
         11    1    3    3    0    0 -0.11582922731E+02  0.30783391920E+02 -0.15927425140E+02  0.36544003461E+02  0.51100000000E-03 0. -1.
        -11    1    3    3    0    0 -0.95657610001E+01  0.32949769886E+01  0.31913966287E+01  0.10608754383E+02  0.51100000000E-03 0.  1.
        -12    1    3    3    0    0  0.21627120063E+02 -0.34334552462E+02  0.13783668869E+02  0.42855377055E+02  0.00000000000E+00 0.  1.
</event>
<event>
 7    1  0.2084210E-015  0.9000775E+02  0.7816164E-02  0.1186339E+00
        -11   -1    0    0    0    0  0.00000000000E+00  0.00000000000E+00  0.45593999997E+02  0.45594000000E+02  0.51100000000E-03 0. -1.
         11   -1    0    0    0    0 -0.00000000000E+00 -0.00000000000E+00 -0.45593999997E+02  0.45594000000E+02  0.51100000000E-03 0.  1.
    9900012    2    1    2    0    0  0.11356148083E+01  0.12825816498E+00 -0.29481040833E+00  0.90007752430E+02  0.90000013962E+02 0.  0.
         12    1    1    2    0    0 -0.11356148083E+01 -0.12825816498E+00  0.29481040833E+00  0.11802475700E+01  0.00000000000E+00 0. -1.
         11    1    3    3    0    0  0.10878506057E+02  0.97401973394E+01  0.33416336757E+02  0.36467312772E+02  0.51100000000E-03 0. -1.
        -11    1    3    3    0    0  0.49718893131E+01  0.34889515166E+01  0.64175757879E+01  0.88361612300E+01  0.51100000000E-03 0.  1.
        -12    1    3    3    0    0 -0.14714780562E+02 -0.13100890691E+02 -0.40128722954E+02  0.44704278428E+02  0.00000000000E+00 0.  1.
</event>
<event>
 7    1  0.2084210E-015  0.9000804E+02  0.7816164E-02  0.1186338E+00
        -11   -1    0    0    0    0  0.00000000000E+00  0.00000000000E+00  0.45593999997E+02  0.45594000000E+02  0.51100000000E-03 0. -1.
         11   -1    0    0    0    0 -0.00000000000E+00 -0.00000000000E+00 -0.45593999997E+02  0.45594000000E+02  0.51100000000E-03 0.  1.
    9900012    2    1    2    0    0  0.62173054563E+00 -0.26464021616E+00 -0.96732453235E+00  0.90008042346E+02  0.90000307704E+02 0.  0.
         12    1    1    2    0    0 -0.62173054563E+00  0.26464021616E+00  0.96732453235E+00  0.11799576544E+01  0.00000000000E+00 0. -1.
         11    1    3    3    0    0  0.29574334580E+01  0.12473769908E+02  0.15885351412E+02  0.20412881671E+02  0.51100000000E-03 0. -1.
        -11    1    3    3    0    0  0.27352122343E+02  0.18024122481E+01 -0.23226775024E+02  0.35928684430E+02  0.51100000000E-03 0.  1.
        -12    1    3    3    0    0 -0.29687825255E+02 -0.14540822372E+02  0.63740990804E+01  0.33666476245E+02  0.00000000000E+00 0.  1.
</event>
<event>
 7    1  0.2280206E-015  0.9000771E+02  0.7816164E-02  0.1186339E+00
        -11   -1    0    0    0    0  0.00000000000E+00  0.00000000000E+00  0.45593999997E+02  0.45594000000E+02  0.51100000000E-03 0. -1.
         11   -1    0    0    0    0 -0.00000000000E+00 -0.00000000000E+00 -0.45593999997E+02  0.45594000000E+02  0.51100000000E-03 0.  1.
    9900012    2    1    2    0    0  0.99821076581E+00  0.55838520723E+00 -0.29130705141E+00  0.90007712505E+02  0.89999973510E+02 0.  0.
         12    1    1    2    0    0 -0.99821076581E+00 -0.55838520723E+00  0.29130705141E+00  0.11802874950E+01  0.00000000000E+00 0. -1.
         11    1    3    3    0    0 -0.65321314359E+01  0.33025550735E+02  0.13082737235E+02  0.36118053052E+02  0.51100000000E-03 0. -1.
        -11    1    3    3    0    0 -0.26914977292E+01  0.90085299349E+01 -0.12432286510E+01  0.94838488681E+01  0.51100000000E-03 0.  1.
        -12    1    3    3    0    0  0.10221839931E+02 -0.41475695463E+02 -0.12130815635E+02  0.44405810585E+02  0.00000000000E+00 0.  1.
</event>
<event>
 7    1  0.2084210E-015  0.9000743E+02  0.7816164E-02  0.1186340E+00
        -11   -1    0    0    0    0  0.00000000000E+00  0.00000000000E+00  0.45593999997E+02  0.45594000000E+02  0.51100000000E-03 0. -1.
         11   -1    0    0    0    0 -0.00000000000E+00 -0.00000000000E+00 -0.45593999997E+02  0.45594000000E+02  0.51100000000E-03 0.  1.
    9900012    2    1    2    0    0 -0.37177871100E+00  0.95538074568E+00  0.58546046854E+00  0.90007434144E+02  0.89999691475E+02 0.  0.
         12    1    1    2    0    0  0.37177871100E+00 -0.95538074568E+00 -0.58546046854E+00  0.11805658556E+01  0.00000000000E+00 0. -1.
         11    1    3    3    0    0  0.23786466666E+02 -0.22209557773E+02 -0.11869598302E+02  0.34640262947E+02  0.51100000000E-03 0. -1.
        -11    1    3    3    0    0  0.79498822738E+01 -0.31006649325E+01 -0.55142007985E+01  0.10159781587E+02  0.51100000000E-03 0.  1.
        -12    1    3    3    0    0 -0.32108127651E+02  0.26265603451E+02  0.17969259569E+02  0.45207389610E+02  0.00000000000E+00 0.  1.
</event>
<event>
 7    1  0.2084210E-015  0.9000790E+02  0.7816164E-02  0.1186339E+00
        -11   -1    0    0    0    0  0.00000000000E+00  0.00000000000E+00  0.45593999997E+02  0.45594000000E+02  0.51100000000E-03 0. -1.
         11   -1    0    0    0    0 -0.00000000000E+00 -0.00000000000E+00 -0.45593999997E+02  0.45594000000E+02  0.51100000000E-03 0.  1.
    9900012    2    1    2    0    0  0.97365664769E+00  0.28721476475E+00 -0.60177816417E+00  0.90007899772E+02  0.90000163249E+02 0.  0.
         12    1    1    2    0    0 -0.97365664769E+00 -0.28721476475E+00  0.60177816417E+00  0.11801002278E+01  0.00000000000E+00 0. -1.
         11    1    3    3    0    0  0.52001366993E+01 -0.12707083423E+02  0.25410775291E+02  0.28882847712E+02  0.51100000000E-03 0. -1.
        -11    1    3    3    0    0 -0.10330374623E+02 -0.13419779809E+02  0.70712774031E+01  0.18352386611E+02  0.51100000000E-03 0.  1.
        -12    1    3    3    0    0  0.61038945710E+01  0.26414077997E+02 -0.33083830858E+02  0.42772665449E+02  0.00000000000E+00 0.  1.
</event>
<event>
 7    1  0.2084210E-015  0.9000770E+02  0.7816164E-02  0.1186339E+00
        -11   -1    0    0    0    0  0.00000000000E+00  0.00000000000E+00  0.45593999997E+02  0.45594000000E+02  0.51100000000E-03 0. -1.
         11   -1    0    0    0    0 -0.00000000000E+00 -0.00000000000E+00 -0.45593999997E+02  0.45594000000E+02  0.51100000000E-03 0.  1.
    9900012    2    1    2    0    0  0.61433487159E+00 -0.94835716008E+00 -0.34107310110E+00  0.90007695167E+02  0.89999955944E+02 0.  0.
         12    1    1    2    0    0 -0.61433487159E+00  0.94835716008E+00  0.34107310110E+00  0.11803048326E+01  0.00000000000E+00 0. -1.
         11    1    3    3    0    0  0.97303960866E+01  0.32464259092E+02 -0.19854495841E+02  0.39278616724E+02  0.51100000000E-03 0. -1.
        -11    1    3    3    0    0  0.91859861028E+01 -0.15540099432E+01  0.42804930213E+00  0.93263344380E+01  0.51100000000E-03 0.  1.
        -12    1    3    3    0    0 -0.18302047318E+02 -0.31858606309E+02  0.19085373438E+02  0.41402744006E+02  0.00000000000E+00 0.  1.
</event>
<event>
 7    1  0.2084210E-015  0.9000778E+02  0.7816164E-02  0.1186339E+00
        -11   -1    0    0    0    0  0.00000000000E+00  0.00000000000E+00  0.45593999997E+02  0.45594000000E+02  0.51100000000E-03 0. -1.
         11   -1    0    0    0    0 -0.00000000000E+00 -0.00000000000E+00 -0.45593999997E+02  0.45594000000E+02  0.51100000000E-03 0.  1.
    9900012    2    1    2    0    0  0.83167738994E+00  0.41542602414E-01 -0.83636043585E+00  0.90007783135E+02  0.90000045073E+02 0.  0.
         12    1    1    2    0    0 -0.83167738994E+00 -0.41542602414E-01  0.83636043585E+00  0.11802168646E+01  0.00000000000E+00 0. -1.
         11    1    3    3    0    0 -0.16682798316E+02 -0.18486125061E+02  0.23278388278E+02  0.34087181469E+02  0.51100000000E-03 0. -1.
        -11    1    3    3    0    0 -0.64771952327E+01 -0.46735165417E+01  0.67530722164E+01  0.10459435911E+02  0.51100000000E-03 0.  1.
        -12    1    3    3    0    0  0.23991670939E+02  0.23201184205E+02 -0.30867820930E+02  0.45461165756E+02  0.00000000000E+00 0.  1.
</event>
<event>
 7    1  0.2084210E-015  0.9000773E+02  0.7816164E-02  0.1186339E+00
        -11   -1    0    0    0    0  0.00000000000E+00  0.00000000000E+00  0.45593999997E+02  0.45594000000E+02  0.51100000000E-03 0. -1.
         11   -1    0    0    0    0 -0.00000000000E+00 -0.00000000000E+00 -0.45593999997E+02  0.45594000000E+02  0.51100000000E-03 0.  1.
    9900012    2    1    2    0    0 -0.42706802674E+00  0.31070669328E+00 -0.10555123006E+01  0.90007732248E+02  0.89999993514E+02 0.  0.
         12    1    1    2    0    0  0.42706802674E+00 -0.31070669328E+00  0.10555123006E+01  0.11802677516E+01  0.00000000000E+00 0. -1.
         11    1    3    3    0    0  0.27950774343E+02 -0.19724031138E+02  0.96403786597E+00  0.34222982921E+02  0.51100000000E-03 0. -1.
        -11    1    3    3    0    0  0.81086368932E+01 -0.65202829010E+01  0.15372611561E+01  0.10517949111E+02  0.51100000000E-03 0.  1.
        -12    1    3    3    0    0 -0.36486479263E+02  0.26555020732E+02 -0.35568113226E+01  0.45266800217E+02  0.00000000000E+00 0.  1.
</event>
<event>
 7    1  0.2084210E-015  0.9000771E+02  0.7816164E-02  0.1186339E+00
        -11   -1    0    0    0    0  0.00000000000E+00  0.00000000000E+00  0.45593999997E+02  0.45594000000E+02  0.51100000000E-03 0. -1.
         11   -1    0    0    0    0 -0.00000000000E+00 -0.00000000000E+00 -0.45593999997E+02  0.45594000000E+02  0.51100000000E-03 0.  1.
    9900012    2    1    2    0    0  0.80931628235E+00  0.85763564554E+00  0.50583768802E-01  0.90007707467E+02  0.89999968406E+02 0.  0.
         12    1    1    2    0    0 -0.80931628235E+00 -0.85763564554E+00 -0.50583768802E-01  0.11802925328E+01  0.00000000000E+00 0. -1.
         11    1    3    3    0    0  0.27900993386E+02 -0.92786766079E+01  0.24799222205E+02  0.38465058089E+02  0.51100000000E-03 0. -1.
        -11    1    3    3    0    0  0.63050083429E+01 -0.49546284584E+01 -0.77222360394E+01  0.11132582947E+02  0.51100000000E-03 0.  1.
        -12    1    3    3    0    0 -0.33396685447E+02  0.15090940712E+02 -0.17026402397E+02  0.40410066431E+02  0.00000000000E+00 0.  1.
</event>
<event>
 7    1  0.2084210E-015  0.9000773E+02  0.7816164E-02  0.1186339E+00
        -11   -1    0    0    0    0  0.00000000000E+00  0.00000000000E+00  0.45593999997E+02  0.45594000000E+02  0.51100000000E-03 0. -1.
         11   -1    0    0    0    0 -0.00000000000E+00 -0.00000000000E+00 -0.45593999997E+02  0.45594000000E+02  0.51100000000E-03 0.  1.
    9900012    2    1    2    0    0  0.48785196817E+00  0.10159725922E+01 -0.35046817959E+00  0.90007734015E+02  0.89999995304E+02 0.  0.
         12    1    1    2    0    0 -0.48785196817E+00 -0.10159725922E+01  0.35046817959E+00  0.11802659852E+01  0.00000000000E+00 0. -1.
         11    1    3    3    0    0  0.24362206525E+01  0.42988242251E+02  0.21039148742E+01  0.43108590802E+02  0.51100000000E-03 0. -1.
        -11    1    3    3    0    0 -0.50422574657E+01 -0.25380018023E+01  0.38660145585E+01  0.68419209530E+01  0.51100000000E-03 0.  1.
        -12    1    3    3    0    0  0.30938887813E+01 -0.39434267857E+02 -0.63203976123E+01  0.40057222260E+02  0.00000000000E+00 0.  1.
</event>
<event>
 7    1  0.2084210E-015  0.9000776E+02  0.7816164E-02  0.1186339E+00
        -11   -1    0    0    0    0  0.00000000000E+00  0.00000000000E+00  0.45593999997E+02  0.45594000000E+02  0.51100000000E-03 0. -1.
         11   -1    0    0    0    0 -0.00000000000E+00 -0.00000000000E+00 -0.45593999997E+02  0.45594000000E+02  0.51100000000E-03 0.  1.
    9900012    2    1    2    0    0  0.73787732321E+00 -0.72837253699E+00 -0.56390021910E+00  0.90007757248E+02  0.90000018844E+02 0.  0.
         12    1    1    2    0    0 -0.73787732321E+00  0.72837253699E+00  0.56390021910E+00  0.11802427521E+01  0.00000000000E+00 0. -1.
         11    1    3    3    0    0  0.31780454138E+02 -0.24699139437E+02 -0.33372972098E+01  0.40387898027E+02  0.51100000000E-03 0. -1.
        -11    1    3    3    0    0  0.44227377832E+01  0.41529184975E+01  0.64158835036E+01  0.88301134160E+01  0.51100000000E-03 0.  1.
        -12    1    3    3    0    0 -0.35465314598E+02  0.19817848403E+02 -0.36424865128E+01  0.40789745805E+02  0.00000000000E+00 0.  1.
</event>
<event>
 7    1  0.2610535E-015  0.9000770E+02  0.7816164E-02  0.1186339E+00
        -11   -1    0    0    0    0  0.00000000000E+00  0.00000000000E+00  0.45593999997E+02  0.45594000000E+02  0.51100000000E-03 0. -1.
         11   -1    0    0    0    0 -0.00000000000E+00 -0.00000000000E+00 -0.45593999997E+02  0.45594000000E+02  0.51100000000E-03 0.  1.
    9900012    2    1    2    0    0  0.24638669784E+00  0.11181669302E+01  0.28655651260E+00  0.90007695665E+02  0.89999956448E+02 0.  0.
         12    1    1    2    0    0 -0.24638669784E+00 -0.11181669302E+01 -0.28655651260E+00  0.11803043352E+01  0.00000000000E+00 0. -1.
         11    1    3    3    0    0 -0.27629220973E+02  0.26025251400E+02  0.41807902928E+01  0.38185947281E+02  0.51100000000E-03 0. -1.
        -11    1    3    3    0    0 -0.50593920549E+01 -0.17352027296E+01  0.81865579999E+01  0.97789625536E+01  0.51100000000E-03 0.  1.
        -12    1    3    3    0    0  0.32934999726E+02 -0.23171881740E+02 -0.12080791780E+02  0.42042785830E+02  0.00000000000E+00 0.  1.
</event>
<event>
 7    1  0.2084210E-015  0.9000766E+02  0.7816164E-02  0.1186339E+00
        -11   -1    0    0    0    0  0.00000000000E+00  0.00000000000E+00  0.45593999997E+02  0.45594000000E+02  0.51100000000E-03 0. -1.
         11   -1    0    0    0    0 -0.00000000000E+00 -0.00000000000E+00 -0.45593999997E+02  0.45594000000E+02  0.51100000000E-03 0.  1.
    9900012    2    1    2    0    0  0.76261203831E+00 -0.25078697544E+00 -0.86529360559E+00  0.90007659264E+02  0.89999919567E+02 0.  0.
         12    1    1    2    0    0 -0.76261203831E+00  0.25078697544E+00  0.86529360559E+00  0.11803407355E+01  0.00000000000E+00 0. -1.
         11    1    3    3    0    0  0.93080608124E+01  0.10978039234E+02  0.68123105947E+00  0.14409074138E+02  0.51100000000E-03 0. -1.
        -11    1    3    3    0    0  0.83246529117E+01 -0.21361592362E+02 -0.31984743039E+02  0.39352779595E+02  0.51100000000E-03 0.  1.
         12    1    3    3    0    0 -0.16870101686E+02  0.10132766152E+02  0.30438218374E+02  0.36245805531E+02  0.00000000000E+00 0. -1.
</event>
<event>
 7    1  0.2084210E-015  0.9000749E+02  0.7816164E-02  0.1186340E+00
        -11   -1    0    0    0    0  0.00000000000E+00  0.00000000000E+00  0.45593999997E+02  0.45594000000E+02  0.51100000000E-03 0.  1.
         11   -1    0    0    0    0 -0.00000000000E+00 -0.00000000000E+00 -0.45593999997E+02  0.45594000000E+02  0.51100000000E-03 0. -1.
    9900012    2    1    2    0    0  0.37509519570E+00 -0.23963518954E+00  0.10933861143E+01  0.90007485441E+02  0.89999743448E+02 0.  0.
         12    1    1    2    0    0 -0.37509519570E+00  0.23963518954E+00 -0.10933861143E+01  0.11805145593E+01  0.00000000000E+00 0. -1.
         11    1    3    3    0    0  0.77541112686E+01 -0.24980512841E+02 -0.26667112978E+02  0.37353543047E+02  0.51100000000E-03 0. -1.
        -11    1    3    3    0    0  0.19578688024E+01  0.41782272360E+01 -0.86527979314E+01  0.98062095320E+01  0.51100000000E-03 0.  1.
        -12    1    3    3    0    0 -0.93368848754E+01  0.20562650415E+02  0.36413297023E+02  0.42847732862E+02  0.00000000000E+00 0.  1.
</event>
<event>
 7    1  0.2084210E-015  0.9000777E+02  0.7816164E-02  0.1186339E+00
        -11   -1    0    0    0    0  0.00000000000E+00  0.00000000000E+00  0.45593999997E+02  0.45594000000E+02  0.51100000000E-03 0. -1.
         11   -1    0    0    0    0 -0.00000000000E+00 -0.00000000000E+00 -0.45593999997E+02  0.45594000000E+02  0.51100000000E-03 0.  1.
    9900012    2    1    2    0    0  0.69425146958E+00  0.24141618326E+00 -0.92341054691E+00  0.90007765314E+02  0.90000027016E+02 0.  0.
         12    1    1    2    0    0 -0.69425146958E+00 -0.24141618326E+00  0.92341054691E+00  0.11802346863E+01  0.00000000000E+00 0. -1.
         11    1    3    3    0    0  0.30555164007E+01  0.67834832457E+01 -0.47946824224E+01  0.88510341324E+01  0.51100000000E-03 0. -1.
        -11    1    3    3    0    0  0.67828536116E+01  0.13440599937E+02 -0.34105238755E+02  0.37280345232E+02  0.51100000000E-03 0.  1.
         12    1    3    3    0    0 -0.91441185428E+01 -0.19982667000E+02  0.37976510631E+02  0.43876385950E+02  0.00000000000E+00 0. -1.
</event>
<event>
 7    1  0.2084210E-015  0.9000764E+02  0.7816164E-02  0.1186339E+00
        -11   -1    0    0    0    0  0.00000000000E+00  0.00000000000E+00  0.45593999997E+02  0.45594000000E+02  0.51100000000E-03 0. -1.
         11   -1    0    0    0    0 -0.00000000000E+00 -0.00000000000E+00 -0.45593999997E+02  0.45594000000E+02  0.51100000000E-03 0.  1.
    9900012    2    1    2    0    0  0.10097818189E+01 -0.52172315286E+00  0.31841270876E+00  0.90007643688E+02  0.89999903785E+02 0.  0.
         12    1    1    2    0    0 -0.10097818189E+01  0.52172315286E+00 -0.31841270876E+00  0.11803563120E+01  0.00000000000E+00 0. -1.
         11    1    3    3    0    0 -0.30610246874E+01  0.72246437237E+01 -0.46742529166E+01  0.91331259524E+01  0.51100000000E-03 0. -1.
        -11    1    3    3    0    0 -0.24281999754E+02  0.18292568831E+02  0.23246382591E+02  0.38270457147E+02  0.51100000000E-03 0.  1.
         12    1    3    3    0    0  0.28352806260E+02 -0.26038935707E+02 -0.18253716965E+02  0.42604060588E+02  0.00000000000E+00 0. -1.
</event>
<event>
 7    1  0.2084210E-015  0.9000672E+02  0.7816164E-02  0.1186341E+00
        -11   -1    0    0    0    0  0.00000000000E+00  0.00000000000E+00  0.45593999997E+02  0.45594000000E+02  0.51100000000E-03 0.  1.
         11   -1    0    0    0    0 -0.00000000000E+00 -0.00000000000E+00 -0.45593999997E+02  0.45594000000E+02  0.51100000000E-03 0. -1.
    9900012    2    1    2    0    0 -0.11670456592E+01  0.12193673503E-02 -0.18283326210E+00  0.90006718891E+02  0.89998966774E+02 0.  0.
         12    1    1    2    0    0  0.11670456592E+01 -0.12193673503E-02  0.18283326210E+00  0.11812811093E+01  0.00000000000E+00 0. -1.
         11    1    3    3    0    0  0.35269861751E+01  0.11899321530E+02 -0.57650473086E+01  0.13684635731E+02  0.51100000000E-03 0. -1.
        -11    1    3    3    0    0  0.18717533692E+01  0.79972954688E+01  0.37364009181E+02  0.38256102491E+02  0.51100000000E-03 0.  1.
         12    1    3    3    0    0 -0.65657852035E+01 -0.19895397632E+02 -0.31781795134E+02  0.38065980668E+02  0.00000000000E+00 0. -1.
</event>
<event>
 7    1  0.2084210E-015  0.9000773E+02  0.7816164E-02  0.1186339E+00
        -11   -1    0    0    0    0  0.00000000000E+00  0.00000000000E+00  0.45593999997E+02  0.45594000000E+02  0.51100000000E-03 0.  1.
         11   -1    0    0    0    0 -0.00000000000E+00 -0.00000000000E+00 -0.45593999997E+02  0.45594000000E+02  0.51100000000E-03 0. -1.
    9900012    2    1    2    0    0 -0.57164132551E+00  0.27928594913E+00 -0.99411311954E+00  0.90007730818E+02  0.89999992065E+02 0.  0.
         12    1    1    2    0    0  0.57164132551E+00 -0.27928594913E+00  0.99411311954E+00  0.11802691815E+01  0.00000000000E+00 0. -1.
         11    1    3    3    0    0 -0.72249683848E+01 -0.16834536929E+01 -0.79495589029E+01  0.10873346840E+02  0.51100000000E-03 0. -1.
        -11    1    3    3    0    0  0.26287847046E+02 -0.30354372191E+02 -0.22421438504E+01  0.40217732691E+02  0.51100000000E-03 0.  1.
         12    1    3    3    0    0 -0.19634519987E+02  0.32317111833E+02  0.91975896337E+01  0.38916651288E+02  0.00000000000E+00 0. -1.
</event>
<event>
 7    1  0.2084210E-015  0.9000765E+02  0.7816164E-02  0.1186339E+00
        -11   -1    0    0    0    0  0.00000000000E+00  0.00000000000E+00  0.45593999997E+02  0.45594000000E+02  0.51100000000E-03 0. -1.
         11   -1    0    0    0    0 -0.00000000000E+00 -0.00000000000E+00 -0.45593999997E+02  0.45594000000E+02  0.51100000000E-03 0.  1.
    9900012    2    1    2    0    0  0.64030869459E+00 -0.36684647778E+00 -0.92121876854E+00  0.90007654465E+02  0.89999914704E+02 0.  0.
         12    1    1    2    0    0 -0.64030869459E+00  0.36684647778E+00  0.92121876854E+00  0.11803455351E+01  0.00000000000E+00 0. -1.
         11    1    3    3    0    0  0.71972716473E+01  0.25136856817E+01  0.18658456125E+01  0.78486122966E+01  0.51100000000E-03 0. -1.
        -11    1    3    3    0    0  0.31088406053E+02  0.19659121669E+02 -0.89371529194E+01  0.37852909508E+02  0.51100000000E-03 0.  1.
         12    1    3    3    0    0 -0.37645369005E+02 -0.22539653828E+02  0.61500885384E+01  0.44306132660E+02  0.00000000000E+00 0. -1.
</event>
<event>
 7    1  0.2084210E-015  0.9000768E+02  0.7816164E-02  0.1186339E+00
        -11   -1    0    0    0    0  0.00000000000E+00  0.00000000000E+00  0.45593999997E+02  0.45594000000E+02  0.51100000000E-03 0.  1.
         11   -1    0    0    0    0 -0.00000000000E+00 -0.00000000000E+00 -0.45593999997E+02  0.45594000000E+02  0.51100000000E-03 0. -1.
    9900012    2    1    2    0    0  0.71731943247E+00 -0.42122505447E+00  0.83736538976E+00  0.90007678641E+02  0.89999939199E+02 0.  0.
         12    1    1    2    0    0 -0.71731943247E+00  0.42122505447E+00 -0.83736538976E+00  0.11803213591E+01  0.00000000000E+00 0. -1.
         11    1    3    3    0    0  0.23462111569E+02 -0.45972510901E+01 -0.30786122227E+02  0.38979362731E+02  0.51100000000E-03 0. -1.
        -11    1    3    3    0    0 -0.79022052697E+01  0.10173202950E+01 -0.63155855754E+01  0.10166927271E+02  0.51100000000E-03 0.  1.
        -12    1    3    3    0    0 -0.14842586867E+02  0.31587057406E+01  0.37939073192E+02  0.40861388639E+02  0.00000000000E+00 0.  1.
</event>
<event>
 7    1  0.2084210E-015  0.9000808E+02  0.7816164E-02  0.1186338E+00
        -11   -1    0    0    0    0  0.00000000000E+00  0.00000000000E+00  0.45593999997E+02  0.45594000000E+02  0.51100000000E-03 0. -1.
         11   -1    0    0    0    0 -0.00000000000E+00 -0.00000000000E+00 -0.45593999997E+02  0.45594000000E+02  0.51100000000E-03 0.  1.
    9900012    2    1    2    0    0 -0.78695855145E+00 -0.44336100969E+00 -0.75917052903E+00  0.90008079393E+02  0.90000345240E+02 0.  0.
         12    1    1    2    0    0  0.78695855145E+00  0.44336100969E+00  0.75917052903E+00  0.11799206070E+01  0.00000000000E+00 0. -1.
         11    1    3    3    0    0  0.31808361656E+01 -0.92762506314E+01 -0.14833764117E+01  0.99180114100E+01  0.51100000000E-03 0. -1.
        -11    1    3    3    0    0 -0.37941702685E+02  0.20367555894E+02 -0.63268695080E+01  0.43525158400E+02  0.51100000000E-03 0.  1.
         12    1    3    3    0    0  0.33973907968E+02 -0.11534666272E+02  0.70510753907E+01  0.36564909583E+02  0.00000000000E+00 0. -1.
</event>
<event>
 7    1  0.2084210E-015  0.9000779E+02  0.7816164E-02  0.1186339E+00
        -11   -1    0    0    0    0  0.00000000000E+00  0.00000000000E+00  0.45593999997E+02  0.45594000000E+02  0.51100000000E-03 0. -1.
         11   -1    0    0    0    0 -0.00000000000E+00 -0.00000000000E+00 -0.45593999997E+02  0.45594000000E+02  0.51100000000E-03 0.  1.
    9900012    2    1    2    0    0 -0.27153888739E+00 -0.80001319731E+00 -0.82409718569E+00  0.90007792114E+02  0.90000054170E+02 0.  0.
         12    1    1    2    0    0  0.27153888739E+00  0.80001319731E+00  0.82409718569E+00  0.11802078862E+01  0.00000000000E+00 0. -1.
         11    1    3    3    0    0 -0.31826933013E+02 -0.16623207073E+02  0.29949568697E+01  0.36031298135E+02  0.51100000000E-03 0. -1.
        -11    1    3    3    0    0 -0.87755596635E+01 -0.22527213090E+01  0.23285947387E+01  0.93545472590E+01  0.51100000000E-03 0.  1.
        -12    1    3    3    0    0  0.40330953789E+02  0.18075915184E+02 -0.61476487941E+01  0.44621946719E+02  0.00000000000E+00 0.  1.
</event>
<event>
 7    1  0.2084210E-015  0.9000772E+02  0.7816164E-02  0.1186339E+00
        -11   -1    0    0    0    0  0.00000000000E+00  0.00000000000E+00  0.45593999997E+02  0.45594000000E+02  0.51100000000E-03 0.  1.
         11   -1    0    0    0    0 -0.00000000000E+00 -0.00000000000E+00 -0.45593999997E+02  0.45594000000E+02  0.51100000000E-03 0. -1.
    9900012    2    1    2    0    0 -0.31023943311E+00  0.32789350405E+00  0.10905483986E+01  0.90007721022E+02  0.89999982140E+02 0.  0.
         12    1    1    2    0    0  0.31023943311E+00 -0.32789350405E+00 -0.10905483986E+01  0.11802789778E+01  0.00000000000E+00 0. -1.
         11    1    3    3    0    0  0.64507168661E+00  0.25736469159E+02 -0.90651884744E+01  0.27293948131E+02  0.51100000000E-03 0. -1.
        -11    1    3    3    0    0  0.24087037505E+02  0.26992475153E+01  0.42740937610E+01  0.24611769352E+02  0.51100000000E-03 0.  1.
         12    1    3    3    0    0 -0.25042348625E+02 -0.28107823170E+02  0.58816431120E+01  0.38102003539E+02  0.00000000000E+00 0. -1.
</event>
<event>
 7    1  0.2084210E-015  0.9000772E+02  0.7816164E-02  0.1186339E+00
        -11   -1    0    0    0    0  0.00000000000E+00  0.00000000000E+00  0.45593999997E+02  0.45594000000E+02  0.51100000000E-03 0.  1.
         11   -1    0    0    0    0 -0.00000000000E+00 -0.00000000000E+00 -0.45593999997E+02  0.45594000000E+02  0.51100000000E-03 0. -1.
    9900012    2    1    2    0    0  0.58973531334E+00  0.40652715634E+00  0.93809173460E+00  0.90007716911E+02  0.89999977974E+02 0.  0.
         12    1    1    2    0    0 -0.58973531334E+00 -0.40652715634E+00 -0.93809173460E+00  0.11802830894E+01  0.00000000000E+00 0. -1.
         11    1    3    3    0    0  0.61217996738E+01  0.84675339656E+01  0.26743036928E+01  0.10785520998E+02  0.51100000000E-03 0. -1.
        -11    1    3    3    0    0 -0.10920189056E+02  0.34068243683E+02  0.53155176504E+01  0.36168363037E+02  0.51100000000E-03 0.  1.
         12    1    3    3    0    0  0.53881246958E+01 -0.42129250492E+02 -0.70517296085E+01  0.43053832875E+02  0.00000000000E+00 0. -1.
</event>
<event>
 7    1  0.2084210E-015  0.9000765E+02  0.7816164E-02  0.1186339E+00
        -11   -1    0    0    0    0  0.00000000000E+00  0.00000000000E+00  0.45593999997E+02  0.45594000000E+02  0.51100000000E-03 0.  1.
         11   -1    0    0    0    0 -0.00000000000E+00 -0.00000000000E+00 -0.45593999997E+02  0.45594000000E+02  0.51100000000E-03 0. -1.
    9900012    2    1    2    0    0  0.10772102361E+01 -0.36521063459E+00  0.31537469809E+00  0.90007651788E+02  0.89999911992E+02 0.  0.
         12    1    1    2    0    0 -0.10772102361E+01  0.36521063459E+00 -0.31537469809E+00  0.11803482116E+01  0.00000000000E+00 0. -1.
         11    1    3    3    0    0 -0.67824971402E+01  0.66668444018E+01  0.51105163020E+01  0.10796594781E+02  0.51100000000E-03 0. -1.
        -11    1    3    3    0    0 -0.25079329868E+02 -0.25450937780E+02  0.12288592115E+02  0.37785347914E+02  0.51100000000E-03 0.  1.
         12    1    3    3    0    0  0.32939037245E+02  0.18418882744E+02 -0.17083733719E+02  0.41425709094E+02  0.00000000000E+00 0. -1.
</event>
<event>
 7    1  0.2416753E-015  0.9000775E+02  0.7816164E-02  0.1186339E+00
        -11   -1    0    0    0    0  0.00000000000E+00  0.00000000000E+00  0.45593999997E+02  0.45594000000E+02  0.51100000000E-03 0.  1.
         11   -1    0    0    0    0 -0.00000000000E+00 -0.00000000000E+00 -0.45593999997E+02  0.45594000000E+02  0.51100000000E-03 0. -1.
    9900012    2    1    2    0    0  0.36625212519E+00 -0.47984572705E+00  0.10141961326E+01  0.90007751579E+02  0.90000013099E+02 0.  0.
         12    1    1    2    0    0 -0.36625212519E+00  0.47984572705E+00 -0.10141961326E+01  0.11802484214E+01  0.00000000000E+00 0. -1.
         11    1    3    3    0    0 -0.19933459463E+02 -0.19202914724E+02 -0.25394508296E+02  0.37562957710E+02  0.51100000000E-03 0. -1.
        -11    1    3    3    0    0  0.12359925608E+01  0.29696683153E+01 -0.88279965979E+01  0.93957507261E+01  0.51100000000E-03 0.  1.
        -12    1    3    3    0    0  0.19063719027E+02  0.15753400682E+02  0.35236701027E+02  0.43049043142E+02  0.00000000000E+00 0.  1.
</event>
<event>
 7    1  0.2084210E-015  0.9000772E+02  0.7816164E-02  0.1186339E+00
        -11   -1    0    0    0    0  0.00000000000E+00  0.00000000000E+00  0.45593999997E+02  0.45594000000E+02  0.51100000000E-03 0. -1.
         11   -1    0    0    0    0 -0.00000000000E+00 -0.00000000000E+00 -0.45593999997E+02  0.45594000000E+02  0.51100000000E-03 0.  1.
    9900012    2    1    2    0    0  0.10485982346E+01 -0.38187278646E+00 -0.38428648032E+00  0.90007719872E+02  0.89999980974E+02 0.  0.
         12    1    1    2    0    0 -0.10485982346E+01  0.38187278646E+00  0.38428648032E+00  0.11802801285E+01  0.00000000000E+00 0. -1.
         11    1    3    3    0    0 -0.60026138735E+01  0.38889331701E+02  0.41247567460E+01  0.39565453517E+02  0.51100000000E-03 0. -1.
        -11    1    3    3    0    0 -0.28206943769E+01  0.10883621400E+01 -0.81899441607E+01  0.87301795246E+01  0.51100000000E-03 0.  1.
        -12    1    3    3    0    0  0.98719064850E+01 -0.40359566628E+02  0.36809009344E+01  0.41712086830E+02  0.00000000000E+00 0.  1.
</event>
<event>
 7    1  0.2084210E-015  0.9000804E+02  0.7816164E-02  0.1186338E+00
        -11   -1    0    0    0    0  0.00000000000E+00  0.00000000000E+00  0.45593999997E+02  0.45594000000E+02  0.51100000000E-03 0.  1.
         11   -1    0    0    0    0 -0.00000000000E+00 -0.00000000000E+00 -0.45593999997E+02  0.45594000000E+02  0.51100000000E-03 0. -1.
    9900012    2    1    2    0    0  0.97573441021E+00  0.50747968246E+00 -0.42743807253E+00  0.90008043826E+02  0.90000309204E+02 0.  0.
         12    1    1    2    0    0 -0.97573441021E+00 -0.50747968246E+00  0.42743807253E+00  0.11799561743E+01  0.00000000000E+00 0. -1.
         11    1    3    3    0    0  0.15571592490E+02 -0.21606665726E+01 -0.33103827420E+02  0.36647051216E+02  0.51100000000E-03 0. -1.
        -11    1    3    3    0    0 -0.63957183740E+01  0.37657644930E+01 -0.85445928214E+01  0.11317961940E+02  0.51100000000E-03 0.  1.
        -12    1    3    3    0    0 -0.82001397054E+01 -0.10976182379E+01  0.41220982168E+02  0.42043030670E+02  0.00000000000E+00 0.  1.
</event>
<event>
 7    1  0.2084210E-015  0.9000698E+02  0.7816164E-02  0.1186341E+00
        -11   -1    0    0    0    0  0.00000000000E+00  0.00000000000E+00  0.45593999997E+02  0.45594000000E+02  0.51100000000E-03 0.  1.
         11   -1    0    0    0    0 -0.00000000000E+00 -0.00000000000E+00 -0.45593999997E+02  0.45594000000E+02  0.51100000000E-03 0. -1.
    9900012    2    1    2    0    0 -0.27482654311E-01 -0.94827280079E-02  0.11806605641E+01  0.90006981547E+02  0.89999232900E+02 0.  0.
         12    1    1    2    0    0  0.27482654311E-01  0.94827280079E-02 -0.11806605641E+01  0.11810184529E+01  0.00000000000E+00 0. -1.
         11    1    3    3    0    0  0.10426604191E+02  0.19138781699E+02 -0.32925585409E+02  0.39485455735E+02  0.51100000000E-03 0. -1.
        -11    1    3    3    0    0  0.44793096353E+01 -0.30945980293E+01 -0.38635982179E+01  0.66759376287E+01  0.51100000000E-03 0.  1.
        -12    1    3    3    0    0 -0.14933396480E+02 -0.16053666397E+02  0.37969844191E+02  0.43845588183E+02  0.00000000000E+00 0.  1.
</event>
<event>
 7    1  0.2084210E-015  0.9000768E+02  0.7816164E-02  0.1186339E+00
        -11   -1    0    0    0    0  0.00000000000E+00  0.00000000000E+00  0.45593999997E+02  0.45594000000E+02  0.51100000000E-03 0.  1.
         11   -1    0    0    0    0 -0.00000000000E+00 -0.00000000000E+00 -0.45593999997E+02  0.45594000000E+02  0.51100000000E-03 0. -1.
    9900012    2    1    2    0    0 -0.98618470751E+00  0.52513129309E+00  0.38058220218E+00  0.90007675483E+02  0.89999936000E+02 0.  0.
         12    1    1    2    0    0  0.98618470751E+00 -0.52513129309E+00 -0.38058220218E+00  0.11803245168E+01  0.00000000000E+00 0. -1.
         11    1    3    3    0    0  0.16585656685E+02 -0.17703107164E+02 -0.29546809613E+02  0.38229543151E+02  0.51100000000E-03 0. -1.
        -11    1    3    3    0    0  0.31700901088E+01 -0.33874914609E+01 -0.42764962966E+01  0.63097536031E+01  0.51100000000E-03 0.  1.
        -12    1    3    3    0    0 -0.20741931502E+02  0.21615729918E+02  0.34203888112E+02  0.45468378729E+02  0.00000000000E+00 0.  1.
</event>
<event>
 7    1  0.2084210E-015  0.9000772E+02  0.7816164E-02  0.1186339E+00
        -11   -1    0    0    0    0  0.00000000000E+00  0.00000000000E+00  0.45593999997E+02  0.45594000000E+02  0.51100000000E-03 0. -1.
         11   -1    0    0    0    0 -0.00000000000E+00 -0.00000000000E+00 -0.45593999997E+02  0.45594000000E+02  0.51100000000E-03 0.  1.
    9900012    2    1    2    0    0 -0.37393595626E+00 -0.88614825454E+00 -0.68408369811E+00  0.90007721501E+02  0.89999982625E+02 0.  0.
         12    1    1    2    0    0  0.37393595626E+00  0.88614825454E+00  0.68408369811E+00  0.11802784987E+01  0.00000000000E+00 0. -1.
         11    1    3    3    0    0 -0.10138245606E+02  0.45349971996E+00 -0.63670928750E+01  0.11980382210E+02  0.51100000000E-03 0. -1.
        -11    1    3    3    0    0 -0.21943990606E+02 -0.21437630003E+01 -0.25388299066E+02  0.33625885464E+02  0.51100000000E-03 0.  1.
         12    1    3    3    0    0  0.31708300255E+02  0.80411502577E+00  0.31071308243E+02  0.44401453827E+02  0.00000000000E+00 0. -1.
</event>
<event>
 7    1  0.2084210E-015  0.9000774E+02  0.7816164E-02  0.1186339E+00
        -11   -1    0    0    0    0  0.00000000000E+00  0.00000000000E+00  0.45593999997E+02  0.45594000000E+02  0.51100000000E-03 0.  1.
         11   -1    0    0    0    0 -0.00000000000E+00 -0.00000000000E+00 -0.45593999997E+02  0.45594000000E+02  0.51100000000E-03 0. -1.
    9900012    2    1    2    0    0 -0.84547173117E+00 -0.67165108871E+00  0.47651841367E+00  0.90007742642E+02  0.90000004045E+02 0.  0.
         12    1    1    2    0    0  0.84547173117E+00  0.67165108871E+00 -0.47651841367E+00  0.11802573583E+01  0.00000000000E+00 0. -1.
         11    1    3    3    0    0 -0.14200695344E+02  0.31461557794E+02  0.91335091430E+01  0.35705886862E+02  0.51100000000E-03 0. -1.
        -11    1    3    3    0    0 -0.21696530319E+01  0.88076684054E+01  0.18857575579E+01  0.92649068450E+01  0.51100000000E-03 0.  1.
        -12    1    3    3    0    0  0.15524876645E+02 -0.40940877288E+02 -0.10542748287E+02  0.45036948935E+02  0.00000000000E+00 0.  1.
</event>
<event>
 7    1  0.2084210E-015  0.9000768E+02  0.7816164E-02  0.1186339E+00
        -11   -1    0    0    0    0  0.00000000000E+00  0.00000000000E+00  0.45593999997E+02  0.45594000000E+02  0.51100000000E-03 0.  1.
         11   -1    0    0    0    0 -0.00000000000E+00 -0.00000000000E+00 -0.45593999997E+02  0.45594000000E+02  0.51100000000E-03 0. -1.
    9900012    2    1    2    0    0  0.11139079556E+01  0.33042515276E+00  0.20781756410E+00  0.90007678071E+02  0.89999938622E+02 0.  0.
         12    1    1    2    0    0 -0.11139079556E+01 -0.33042515276E+00 -0.20781756410E+00  0.11803219286E+01  0.00000000000E+00 0. -1.
         11    1    3    3    0    0 -0.17768466945E+02 -0.39730780828E+01 -0.30107700640E+02  0.35184903085E+02  0.51100000000E-03 0. -1.
        -11    1    3    3    0    0 -0.13006621992E+01 -0.62975621357E+00 -0.96614453362E+01  0.97689222174E+01  0.51100000000E-03 0.  1.
        -12    1    3    3    0    0  0.20183037100E+02  0.49332594491E+01  0.39976963541E+02  0.45053852769E+02  0.00000000000E+00 0.  1.
</event>
<event>
 7    1  0.3279658E-015  0.9000767E+02  0.7816164E-02  0.1186339E+00
        -11   -1    0    0    0    0  0.00000000000E+00  0.00000000000E+00  0.45593999997E+02  0.45594000000E+02  0.51100000000E-03 0. -1.
         11   -1    0    0    0    0 -0.00000000000E+00 -0.00000000000E+00 -0.45593999997E+02  0.45594000000E+02  0.51100000000E-03 0.  1.
    9900012    2    1    2    0    0  0.41000978647E+00  0.41500793409E+00 -0.10260748807E+01  0.90007674083E+02  0.89999934580E+02 0.  0.
         12    1    1    2    0    0 -0.41000978647E+00 -0.41500793409E+00  0.10260748807E+01  0.11803259174E+01  0.00000000000E+00 0. -1.
         11    1    3    3    0    0 -0.18484989312E+02  0.11180102924E+02  0.30092659577E+02  0.37043996705E+02  0.51100000000E-03 0. -1.
        -11    1    3    3    0    0 -0.20397204757E+01  0.88501848324E+01  0.18415068090E+01  0.92670048438E+01  0.51100000000E-03 0.  1.
        -12    1    3    3    0    0  0.20934719574E+02 -0.19615279822E+02 -0.32960241266E+02  0.43696672533E+02  0.00000000000E+00 0.  1.
</event>
<event>
 7    1  0.2084210E-015  0.9000773E+02  0.7816164E-02  0.1186339E+00
        -11   -1    0    0    0    0  0.00000000000E+00  0.00000000000E+00  0.45593999997E+02  0.45594000000E+02  0.51100000000E-03 0. -1.
         11   -1    0    0    0    0 -0.00000000000E+00 -0.00000000000E+00 -0.45593999997E+02  0.45594000000E+02  0.51100000000E-03 0.  1.
    9900012    2    1    2    0    0  0.61529251180E+00 -0.97453944315E+00  0.25439531172E+00  0.90007733515E+02  0.89999994797E+02 0.  0.
         12    1    1    2    0    0 -0.61529251180E+00  0.97453944315E+00 -0.25439531172E+00  0.11802664851E+01  0.00000000000E+00 0. -1.
         11    1    3    3    0    0  0.25090249481E+01  0.12817229798E+02  0.34336216312E+02  0.36736253712E+02  0.51100000000E-03 0. -1.
        -11    1    3    3    0    0  0.53751195747E+01  0.68291436829E+01  0.38373547182E+01  0.95002318592E+01  0.51100000000E-03 0.  1.
        -12    1    3    3    0    0 -0.72688520110E+01 -0.20620912924E+02 -0.37919175719E+02  0.43771247944E+02  0.00000000000E+00 0.  1.
</event>
<event>
 7    1  0.2084210E-015  0.9000772E+02  0.7816164E-02  0.1186339E+00
        -11   -1    0    0    0    0  0.00000000000E+00  0.00000000000E+00  0.45593999997E+02  0.45594000000E+02  0.51100000000E-03 0. -1.
         11   -1    0    0    0    0 -0.00000000000E+00 -0.00000000000E+00 -0.45593999997E+02  0.45594000000E+02  0.51100000000E-03 0.  1.
    9900012    2    1    2    0    0 -0.92231268411E+00 -0.68641762874E+00  0.26691100964E+00  0.90007715570E+02  0.89999976616E+02 0.  0.
         12    1    1    2    0    0  0.92231268411E+00  0.68641762874E+00 -0.26691100964E+00  0.11802844299E+01  0.00000000000E+00 0. -1.
         11    1    3    3    0    0  0.12682765216E+02  0.21442389502E+00  0.10561315999E+01  0.12728469089E+02  0.51100000000E-03 0. -1.
        -11    1    3    3    0    0  0.22440336109E+02  0.10305760854E+02 -0.22777605869E+02  0.33594593625E+02  0.51100000000E-03 0.  1.
         12    1    3    3    0    0 -0.36045414009E+02 -0.11206602377E+02  0.21988385279E+02  0.43684652856E+02  0.00000000000E+00 0. -1.
</event>
<event>
 7    1  0.2084210E-015  0.9000800E+02  0.7816164E-02  0.1186339E+00
        -11   -1    0    0    0    0  0.00000000000E+00  0.00000000000E+00  0.45593999997E+02  0.45594000000E+02  0.51100000000E-03 0.  1.
         11   -1    0    0    0    0 -0.00000000000E+00 -0.00000000000E+00 -0.45593999997E+02  0.45594000000E+02  0.51100000000E-03 0. -1.
    9900012    2    1    2    0    0 -0.41159871933E+00 -0.10568512425E+01 -0.32565000698E+00  0.90008001703E+02  0.90000266525E+02 0.  0.
         12    1    1    2    0    0  0.41159871933E+00  0.10568512425E+01  0.32565000698E+00  0.11799982973E+01  0.00000000000E+00 0. -1.
         11    1    3    3    0    0  0.83532904631E+01 -0.22910541875E+00 -0.13096544950E+01  0.84584363810E+01  0.51100000000E-03 0. -1.
        -11    1    3    3    0    0  0.65025531334E+01  0.18121509016E+02  0.34869463846E+02  0.39831542720E+02  0.51100000000E-03 0.  1.
         12    1    3    3    0    0 -0.15267442316E+02 -0.18949254840E+02 -0.33885459358E+02  0.41718022601E+02  0.00000000000E+00 0. -1.
</event>
<event>
 7    1  0.2084210E-015  0.9000758E+02  0.7816164E-02  0.1186339E+00
        -11   -1    0    0    0    0  0.00000000000E+00  0.00000000000E+00  0.45593999997E+02  0.45594000000E+02  0.51100000000E-03 0. -1.
         11   -1    0    0    0    0 -0.00000000000E+00 -0.00000000000E+00 -0.45593999997E+02  0.45594000000E+02  0.51100000000E-03 0.  1.
    9900012    2    1    2    0    0 -0.97209528416E-01 -0.10260105745E+01  0.57553267562E+00  0.90007582594E+02  0.89999841884E+02 0.  0.
         12    1    1    2    0    0  0.97209528416E-01  0.10260105745E+01 -0.57553267562E+00  0.11804174058E+01  0.00000000000E+00 0. -1.
         11    1    3    3    0    0  0.33458913259E+01 -0.70833739764E+01  0.37536838908E+01  0.86867323355E+01  0.51100000000E-03 0. -1.
        -11    1    3    3    0    0  0.31511408103E+02  0.69924468764E+01 -0.24360035911E+02  0.40438527468E+02  0.51100000000E-03 0.  1.
         12    1    3    3    0    0 -0.34954508957E+02 -0.93508347439E+00  0.21181884696E+02  0.40882322791E+02  0.00000000000E+00 0. -1.
</event>
<event>
 7    1  0.2084210E-015  0.9000770E+02  0.7816164E-02  0.1186339E+00
        -11   -1    0    0    0    0  0.00000000000E+00  0.00000000000E+00  0.45593999997E+02  0.45594000000E+02  0.51100000000E-03 0.  1.
         11   -1    0    0    0    0 -0.00000000000E+00 -0.00000000000E+00 -0.45593999997E+02  0.45594000000E+02  0.51100000000E-03 0. -1.
    9900012    2    1    2    0    0  0.11289145369E+01  0.34416458732E+00 -0.14248506213E-01  0.90007703294E+02  0.89999964177E+02 0.  0.
         12    1    1    2    0    0 -0.11289145369E+01 -0.34416458732E+00  0.14248506213E-01  0.11802967062E+01  0.00000000000E+00 0. -1.
         11    1    3    3    0    0 -0.13812459739E+01  0.12271355775E+02 -0.29724998340E+01  0.12701565594E+02  0.51100000000E-03 0. -1.
        -11    1    3    3    0    0  0.29253538025E+02  0.20110717887E+02  0.21718562602E+01  0.35565818152E+02  0.51100000000E-03 0.  1.
         12    1    3    3    0    0 -0.26743377515E+02 -0.32037909075E+02  0.78639506757E+00  0.41740319548E+02  0.00000000000E+00 0. -1.
</event>
<event>
 7    1  0.2084210E-015  0.9000746E+02  0.7816164E-02  0.1186340E+00
        -11   -1    0    0    0    0  0.00000000000E+00  0.00000000000E+00  0.45593999997E+02  0.45594000000E+02  0.51100000000E-03 0.  1.
         11   -1    0    0    0    0 -0.00000000000E+00 -0.00000000000E+00 -0.45593999997E+02  0.45594000000E+02  0.51100000000E-03 0. -1.
    9900012    2    1    2    0    0  0.55588492410E-01  0.11647534642E+01 -0.18418653484E+00  0.90007463939E+02  0.89999721662E+02 0.  0.
         12    1    1    2    0    0 -0.55588492410E-01 -0.11647534642E+01  0.18418653484E+00  0.11805360615E+01  0.00000000000E+00 0. -1.
         11    1    3    3    0    0 -0.12879642795E+02 -0.32290706474E+02 -0.48130693645E+01  0.35096161615E+02  0.51100000000E-03 0. -1.
        -11    1    3    3    0    0 -0.14608034165E+01 -0.83924659036E+01 -0.46338828342E+01  0.96974378547E+01  0.51100000000E-03 0.  1.
        -12    1    3    3    0    0  0.14396034703E+02  0.41847925842E+02  0.92627656638E+01  0.45213864469E+02  0.00000000000E+00 0.  1.
</event>
<event>
 7    1  0.2084210E-015  0.9000787E+02  0.7816164E-02  0.1186339E+00
        -11   -1    0    0    0    0  0.00000000000E+00  0.00000000000E+00  0.45593999997E+02  0.45594000000E+02  0.51100000000E-03 0.  1.
         11   -1    0    0    0    0 -0.00000000000E+00 -0.00000000000E+00 -0.45593999997E+02  0.45594000000E+02  0.51100000000E-03 0. -1.
    9900012    2    1    2    0    0 -0.48896254404E+00 -0.39293939611E+00  0.99961552821E+00  0.90007865710E+02  0.90000128737E+02 0.  0.
         12    1    1    2    0    0  0.48896254404E+00  0.39293939611E+00 -0.99961552821E+00  0.11801342901E+01  0.00000000000E+00 0. -1.
         11    1    3    3    0    0 -0.95937572135E+01  0.46363711176E+01 -0.41387505304E+01  0.11430895452E+02  0.51100000000E-03 0. -1.
        -11    1    3    3    0    0  0.51565880472E+01 -0.77695052526E+01  0.41176809735E+02  0.42219489248E+02  0.51100000000E-03 0.  1.
         12    1    3    3    0    0  0.39482066222E+01  0.27401947389E+01 -0.36038443677E+02  0.36357481010E+02  0.00000000000E+00 0. -1.
</event>
<event>
 7    1  0.2084210E-015  0.9000772E+02  0.7816164E-02  0.1186339E+00
        -11   -1    0    0    0    0  0.00000000000E+00  0.00000000000E+00  0.45593999997E+02  0.45594000000E+02  0.51100000000E-03 0.  1.
         11   -1    0    0    0    0 -0.00000000000E+00 -0.00000000000E+00 -0.45593999997E+02  0.45594000000E+02  0.51100000000E-03 0. -1.
    9900012    2    1    2    0    0  0.85642190730E+00  0.59566225947E+00 -0.55206885286E+00  0.90007723749E+02  0.89999984902E+02 0.  0.
         12    1    1    2    0    0 -0.85642190730E+00 -0.59566225947E+00  0.55206885286E+00  0.11802762511E+01  0.00000000000E+00 0. -1.
         11    1    3    3    0    0 -0.94971846943E+01  0.37943214173E+01  0.44089138113E+01  0.11136961587E+02  0.51100000000E-03 0. -1.
        -11    1    3    3    0    0  0.38250520358E+02 -0.12913525516E+02  0.15165418412E+02  0.43125994073E+02  0.51100000000E-03 0.  1.
         12    1    3    3    0    0 -0.27896913756E+02  0.97148663577E+01 -0.20126401076E+02  0.35744768089E+02  0.00000000000E+00 0. -1.
</event>
<event>
 7    1  0.2084210E-015  0.9000775E+02  0.7816164E-02  0.1186339E+00
        -11   -1    0    0    0    0  0.00000000000E+00  0.00000000000E+00  0.45593999997E+02  0.45594000000E+02  0.51100000000E-03 0.  1.
         11   -1    0    0    0    0 -0.00000000000E+00 -0.00000000000E+00 -0.45593999997E+02  0.45594000000E+02  0.51100000000E-03 0. -1.
    9900012    2    1    2    0    0 -0.14293865653E+00  0.11697611553E+01  0.64890140957E-01  0.90007752843E+02  0.90000014381E+02 0.  0.
         12    1    1    2    0    0  0.14293865653E+00 -0.11697611553E+01 -0.64890140957E-01  0.11802471565E+01  0.00000000000E+00 0. -1.
         11    1    3    3    0    0  0.36772897824E+02  0.91485411461E+01 -0.25288632156E+00  0.37894666792E+02  0.51100000000E-03 0. -1.
        -11    1    3    3    0    0  0.46720076208E+01 -0.24959451704E+01 -0.77592314330E+01  0.93948427445E+01  0.51100000000E-03 0.  1.
        -12    1    3    3    0    0 -0.41587844102E+02 -0.54828348204E+01  0.80770078955E+01  0.42718243307E+02  0.00000000000E+00 0.  1.
</event>
<event>
 7    1  0.2084210E-015  0.9000774E+02  0.7816164E-02  0.1186339E+00
        -11   -1    0    0    0    0  0.00000000000E+00  0.00000000000E+00  0.45593999997E+02  0.45594000000E+02  0.51100000000E-03 0. -1.
         11   -1    0    0    0    0 -0.00000000000E+00 -0.00000000000E+00 -0.45593999997E+02  0.45594000000E+02  0.51100000000E-03 0.  1.
    9900012    2    1    2    0    0 -0.10048875880E+01 -0.34329210226E+00 -0.51514678957E+00  0.90007735306E+02  0.89999996613E+02 0.  0.
         12    1    1    2    0    0  0.10048875880E+01  0.34329210226E+00  0.51514678957E+00  0.11802646935E+01  0.00000000000E+00 0. -1.
         11    1    3    3    0    0 -0.79316329342E+01 -0.27246038968E+01  0.46213546838E+01  0.95755515127E+01  0.51100000000E-03 0. -1.
        -11    1    3    3    0    0 -0.23539659635E+02  0.30473801734E+02  0.11096117331E+01  0.38522712863E+02  0.51100000000E-03 0.  1.
         12    1    3    3    0    0  0.30466404981E+02 -0.28092489940E+02 -0.62461132065E+01  0.41909470931E+02  0.00000000000E+00 0. -1.
</event>
<event>
 7    1  0.2084210E-015  0.9000867E+02  0.7816164E-02  0.1186337E+00
        -11   -1    0    0    0    0  0.00000000000E+00  0.00000000000E+00  0.45593999997E+02  0.45594000000E+02  0.51100000000E-03 0. -1.
         11   -1    0    0    0    0 -0.00000000000E+00 -0.00000000000E+00 -0.45593999997E+02  0.45594000000E+02  0.51100000000E-03 0.  1.
    9900012    2    1    2    0    0  0.10658324327E+01 -0.22280356721E-01  0.50430802765E+00  0.90008668929E+02  0.90000942554E+02 0.  0.
         12    1    1    2    0    0 -0.10658324327E+01  0.22280356721E-01 -0.50430802765E+00  0.11793310713E+01  0.00000000000E+00 0. -1.
         11    1    3    3    0    0  0.14673854223E+01  0.18936639692E+02  0.34162673161E+02  0.39087565549E+02  0.51100000000E-03 0. -1.
        -11    1    3    3    0    0 -0.55190287996E+01  0.72896459927E+01 -0.17868642642E+01  0.93161956694E+01  0.51100000000E-03 0.  1.
        -12    1    3    3    0    0  0.51174758100E+01 -0.26248566042E+02 -0.31871500869E+02  0.41604907710E+02  0.00000000000E+00 0.  1.
</event>
<event>
 7    1  0.2084210E-015  0.9000767E+02  0.7816164E-02  0.1186339E+00
        -11   -1    0    0    0    0  0.00000000000E+00  0.00000000000E+00  0.45593999997E+02  0.45594000000E+02  0.51100000000E-03 0. -1.
         11   -1    0    0    0    0 -0.00000000000E+00 -0.00000000000E+00 -0.45593999997E+02  0.45594000000E+02  0.51100000000E-03 0.  1.
    9900012    2    1    2    0    0 -0.52772214855E+00  0.47332211068E+00 -0.94375003379E+00  0.90007665889E+02  0.89999926279E+02 0.  0.
         12    1    1    2    0    0  0.52772214855E+00 -0.47332211068E+00  0.94375003379E+00  0.11803341107E+01  0.00000000000E+00 0. -1.
         11    1    3    3    0    0 -0.52894603304E+00  0.29159697150E+02  0.23738075422E+02  0.37604041628E+02  0.51100000000E-03 0. -1.
        -11    1    3    3    0    0 -0.49752572516E+01 -0.45620824546E+01  0.86409741980E+01  0.10965045207E+02  0.51100000000E-03 0.  1.
        -12    1    3    3    0    0  0.49764811361E+01 -0.24124292585E+02 -0.33322799654E+02  0.41438579054E+02  0.00000000000E+00 0.  1.
</event>
<event>
 7    1  0.2084210E-015  0.9000799E+02  0.7816164E-02  0.1186339E+00
        -11   -1    0    0    0    0  0.00000000000E+00  0.00000000000E+00  0.45593999997E+02  0.45594000000E+02  0.51100000000E-03 0. -1.
         11   -1    0    0    0    0 -0.00000000000E+00 -0.00000000000E+00 -0.45593999997E+02  0.45594000000E+02  0.51100000000E-03 0.  1.
    9900012    2    1    2    0    0 -0.96626864616E+00  0.23608436363E+00  0.63483197603E+00  0.90007990440E+02  0.90000255114E+02 0.  0.
         12    1    1    2    0    0  0.96626864616E+00 -0.23608436363E+00 -0.63483197603E+00  0.11800095597E+01  0.00000000000E+00 0. -1.
         11    1    3    3    0    0 -0.39412013549E+01 -0.41181757508E+01  0.15120253081E+02  0.16159037506E+02  0.51100000000E-03 0. -1.
        -11    1    3    3    0    0 -0.15565095963E+02 -0.29698964266E+02 -0.87543015318E+01  0.34654559388E+02  0.51100000000E-03 0.  1.
         12    1    3    3    0    0  0.18540028672E+02  0.34053224381E+02 -0.57311195731E+01  0.39194393546E+02  0.00000000000E+00 0. -1.
</event>
<event>
 7    1  0.2084210E-015  0.9000772E+02  0.7816164E-02  0.1186339E+00
        -11   -1    0    0    0    0  0.00000000000E+00  0.00000000000E+00  0.45593999997E+02  0.45594000000E+02  0.51100000000E-03 0. -1.
         11   -1    0    0    0    0 -0.00000000000E+00 -0.00000000000E+00 -0.45593999997E+02  0.45594000000E+02  0.51100000000E-03 0.  1.
    9900012    2    1    2    0    0 -0.11393263552E+01 -0.30432266243E+00 -0.48920469389E-01  0.90007716119E+02  0.89999977172E+02 0.  0.
         12    1    1    2    0    0  0.11393263552E+01  0.30432266243E+00  0.48920469389E-01  0.11802838806E+01  0.00000000000E+00 0. -1.
         11    1    3    3    0    0 -0.15409409018E+01 -0.10584783444E+02 -0.60110977323E+01  0.12269695824E+02  0.51100000000E-03 0. -1.
        -11    1    3    3    0    0  0.36524390118E+02  0.11756108972E+02 -0.76179954118E+01  0.39118678736E+02  0.51100000000E-03 0.  1.
         12    1    3    3    0    0 -0.36122775572E+02 -0.14756481905E+01  0.13580172675E+02  0.38619341559E+02  0.00000000000E+00 0. -1.
</event>
<event>
 7    1  0.2084210E-015  0.9000774E+02  0.7816164E-02  0.1186339E+00
        -11   -1    0    0    0    0  0.00000000000E+00  0.00000000000E+00  0.45593999997E+02  0.45594000000E+02  0.51100000000E-03 0.  1.
         11   -1    0    0    0    0 -0.00000000000E+00 -0.00000000000E+00 -0.45593999997E+02  0.45594000000E+02  0.51100000000E-03 0. -1.
    9900012    2    1    2    0    0  0.72664280964E-01  0.10357404627E+01  0.56121836497E+00  0.90007743902E+02  0.90000005321E+02 0.  0.
         12    1    1    2    0    0 -0.72664280964E-01 -0.10357404627E+01 -0.56121836497E+00  0.11802560980E+01  0.00000000000E+00 0. -1.
         11    1    3    3    0    0 -0.81436776589E+01 -0.40141250537E+02  0.30307056496E+01  0.41070970983E+02  0.51100000000E-03 0. -1.
        -11    1    3    3    0    0 -0.94320777719E+00  0.83315809309E+01 -0.10957528726E+02  0.13797547527E+02  0.51100000000E-03 0.  1.
        -12    1    3    3    0    0  0.91595497170E+01  0.32845410069E+02  0.84880414413E+01  0.35139225392E+02  0.00000000000E+00 0.  1.
</event>
<event>
 7    1  0.2084210E-015  0.9000771E+02  0.7816164E-02  0.1186339E+00
        -11   -1    0    0    0    0  0.00000000000E+00  0.00000000000E+00  0.45593999997E+02  0.45594000000E+02  0.51100000000E-03 0.  1.
         11   -1    0    0    0    0 -0.00000000000E+00 -0.00000000000E+00 -0.45593999997E+02  0.45594000000E+02  0.51100000000E-03 0. -1.
    9900012    2    1    2    0    0 -0.75069515396E+00 -0.91049980173E+00 -0.23092640544E-01  0.90007709200E+02  0.89999970161E+02 0.  0.
         12    1    1    2    0    0  0.75069515396E+00  0.91049980173E+00  0.23092640544E-01  0.11802908003E+01  0.00000000000E+00 0. -1.
         11    1    3    3    0    0  0.37105450997E+02  0.34071337190E+01 -0.10612987709E+02  0.38743497032E+02  0.51100000000E-03 0. -1.
        -11    1    3    3    0    0  0.21217247379E+01  0.38177610782E+01 -0.58316989225E+01  0.72859953402E+01  0.51100000000E-03 0.  1.
        -12    1    3    3    0    0 -0.39977870889E+02 -0.81353945990E+01  0.16421593991E+02  0.43978216827E+02  0.00000000000E+00 0.  1.
</event>
<event>
 7    1  0.2084210E-015  0.9000775E+02  0.7816164E-02  0.1186339E+00
        -11   -1    0    0    0    0  0.00000000000E+00  0.00000000000E+00  0.45593999997E+02  0.45594000000E+02  0.51100000000E-03 0. -1.
         11   -1    0    0    0    0 -0.00000000000E+00 -0.00000000000E+00 -0.45593999997E+02  0.45594000000E+02  0.51100000000E-03 0.  1.
    9900012    2    1    2    0    0 -0.54096952362E+00 -0.10443900528E+01 -0.97921667924E-01  0.90007751187E+02  0.90000012703E+02 0.  0.
         12    1    1    2    0    0  0.54096952362E+00  0.10443900528E+01  0.97921667924E-01  0.11802488131E+01  0.00000000000E+00 0. -1.
         11    1    3    3    0    0  0.62152328042E+01  0.64681771194E+01 -0.32450622342E+01  0.95392276010E+01  0.51100000000E-03 0. -1.
        -11    1    3    3    0    0  0.24563714058E+01 -0.25720700348E+02 -0.31204463677E+02  0.40513044079E+02  0.51100000000E-03 0.  1.
         12    1    3    3    0    0 -0.92125737336E+01  0.18208133176E+02  0.34351604243E+02  0.39955479507E+02  0.00000000000E+00 0. -1.
</event>
<event>
 7    1  0.2084210E-015  0.9000771E+02  0.7816164E-02  0.1186339E+00
        -11   -1    0    0    0    0  0.00000000000E+00  0.00000000000E+00  0.45593999997E+02  0.45594000000E+02  0.51100000000E-03 0.  1.
         11   -1    0    0    0    0 -0.00000000000E+00 -0.00000000000E+00 -0.45593999997E+02  0.45594000000E+02  0.51100000000E-03 0. -1.
    9900012    2    1    2    0    0  0.10887685041E-01  0.28298621572E+00  0.11458155030E+01  0.90007706432E+02  0.89999967357E+02 0.  0.
         12    1    1    2    0    0 -0.10887685041E-01 -0.28298621572E+00 -0.11458155030E+01  0.11802935681E+01  0.00000000000E+00 0. -1.
         11    1    3    3    0    0  0.74237364134E+01 -0.16832708443E+02 -0.10153434883E+02  0.21012952578E+02  0.51100000000E-03 0. -1.
        -11    1    3    3    0    0 -0.28175320127E+02 -0.11810511917E+02  0.13326889023E+02  0.33330808981E+02  0.51100000000E-03 0.  1.
         12    1    3    3    0    0  0.20762471399E+02  0.28926206576E+02 -0.20276386366E+01  0.35663944873E+02  0.00000000000E+00 0. -1.
</event>
<event>
 7    1  0.2084210E-015  0.9000772E+02  0.7816164E-02  0.1186339E+00
        -11   -1    0    0    0    0  0.00000000000E+00  0.00000000000E+00  0.45593999997E+02  0.45594000000E+02  0.51100000000E-03 0.  1.
         11   -1    0    0    0    0 -0.00000000000E+00 -0.00000000000E+00 -0.45593999997E+02  0.45594000000E+02  0.51100000000E-03 0. -1.
    9900012    2    1    2    0    0 -0.28960109819E+00  0.75082252473E+00  0.86340187177E+00  0.90007717808E+02  0.89999978883E+02 0.  0.
         12    1    1    2    0    0  0.28960109819E+00 -0.75082252473E+00 -0.86340187177E+00  0.11802821916E+01  0.00000000000E+00 0. -1.
         11    1    3    3    0    0  0.18521242834E+02 -0.11152069438E+02 -0.23839072031E+02  0.32182393392E+02  0.51100000000E-03 0. -1.
        -11    1    3    3    0    0  0.49987996131E+01 -0.27067084711E+01 -0.11066277700E+02  0.12440931264E+02  0.51100000000E-03 0.  1.
        -12    1    3    3    0    0 -0.23809643545E+02  0.14609600434E+02  0.35768751603E+02  0.45384393152E+02  0.00000000000E+00 0.  1.
</event>
<event>
 7    1  0.2084210E-015  0.9000770E+02  0.7816164E-02  0.1186339E+00
        -11   -1    0    0    0    0  0.00000000000E+00  0.00000000000E+00  0.45593999997E+02  0.45594000000E+02  0.51100000000E-03 0.  1.
         11   -1    0    0    0    0 -0.00000000000E+00 -0.00000000000E+00 -0.45593999997E+02  0.45594000000E+02  0.51100000000E-03 0. -1.
    9900012    2    1    2    0    0 -0.76399228127E+00 -0.76778686239E+00  0.46896426735E+00  0.90007699887E+02  0.89999960726E+02 0.  0.
         12    1    1    2    0    0  0.76399228127E+00  0.76778686239E+00 -0.46896426735E+00  0.11803001127E+01  0.00000000000E+00 0. -1.
         11    1    3    3    0    0 -0.65293263869E+01  0.25363226878E+02 -0.16943755488E+02  0.31193208092E+02  0.51100000000E-03 0. -1.
        -11    1    3    3    0    0 -0.97156062134E+01  0.11341826220E+02  0.67098487971E+00  0.14949255736E+02  0.51100000000E-03 0.  1.
        -12    1    3    3    0    0  0.15480940319E+02 -0.37472839961E+02  0.16741734876E+02  0.43865236059E+02  0.00000000000E+00 0.  1.
</event>
<event>
 7    1  0.2084210E-015  0.9000772E+02  0.7816164E-02  0.1186339E+00
        -11   -1    0    0    0    0  0.00000000000E+00  0.00000000000E+00  0.45593999997E+02  0.45594000000E+02  0.51100000000E-03 0. -1.
         11   -1    0    0    0    0 -0.00000000000E+00 -0.00000000000E+00 -0.45593999997E+02  0.45594000000E+02  0.51100000000E-03 0.  1.
    9900012    2    1    2    0    0  0.94244710867E+00 -0.70944826959E+00  0.39085985794E-01  0.90007724136E+02  0.89999985295E+02 0.  0.
         12    1    1    2    0    0 -0.94244710867E+00  0.70944826959E+00 -0.39085985794E-01  0.11802758636E+01  0.00000000000E+00 0. -1.
         11    1    3    3    0    0  0.18252570844E+02  0.58488406343E+01 -0.28967643930E+02  0.34734560229E+02  0.51100000000E-03 0. -1.
        -11    1    3    3    0    0 -0.26299849475E+01  0.41312009201E+01 -0.10613847953E+02  0.11689200593E+02  0.51100000000E-03 0.  1.
        -12    1    3    3    0    0 -0.14680138788E+02 -0.10689489824E+02  0.39620577869E+02  0.43583963315E+02  0.00000000000E+00 0.  1.
</event>
<event>
 7    1  0.2084210E-015  0.9000771E+02  0.7816164E-02  0.1186339E+00
        -11   -1    0    0    0    0  0.00000000000E+00  0.00000000000E+00  0.45593999997E+02  0.45594000000E+02  0.51100000000E-03 0.  1.
         11   -1    0    0    0    0 -0.00000000000E+00 -0.00000000000E+00 -0.45593999997E+02  0.45594000000E+02  0.51100000000E-03 0. -1.
    9900012    2    1    2    0    0 -0.92040354281E+00  0.66188622895E+00  0.32840783777E+00  0.90007708608E+02  0.89999969562E+02 0.  0.
         12    1    1    2    0    0  0.92040354281E+00 -0.66188622895E+00 -0.32840783777E+00  0.11802913918E+01  0.00000000000E+00 0. -1.
         11    1    3    3    0    0  0.58489843832E+01 -0.94505486872E+01 -0.33203733355E+02  0.35014445559E+02  0.51100000000E-03 0. -1.
        -11    1    3    3    0    0  0.30342202709E+01  0.23466115583E+01 -0.94657435340E+01  0.10213392158E+02  0.51100000000E-03 0.  1.
        -12    1    3    3    0    0 -0.98036081969E+01  0.77658233578E+01  0.42997884727E+02  0.44779870892E+02  0.00000000000E+00 0.  1.
</event>
<event>
 7    1  0.2084210E-015  0.9000771E+02  0.7816164E-02  0.1186339E+00
        -11   -1    0    0    0    0  0.00000000000E+00  0.00000000000E+00  0.45593999997E+02  0.45594000000E+02  0.51100000000E-03 0.  1.
         11   -1    0    0    0    0 -0.00000000000E+00 -0.00000000000E+00 -0.45593999997E+02  0.45594000000E+02  0.51100000000E-03 0. -1.
    9900012    2    1    2    0    0  0.56581127214E+00 -0.86246850426E+00  0.57365598701E+00  0.90007713803E+02  0.89999974825E+02 0.  0.
         12    1    1    2    0    0 -0.56581127214E+00  0.86246850426E+00 -0.57365598701E+00  0.11802861975E+01  0.00000000000E+00 0. -1.
         11    1    3    3    0    0 -0.94851564265E+01  0.13219691086E+02 -0.31026439065E+02  0.35033817179E+02  0.51100000000E-03 0. -1.
        -11    1    3    3    0    0  0.94191307165E+00  0.67444341118E+01 -0.72597341486E+01  0.99538099185E+01  0.51100000000E-03 0.  1.
        -12    1    3    3    0    0  0.91090546270E+01 -0.20826593702E+02  0.38859829200E+02  0.45020086705E+02  0.00000000000E+00 0.  1.
</event>
<event>
 7    1  0.2084210E-015  0.9000773E+02  0.7816164E-02  0.1186339E+00
        -11   -1    0    0    0    0  0.00000000000E+00  0.00000000000E+00  0.45593999997E+02  0.45594000000E+02  0.51100000000E-03 0.  1.
         11   -1    0    0    0    0 -0.00000000000E+00 -0.00000000000E+00 -0.45593999997E+02  0.45594000000E+02  0.51100000000E-03 0. -1.
    9900012    2    1    2    0    0 -0.10658655736E+01 -0.27184789193E+00 -0.42785621811E+00  0.90007732386E+02  0.89999993654E+02 0.  0.
         12    1    1    2    0    0  0.10658655736E+01  0.27184789193E+00  0.42785621811E+00  0.11802676140E+01  0.00000000000E+00 0. -1.
         11    1    3    3    0    0  0.29226065096E+01  0.82187448968E+01 -0.35633451728E+01  0.94226761364E+01  0.51100000000E-03 0. -1.
        -11    1    3    3    0    0  0.31529461803E+02  0.13521927909E+02 -0.11694913688E+02  0.36245282485E+02  0.51100000000E-03 0.  1.
         12    1    3    3    0    0 -0.35517933886E+02 -0.22012520698E+02  0.14830402643E+02  0.44339773765E+02  0.00000000000E+00 0. -1.
</event>
<event>
 7    1  0.2084210E-015  0.9000774E+02  0.7816164E-02  0.1186339E+00
        -11   -1    0    0    0    0  0.00000000000E+00  0.00000000000E+00  0.45593999997E+02  0.45594000000E+02  0.51100000000E-03 0. -1.
         11   -1    0    0    0    0 -0.00000000000E+00 -0.00000000000E+00 -0.45593999997E+02  0.45594000000E+02  0.51100000000E-03 0.  1.
    9900012    2    1    2    0    0  0.75234836788E+00 -0.35233327331E+00 -0.83835405940E+00  0.90007743955E+02  0.90000005376E+02 0.  0.
         12    1    1    2    0    0 -0.75234836788E+00  0.35233327331E+00  0.83835405940E+00  0.11802560447E+01  0.00000000000E+00 0. -1.
         11    1    3    3    0    0  0.70191878097E+01  0.34219013538E+01 -0.51174124841E+01  0.93362903327E+01  0.51100000000E-03 0. -1.
        -11    1    3    3    0    0 -0.36252849224E+02  0.20529501895E+02  0.56811382000E+01  0.42047649832E+02  0.51100000000E-03 0.  1.
         12    1    3    3    0    0  0.29986009782E+02 -0.24303736522E+02 -0.14020797752E+01  0.38623803791E+02  0.00000000000E+00 0. -1.
</event>
<event>
 7    1  0.2084210E-015  0.9000775E+02  0.7816164E-02  0.1186339E+00
        -11   -1    0    0    0    0  0.00000000000E+00  0.00000000000E+00  0.45593999997E+02  0.45594000000E+02  0.51100000000E-03 0. -1.
         11   -1    0    0    0    0 -0.00000000000E+00 -0.00000000000E+00 -0.45593999997E+02  0.45594000000E+02  0.51100000000E-03 0.  1.
    9900012    2    1    2    0    0  0.84958068710E+00 -0.55412487644E+00 -0.60344014464E+00  0.90007753530E+02  0.90000015076E+02 0.  0.
         12    1    1    2    0    0 -0.84958068710E+00  0.55412487644E+00  0.60344014464E+00  0.11802464703E+01  0.00000000000E+00 0. -1.
         11    1    3    3    0    0 -0.12635712621E+01  0.33199118540E+02  0.10008253960E+02  0.34697885119E+02  0.51100000000E-03 0. -1.
        -11    1    3    3    0    0 -0.75024131095E+00  0.91139945565E+01  0.39290432562E+01  0.99531472395E+01  0.51100000000E-03 0.  1.
        -12    1    3    3    0    0  0.28633932602E+01 -0.42867237973E+02 -0.14540737361E+02  0.45356721171E+02  0.00000000000E+00 0.  1.
</event>
<event>
 7    1  0.2084210E-015  0.9000797E+02  0.7816164E-02  0.1186339E+00
        -11   -1    0    0    0    0  0.00000000000E+00  0.00000000000E+00  0.45593999997E+02  0.45594000000E+02  0.51100000000E-03 0.  1.
         11   -1    0    0    0    0 -0.00000000000E+00 -0.00000000000E+00 -0.45593999997E+02  0.45594000000E+02  0.51100000000E-03 0. -1.
    9900012    2    1    2    0    0 -0.30754212081E+00  0.25294370908E+00  0.11108191511E+01  0.90007965313E+02  0.90000229655E+02 0.  0.
         12    1    1    2    0    0  0.30754212081E+00 -0.25294370908E+00 -0.11108191511E+01  0.11800346870E+01  0.00000000000E+00 0. -1.
         11    1    3    3    0    0  0.19814105369E+02  0.21628697746E+02 -0.26415071973E+02  0.39473476732E+02  0.51100000000E-03 0. -1.
        -11    1    3    3    0    0 -0.26243048055E+01 -0.39667388089E+01 -0.67738567385E+01  0.82769032775E+01  0.51100000000E-03 0.  1.
        -12    1    3    3    0    0 -0.17497342685E+02 -0.17409015228E+02  0.34299747862E+02  0.42257585303E+02  0.00000000000E+00 0.  1.
</event>
<event>
 7    1  0.2084210E-015  0.9000729E+02  0.7816164E-02  0.1186340E+00
        -11   -1    0    0    0    0  0.00000000000E+00  0.00000000000E+00  0.45593999997E+02  0.45594000000E+02  0.51100000000E-03 0. -1.
         11   -1    0    0    0    0 -0.00000000000E+00 -0.00000000000E+00 -0.45593999997E+02  0.45594000000E+02  0.51100000000E-03 0.  1.
    9900012    2    1    2    0    0 -0.10556381710E+00  0.27967985963E+00 -0.11422444198E+01  0.90007285446E+02  0.89999540813E+02 0.  0.
         12    1    1    2    0    0  0.10556381710E+00 -0.27967985963E+00  0.11422444198E+01  0.11807145540E+01  0.00000000000E+00 0. -1.
         11    1    3    3    0    0  0.60150677989E+01  0.36829197595E+01  0.62455922343E+01  0.94208471592E+01  0.51100000000E-03 0. -1.
        -11    1    3    3    0    0 -0.30486664469E+02  0.41917084158E+01  0.24789503852E+02  0.39516156586E+02  0.51100000000E-03 0.  1.
         12    1    3    3    0    0  0.24366032853E+02 -0.75949483156E+01 -0.32177340506E+02  0.41070281700E+02  0.00000000000E+00 0. -1.
</event>
<event>
 7    1  0.2084210E-015  0.9000770E+02  0.7816164E-02  0.1186339E+00
        -11   -1    0    0    0    0  0.00000000000E+00  0.00000000000E+00  0.45593999997E+02  0.45594000000E+02  0.51100000000E-03 0. -1.
         11   -1    0    0    0    0 -0.00000000000E+00 -0.00000000000E+00 -0.45593999997E+02  0.45594000000E+02  0.51100000000E-03 0.  1.
    9900012    2    1    2    0    0  0.49741690273E+00  0.55213019386E+00 -0.91696672684E+00  0.90007703722E+02  0.89999964611E+02 0.  0.
         12    1    1    2    0    0 -0.49741690273E+00 -0.55213019386E+00  0.91696672684E+00  0.11802962782E+01  0.00000000000E+00 0. -1.
         11    1    3    3    0    0 -0.47762350429E+01 -0.35665165048E+01  0.70759951564E+01  0.92521440152E+01  0.51100000000E-03 0. -1.
        -11    1    3    3    0    0 -0.25124068939E+02 -0.19747984678E+02 -0.22919499490E+02  0.39325630269E+02  0.51100000000E-03 0.  1.
         12    1    3    3    0    0  0.30397720885E+02  0.23866631377E+02  0.14926537606E+02  0.41429929438E+02  0.00000000000E+00 0. -1.
</event>
<event>
 7    1  0.2084210E-015  0.9000791E+02  0.7816164E-02  0.1186339E+00
        -11   -1    0    0    0    0  0.00000000000E+00  0.00000000000E+00  0.45593999997E+02  0.45594000000E+02  0.51100000000E-03 0. -1.
         11   -1    0    0    0    0 -0.00000000000E+00 -0.00000000000E+00 -0.45593999997E+02  0.45594000000E+02  0.51100000000E-03 0.  1.
    9900012    2    1    2    0    0 -0.69264331978E+00 -0.53412737132E+00 -0.79218814855E+00  0.90007911495E+02  0.90000175126E+02 0.  0.
         12    1    1    2    0    0  0.69264331978E+00  0.53412737132E+00  0.79218814855E+00  0.11800885051E+01  0.00000000000E+00 0. -1.
         11    1    3    3    0    0  0.33622371235E+02 -0.71550859415E+01  0.93679609126E+01  0.35628889882E+02  0.51100000000E-03 0. -1.
        -11    1    3    3    0    0  0.61366384575E+01 -0.34556171947E+01  0.64059183910E+01  0.95202632551E+01  0.51100000000E-03 0.  1.
        -12    1    3    3    0    0 -0.40451653012E+02  0.10076575765E+02 -0.16566067452E+02  0.44858758358E+02  0.00000000000E+00 0.  1.
</event>
<event>
 7    1  0.2084210E-015  0.9000781E+02  0.7816164E-02  0.1186339E+00
        -11   -1    0    0    0    0  0.00000000000E+00  0.00000000000E+00  0.45593999997E+02  0.45594000000E+02  0.51100000000E-03 0.  1.
         11   -1    0    0    0    0 -0.00000000000E+00 -0.00000000000E+00 -0.45593999997E+02  0.45594000000E+02  0.51100000000E-03 0. -1.
    9900012    2    1    2    0    0 -0.38694908949E+00  0.80025740248E+00  0.77634512723E+00  0.90007807954E+02  0.90000070219E+02 0.  0.
         12    1    1    2    0    0  0.38694908949E+00 -0.80025740248E+00 -0.77634512723E+00  0.11801920457E+01  0.00000000000E+00 0. -1.
         11    1    3    3    0    0 -0.13368944633E+02 -0.76884841453E+01 -0.19515588938E+01  0.15545097344E+02  0.51100000000E-03 0. -1.
        -11    1    3    3    0    0 -0.73932791071E+01  0.37910257068E+02  0.13059226383E+01  0.38646521203E+02  0.51100000000E-03 0.  1.
         12    1    3    3    0    0  0.20375274651E+02 -0.29421515520E+02  0.14219813828E+01  0.35816189407E+02  0.00000000000E+00 0. -1.
</event>
<event>
 7    1  0.2084210E-015  0.9000776E+02  0.7816164E-02  0.1186339E+00
        -11   -1    0    0    0    0  0.00000000000E+00  0.00000000000E+00  0.45593999997E+02  0.45594000000E+02  0.51100000000E-03 0. -1.
         11   -1    0    0    0    0 -0.00000000000E+00 -0.00000000000E+00 -0.45593999997E+02  0.45594000000E+02  0.51100000000E-03 0.  1.
    9900012    2    1    2    0    0  0.11194857242E+01  0.98723900950E-01 -0.36050182926E+00  0.90007764318E+02  0.90000026007E+02 0.  0.
         12    1    1    2    0    0 -0.11194857242E+01 -0.98723900950E-01  0.36050182926E+00  0.11802356817E+01  0.00000000000E+00 0. -1.
         11    1    3    3    0    0 -0.11372309906E+01 -0.17703837984E+02  0.39053233806E+02  0.42893755310E+02  0.51100000000E-03 0. -1.
        -11    1    3    3    0    0  0.23917985132E+01 -0.33869604258E+01 -0.10317561651E+02  0.11119544943E+02  0.51100000000E-03 0.  1.
        -12    1    3    3    0    0 -0.13508179835E+00  0.21189522310E+02 -0.29096173984E+02  0.35994464065E+02  0.00000000000E+00 0.  1.
</event>
<event>
 7    1  0.2084210E-015  0.9000737E+02  0.7816164E-02  0.1186340E+00
        -11   -1    0    0    0    0  0.00000000000E+00  0.00000000000E+00  0.45593999997E+02  0.45594000000E+02  0.51100000000E-03 0.  1.
         11   -1    0    0    0    0 -0.00000000000E+00 -0.00000000000E+00 -0.45593999997E+02  0.45594000000E+02  0.51100000000E-03 0. -1.
    9900012    2    1    2    0    0 -0.57295851394E+00  0.10320628796E+01 -0.21091134156E-01  0.90007373013E+02  0.89999629536E+02 0.  0.
         12    1    1    2    0    0  0.57295851394E+00 -0.10320628796E+01  0.21091134156E-01  0.11806269869E+01  0.00000000000E+00 0. -1.
         11    1    3    3    0    0 -0.91100547265E+01 -0.28189068443E+02 -0.19213556123E+02  0.35309735428E+02  0.51100000000E-03 0. -1.
        -11    1    3    3    0    0 -0.61578202355E+00 -0.83320654295E+01 -0.43708294892E+01  0.94290324269E+01  0.51100000000E-03 0.  1.
        -12    1    3    3    0    0  0.91528782361E+01  0.37553196752E+02  0.23563294478E+02  0.45268605159E+02  0.00000000000E+00 0.  1.
</event>
<event>
 7    1  0.2084210E-015  0.9000749E+02  0.7816164E-02  0.1186340E+00
        -11   -1    0    0    0    0  0.00000000000E+00  0.00000000000E+00  0.45593999997E+02  0.45594000000E+02  0.51100000000E-03 0.  1.
         11   -1    0    0    0    0 -0.00000000000E+00 -0.00000000000E+00 -0.45593999997E+02  0.45594000000E+02  0.51100000000E-03 0. -1.
    9900012    2    1    2    0    0  0.74707703092E-01  0.83811406753E+00  0.82799873808E+00  0.90007492337E+02  0.89999750436E+02 0.  0.
         12    1    1    2    0    0 -0.74707703092E-01 -0.83811406753E+00 -0.82799873808E+00  0.11805076626E+01  0.00000000000E+00 0. -1.
         11    1    3    3    0    0  0.26813792447E+02  0.23166679070E+01 -0.33689202587E+02  0.43119703000E+02  0.51100000000E-03 0. -1.
        -11    1    3    3    0    0  0.47515907397E+00 -0.15637702393E+01 -0.11685302433E+01  0.20091333200E+01  0.51100000000E-03 0.  1.
        -12    1    3    3    0    0 -0.27214243818E+02  0.85216399772E-01  0.35685731568E+02  0.44878656018E+02  0.00000000000E+00 0.  1.
</event>
<event>
 7    1  0.2084210E-015  0.9000739E+02  0.7816164E-02  0.1186340E+00
        -11   -1    0    0    0    0  0.00000000000E+00  0.00000000000E+00  0.45593999997E+02  0.45594000000E+02  0.51100000000E-03 0. -1.
         11   -1    0    0    0    0 -0.00000000000E+00 -0.00000000000E+00 -0.45593999997E+02  0.45594000000E+02  0.51100000000E-03 0.  1.
    9900012    2    1    2    0    0  0.51371312722E+00 -0.22435504628E+00 -0.10390362345E+01  0.90007393097E+02  0.89999649885E+02 0.  0.
         12    1    1    2    0    0 -0.51371312722E+00  0.22435504628E+00  0.10390362345E+01  0.11806069035E+01  0.00000000000E+00 0. -1.
         11    1    3    3    0    0  0.84084612747E+01  0.18755438534E+00 -0.34821166274E+01  0.91028860327E+01  0.51100000000E-03 0. -1.
        -11    1    3    3    0    0  0.80117822029E+00 -0.40134300694E+02 -0.37279901485E+00  0.40144027677E+02  0.51100000000E-03 0.  1.
         12    1    3    3    0    0 -0.86959263678E+01  0.39722391263E+02  0.28158794077E+01  0.40760479387E+02  0.00000000000E+00 0. -1.
</event>
<event>
 7    1  0.2084210E-015  0.9000794E+02  0.7816164E-02  0.1186339E+00
        -11   -1    0    0    0    0  0.00000000000E+00  0.00000000000E+00  0.45593999997E+02  0.45594000000E+02  0.51100000000E-03 0.  1.
         11   -1    0    0    0    0 -0.00000000000E+00 -0.00000000000E+00 -0.45593999997E+02  0.45594000000E+02  0.51100000000E-03 0. -1.
    9900012    2    1    2    0    0 -0.79663976929E+00 -0.42544486783E+00  0.75954106535E+00  0.90007940303E+02  0.90000204315E+02 0.  0.
         12    1    1    2    0    0  0.79663976929E+00  0.42544486783E+00 -0.75954106535E+00  0.11800596966E+01  0.00000000000E+00 0. -1.
         11    1    3    3    0    0 -0.63148227214E+01 -0.91739766533E+01 -0.37999436760E+02  0.39597929592E+02  0.51100000000E-03 0. -1.
        -11    1    3    3    0    0 -0.10313672882E+02 -0.88533337522E+00  0.41521976523E+01  0.11153313817E+02  0.51100000000E-03 0.  1.
        -12    1    3    3    0    0  0.15831855834E+02  0.96338651607E+01  0.34606780173E+02  0.39256696894E+02  0.00000000000E+00 0.  1.
</event>
<event>
 7    1  0.2084210E-015  0.9000775E+02  0.7816164E-02  0.1186339E+00
        -11   -1    0    0    0    0  0.00000000000E+00  0.00000000000E+00  0.45593999997E+02  0.45594000000E+02  0.51100000000E-03 0. -1.
         11   -1    0    0    0    0 -0.00000000000E+00 -0.00000000000E+00 -0.45593999997E+02  0.45594000000E+02  0.51100000000E-03 0.  1.
    9900012    2    1    2    0    0  0.23417701628E+00 -0.10092484383E+01 -0.56529778955E+00  0.90007753045E+02  0.90000014585E+02 0.  0.
         12    1    1    2    0    0 -0.23417701628E+00  0.10092484383E+01  0.56529778955E+00  0.11802469555E+01  0.00000000000E+00 0. -1.
         11    1    3    3    0    0  0.23965764582E+02  0.23902068150E+02  0.24879826570E+02  0.42008005240E+02  0.51100000000E-03 0. -1.
        -11    1    3    3    0    0  0.33952363343E+01 -0.77342712527E+01 -0.37012596200E+01  0.92220336484E+01  0.51100000000E-03 0.  1.
        -12    1    3    3    0    0 -0.27126823900E+02 -0.17177045335E+02 -0.21743864740E+02  0.38777714156E+02  0.00000000000E+00 0.  1.
</event>
<event>
 7    1  0.2084210E-015  0.9000797E+02  0.7816164E-02  0.1186339E+00
        -11   -1    0    0    0    0  0.00000000000E+00  0.00000000000E+00  0.45593999997E+02  0.45594000000E+02  0.51100000000E-03 0.  1.
         11   -1    0    0    0    0 -0.00000000000E+00 -0.00000000000E+00 -0.45593999997E+02  0.45594000000E+02  0.51100000000E-03 0. -1.
    9900012    2    1    2    0    0  0.44994090271E+00  0.10734498617E+01  0.19422013191E+00  0.90007973356E+02  0.90000237804E+02 0.  0.
         12    1    1    2    0    0 -0.44994090271E+00 -0.10734498617E+01 -0.19422013191E+00  0.11800266443E+01  0.00000000000E+00 0. -1.
         11    1    3    3    0    0  0.64098301625E+00 -0.88671940837E+01  0.56336312972E+01  0.10525007933E+02  0.51100000000E-03 0. -1.
        -11    1    3    3    0    0 -0.43479281953E+00  0.22502673360E+02  0.32491424681E+02  0.39525334043E+02  0.51100000000E-03 0.  1.
         12    1    3    3    0    0  0.24375070599E+00 -0.12562029415E+02 -0.37930835846E+02  0.39957631379E+02  0.00000000000E+00 0. -1.
</event>
<event>
 7    1  0.2084210E-015  0.9000779E+02  0.7816164E-02  0.1186339E+00
        -11   -1    0    0    0    0  0.00000000000E+00  0.00000000000E+00  0.45593999997E+02  0.45594000000E+02  0.51100000000E-03 0.  1.
         11   -1    0    0    0    0 -0.00000000000E+00 -0.00000000000E+00 -0.45593999997E+02  0.45594000000E+02  0.51100000000E-03 0. -1.
    9900012    2    1    2    0    0 -0.60916587333E+00 -0.10107315492E+01 -0.15567922391E-01  0.90007786593E+02  0.90000048576E+02 0.  0.
         12    1    1    2    0    0  0.60916587333E+00  0.10107315492E+01  0.15567922391E-01  0.11802134069E+01  0.00000000000E+00 0. -1.
         11    1    3    3    0    0 -0.25073662488E+02 -0.70078633129E+01 -0.26165424228E+02  0.36911084028E+02  0.51100000000E-03 0. -1.
        -11    1    3    3    0    0 -0.48351557975E+01  0.25391645011E+01 -0.68962922155E+01  0.87968707239E+01  0.51100000000E-03 0.  1.
        -12    1    3    3    0    0  0.29299652413E+02  0.34579672627E+01  0.33046148521E+02  0.44299831841E+02  0.00000000000E+00 0.  1.
</event>
<event>
 7    1  0.2084210E-015  0.9000773E+02  0.7816164E-02  0.1186339E+00
        -11   -1    0    0    0    0  0.00000000000E+00  0.00000000000E+00  0.45593999997E+02  0.45594000000E+02  0.51100000000E-03 0. -1.
         11   -1    0    0    0    0 -0.00000000000E+00 -0.00000000000E+00 -0.45593999997E+02  0.45594000000E+02  0.51100000000E-03 0.  1.
    9900012    2    1    2    0    0 -0.14154357719E+00  0.10870711873E+01  0.43734493724E+00  0.90007733528E+02  0.89999994811E+02 0.  0.
         12    1    1    2    0    0  0.14154357719E+00 -0.10870711873E+01 -0.43734493724E+00  0.11802664719E+01  0.00000000000E+00 0. -1.
         11    1    3    3    0    0  0.94268331247E+01  0.12374933642E+01  0.15648939024E+01  0.96356352034E+01  0.51100000000E-03 0. -1.
        -11    1    3    3    0    0  0.35349905742E+02  0.18732039216E+01 -0.67954970908E+00  0.35406023739E+02  0.51100000000E-03 0.  1.
         12    1    3    3    0    0 -0.44918282444E+02 -0.20236260984E+01 -0.44799925605E+00  0.44966074586E+02  0.00000000000E+00 0. -1.
</event>
<event>
 7    1  0.2084210E-015  0.9000773E+02  0.7816164E-02  0.1186339E+00
        -11   -1    0    0    0    0  0.00000000000E+00  0.00000000000E+00  0.45593999997E+02  0.45594000000E+02  0.51100000000E-03 0.  1.
         11   -1    0    0    0    0 -0.00000000000E+00 -0.00000000000E+00 -0.45593999997E+02  0.45594000000E+02  0.51100000000E-03 0. -1.
    9900012    2    1    2    0    0 -0.10165083363E+01 -0.38719356856E+00  0.45806565258E+00  0.90007732149E+02  0.89999993414E+02 0.  0.
         12    1    1    2    0    0  0.10165083363E+01  0.38719356856E+00 -0.45806565258E+00  0.11802678507E+01  0.00000000000E+00 0. -1.
         11    1    3    3    0    0 -0.84613419274E+01 -0.39547063764E+01  0.19919388082E+01  0.95499649325E+01  0.51100000000E-03 0. -1.
        -11    1    3    3    0    0 -0.21466943875E+02  0.29258116981E+02  0.13838791147E+02  0.38837858197E+02  0.51100000000E-03 0.  1.
         12    1    3    3    0    0  0.28911777467E+02 -0.25690604173E+02 -0.15372664303E+02  0.41619909020E+02  0.00000000000E+00 0. -1.
</event>
<event>
 7    1  0.2084210E-015  0.9000770E+02  0.7816164E-02  0.1186339E+00
        -11   -1    0    0    0    0  0.00000000000E+00  0.00000000000E+00  0.45593999997E+02  0.45594000000E+02  0.51100000000E-03 0. -1.
         11   -1    0    0    0    0 -0.00000000000E+00 -0.00000000000E+00 -0.45593999997E+02  0.45594000000E+02  0.51100000000E-03 0.  1.
    9900012    2    1    2    0    0 -0.91739430596E+00  0.62167934336E+00 -0.40621397898E+00  0.90007700328E+02  0.89999961173E+02 0.  0.
         12    1    1    2    0    0  0.91739430596E+00 -0.62167934336E+00  0.40621397898E+00  0.11802996718E+01  0.00000000000E+00 0. -1.
         11    1    3    3    0    0 -0.22602894106E+01  0.33097298517E+02 -0.13462277292E+02  0.35801857319E+02  0.51100000000E-03 0. -1.
        -11    1    3    3    0    0 -0.56151336835E+00  0.72328423956E+01 -0.66448894720E+01  0.98378789756E+01  0.51100000000E-03 0.  1.
        -12    1    3    3    0    0  0.19044084730E+01 -0.39708461570E+02  0.19700952785E+02  0.44367964033E+02  0.00000000000E+00 0.  1.
</event>
<event>
 7    1  0.2084210E-015  0.9000755E+02  0.7816164E-02  0.1186339E+00
        -11   -1    0    0    0    0  0.00000000000E+00  0.00000000000E+00  0.45593999997E+02  0.45594000000E+02  0.51100000000E-03 0.  1.
         11   -1    0    0    0    0 -0.00000000000E+00 -0.00000000000E+00 -0.45593999997E+02  0.45594000000E+02  0.51100000000E-03 0. -1.
    9900012    2    1    2    0    0  0.78331410488E+00 -0.92284464773E-01  0.87827903231E+00  0.90007546075E+02  0.89999804883E+02 0.  0.
         12    1    1    2    0    0 -0.78331410488E+00  0.92284464773E-01 -0.87827903231E+00  0.11804539245E+01  0.00000000000E+00 0. -1.
         11    1    3    3    0    0  0.35609591391E+01 -0.90406666855E+01 -0.12573591568E+02  0.15890540875E+02  0.51100000000E-03 0. -1.
        -11    1    3    3    0    0 -0.22273397488E+02 -0.20264521307E+02  0.22803480924E+02  0.37772394708E+02  0.51100000000E-03 0.  1.
        -12    1    3    3    0    0  0.19495752453E+02  0.29212903528E+02 -0.93516103231E+01  0.36344610493E+02  0.00000000000E+00 0.  1.
</event>
<event>
 7    1  0.2084210E-015  0.9000770E+02  0.7816164E-02  0.1186339E+00
        -11   -1    0    0    0    0  0.00000000000E+00  0.00000000000E+00  0.45593999997E+02  0.45594000000E+02  0.51100000000E-03 0.  1.
         11   -1    0    0    0    0 -0.00000000000E+00 -0.00000000000E+00 -0.45593999997E+02  0.45594000000E+02  0.51100000000E-03 0. -1.
    9900012    2    1    2    0    0  0.29559021312E+00  0.69732762811E+00 -0.90524289823E+00  0.90007701690E+02  0.89999962553E+02 0.  0.
         12    1    1    2    0    0 -0.29559021312E+00 -0.69732762811E+00  0.90524289823E+00  0.11802983097E+01  0.00000000000E+00 0. -1.
         11    1    3    3    0    0  0.25760918914E+02 -0.30098895587E+02 -0.21817153258E+01  0.39677806654E+02  0.51100000000E-03 0. -1.
        -11    1    3    3    0    0 -0.16841041896E+02 -0.93144955422E+00  0.40119993308E+01  0.17337370888E+02  0.51100000000E-03 0.  1.
        -12    1    3    3    0    0 -0.86242868050E+01  0.31727672770E+02 -0.27355269033E+01  0.32992524149E+02  0.00000000000E+00 0.  1.
</event>
<event>
 7    1  0.2084210E-015  0.9000772E+02  0.7816164E-02  0.1186339E+00
        -11   -1    0    0    0    0  0.00000000000E+00  0.00000000000E+00  0.45593999997E+02  0.45594000000E+02  0.51100000000E-03 0.  1.
         11   -1    0    0    0    0 -0.00000000000E+00 -0.00000000000E+00 -0.45593999997E+02  0.45594000000E+02  0.51100000000E-03 0. -1.
    9900012    2    1    2    0    0 -0.72342520262E+00 -0.82538621150E+00  0.43412438597E+00  0.90007715965E+02  0.89999977015E+02 0.  0.
         12    1    1    2    0    0  0.72342520262E+00  0.82538621150E+00 -0.43412438597E+00  0.11802840355E+01  0.00000000000E+00 0. -1.
         11    1    3    3    0    0  0.78208996533E+01  0.27160556618E+01 -0.10524393123E+02  0.13390529512E+02  0.51100000000E-03 0. -1.
        -11    1    3    3    0    0  0.70361970669E+00 -0.38998533322E+02  0.82955596706E+01  0.39877274135E+02  0.51100000000E-03 0.  1.
         12    1    3    3    0    0 -0.92479445626E+01  0.35457091449E+02  0.26629578383E+01  0.36739912317E+02  0.00000000000E+00 0. -1.
</event>
<event>
 7    1  0.2084210E-015  0.9000770E+02  0.7816164E-02  0.1186339E+00
        -11   -1    0    0    0    0  0.00000000000E+00  0.00000000000E+00  0.45593999997E+02  0.45594000000E+02  0.51100000000E-03 0. -1.
         11   -1    0    0    0    0 -0.00000000000E+00 -0.00000000000E+00 -0.45593999997E+02  0.45594000000E+02  0.51100000000E-03 0.  1.
    9900012    2    1    2    0    0 -0.99728660252E+00 -0.37370559742E+00 -0.50879422887E+00  0.90007700035E+02  0.89999960875E+02 0.  0.
         12    1    1    2    0    0  0.99728660252E+00  0.37370559742E+00  0.50879422887E+00  0.11802999654E+01  0.00000000000E+00 0. -1.
         11    1    3    3    0    0  0.15436336768E+02  0.21214009132E+02  0.17738694229E+02  0.31669795539E+02  0.51100000000E-03 0. -1.
        -11    1    3    3    0    0  0.66211070708E+01  0.52537494400E+01  0.99772749392E+01  0.13076198128E+02  0.51100000000E-03 0.  1.
        -12    1    3    3    0    0 -0.23054730441E+02 -0.26841464169E+02 -0.28224763397E+02  0.45261706367E+02  0.00000000000E+00 0.  1.
</event>
<event>
 7    1  0.2084210E-015  0.9000779E+02  0.7816164E-02  0.1186339E+00
        -11   -1    0    0    0    0  0.00000000000E+00  0.00000000000E+00  0.45593999997E+02  0.45594000000E+02  0.51100000000E-03 0. -1.
         11   -1    0    0    0    0 -0.00000000000E+00 -0.00000000000E+00 -0.45593999997E+02  0.45594000000E+02  0.51100000000E-03 0.  1.
    9900012    2    1    2    0    0 -0.64220005702E+00  0.14354072228E+00 -0.97972951396E+00  0.90007790369E+02  0.90000052402E+02 0.  0.
         12    1    1    2    0    0  0.64220005702E+00 -0.14354072228E+00  0.97972951396E+00  0.11802096308E+01  0.00000000000E+00 0. -1.
         11    1    3    3    0    0  0.27100049887E+02 -0.50563481440E+01  0.20526476036E+02  0.34370271736E+02  0.51100000000E-03 0. -1.
        -11    1    3    3    0    0  0.87151919280E+01 -0.15665836512E+01  0.48959431742E+01  0.10118251554E+02  0.51100000000E-03 0.  1.
        -12    1    3    3    0    0 -0.36457441872E+02  0.67664725176E+01 -0.26402148724E+02  0.45519267080E+02  0.00000000000E+00 0.  1.
</event>
<event>
 7    1  0.2084210E-015  0.9000770E+02  0.7816164E-02  0.1186339E+00
        -11   -1    0    0    0    0  0.00000000000E+00  0.00000000000E+00  0.45593999997E+02  0.45594000000E+02  0.51100000000E-03 0. -1.
         11   -1    0    0    0    0 -0.00000000000E+00 -0.00000000000E+00 -0.45593999997E+02  0.45594000000E+02  0.51100000000E-03 0.  1.
    9900012    2    1    2    0    0  0.95666952420E+00 -0.18942977635E+00 -0.66484403862E+00  0.90007695881E+02  0.89999956666E+02 0.  0.
         12    1    1    2    0    0 -0.95666952420E+00  0.18942977635E+00  0.66484403862E+00  0.11803041194E+01  0.00000000000E+00 0. -1.
         11    1    3    3    0    0 -0.16956501376E+02 -0.63455950569E+01  0.24350616112E+02  0.30343731162E+02  0.51100000000E-03 0. -1.
        -11    1    3    3    0    0 -0.77172612067E+01 -0.37629593070E+00  0.11937914197E+02  0.14220109521E+02  0.51100000000E-03 0.  1.
        -12    1    3    3    0    0  0.25630432107E+02  0.65324612113E+01 -0.36953374348E+02  0.45443855197E+02  0.00000000000E+00 0.  1.
</event>
<event>
 7    1  0.2084210E-015  0.9000773E+02  0.7816164E-02  0.1186339E+00
        -11   -1    0    0    0    0  0.00000000000E+00  0.00000000000E+00  0.45593999997E+02  0.45594000000E+02  0.51100000000E-03 0.  1.
         11   -1    0    0    0    0 -0.00000000000E+00 -0.00000000000E+00 -0.45593999997E+02  0.45594000000E+02  0.51100000000E-03 0. -1.
    9900012    2    1    2    0    0  0.10840255507E+01  0.16714821858E+00  0.43586363044E+00  0.90007734341E+02  0.89999995634E+02 0.  0.
         12    1    1    2    0    0 -0.10840255507E+01 -0.16714821858E+00 -0.43586363044E+00  0.11802656590E+01  0.00000000000E+00 0. -1.
         11    1    3    3    0    0  0.11268449791E+02  0.30193916607E+02 -0.27314908494E+02  0.42246358270E+02  0.51100000000E-03 0. -1.
        -11    1    3    3    0    0 -0.11175609767E+02 -0.27813102667E+01  0.67653068668E+01  0.13356620745E+02  0.51100000000E-03 0.  1.
        -12    1    3    3    0    0  0.99118552625E+00 -0.27245458121E+02  0.20985465258E+02  0.34404755326E+02  0.00000000000E+00 0.  1.
</event>
<event>
 7    1  0.2084210E-015  0.9000772E+02  0.7816164E-02  0.1186339E+00
        -11   -1    0    0    0    0  0.00000000000E+00  0.00000000000E+00  0.45593999997E+02  0.45594000000E+02  0.51100000000E-03 0. -1.
         11   -1    0    0    0    0 -0.00000000000E+00 -0.00000000000E+00 -0.45593999997E+02  0.45594000000E+02  0.51100000000E-03 0.  1.
    9900012    2    1    2    0    0 -0.40712140279E+00 -0.10028159221E+01  0.47081391207E+00  0.90007723189E+02  0.89999984335E+02 0.  0.
         12    1    1    2    0    0  0.40712140279E+00  0.10028159221E+01 -0.47081391207E+00  0.11802768108E+01  0.00000000000E+00 0. -1.
         11    1    3    3    0    0 -0.23305819254E+02 -0.10633957094E+02  0.29969112898E+02  0.39425752785E+02  0.51100000000E-03 0. -1.
        -11    1    3    3    0    0  0.49532957158E+01 -0.35982130105E+01  0.60587774287E+01  0.86134232166E+01  0.51100000000E-03 0.  1.
        -12    1    3    3    0    0  0.17945402135E+02  0.13229354182E+02 -0.35557076414E+02  0.41968547187E+02  0.00000000000E+00 0.  1.
</event>
<event>
 7    1  0.2084210E-015  0.9000769E+02  0.7816164E-02  0.1186339E+00
        -11   -1    0    0    0    0  0.00000000000E+00  0.00000000000E+00  0.45593999997E+02  0.45594000000E+02  0.51100000000E-03 0. -1.
         11   -1    0    0    0    0 -0.00000000000E+00 -0.00000000000E+00 -0.45593999997E+02  0.45594000000E+02  0.51100000000E-03 0.  1.
    9900012    2    1    2    0    0  0.58382654431E+00  0.53266817580E+00 -0.87666387818E+00  0.90007691407E+02  0.89999952134E+02 0.  0.
         12    1    1    2    0    0 -0.58382654431E+00 -0.53266817580E+00  0.87666387818E+00  0.11803085930E+01  0.00000000000E+00 0. -1.
         11    1    3    3    0    0 -0.45257812586E+01  0.41562714339E+01  0.48585818330E+01  0.78334606606E+01  0.51100000000E-03 0. -1.
        -11    1    3    3    0    0 -0.19928510159E+02 -0.16160134642E+02  0.28234861444E+02  0.38151053325E+02  0.51100000000E-03 0.  1.
         12    1    3    3    0    0  0.25038117961E+02  0.12536531384E+02 -0.33970107155E+02  0.44023177422E+02  0.00000000000E+00 0. -1.
</event>
<event>
 7    1  0.2084210E-015  0.9000779E+02  0.7816164E-02  0.1186339E+00
        -11   -1    0    0    0    0  0.00000000000E+00  0.00000000000E+00  0.45593999997E+02  0.45594000000E+02  0.51100000000E-03 0.  1.
         11   -1    0    0    0    0 -0.00000000000E+00 -0.00000000000E+00 -0.45593999997E+02  0.45594000000E+02  0.51100000000E-03 0. -1.
    9900012    2    1    2    0    0 -0.10067408668E+01 -0.24105384955E+00  0.56679943921E+00  0.90007789961E+02  0.90000051989E+02 0.  0.
         12    1    1    2    0    0  0.10067408668E+01  0.24105384955E+00 -0.56679943921E+00  0.11802100388E+01  0.00000000000E+00 0. -1.
         11    1    3    3    0    0  0.80275713900E+01 -0.30107836998E+01  0.61142638994E+01  0.10530476922E+02  0.51100000000E-03 0. -1.
        -11    1    3    3    0    0  0.14625992530E+02 -0.77585258073E+01  0.30729137776E+02  0.34905505138E+02  0.51100000000E-03 0.  1.
         12    1    3    3    0    0 -0.23660304787E+02  0.10528255658E+02 -0.36276602236E+02  0.44571807902E+02  0.00000000000E+00 0. -1.
</event>
<event>
 7    1  0.2084210E-015  0.9000769E+02  0.7816164E-02  0.1186339E+00
        -11   -1    0    0    0    0  0.00000000000E+00  0.00000000000E+00  0.45593999997E+02  0.45594000000E+02  0.51100000000E-03 0.  1.
         11   -1    0    0    0    0 -0.00000000000E+00 -0.00000000000E+00 -0.45593999997E+02  0.45594000000E+02  0.51100000000E-03 0. -1.
    9900012    2    1    2    0    0 -0.62115243041E+00 -0.10007409170E+01 -0.76346861619E-01  0.90007685818E+02  0.89999946471E+02 0.  0.
         12    1    1    2    0    0  0.62115243041E+00  0.10007409170E+01  0.76346861619E-01  0.11803141819E+01  0.00000000000E+00 0. -1.
         11    1    3    3    0    0  0.14654664518E+02 -0.10219681262E+02  0.29406863026E+01  0.18106593092E+02  0.51100000000E-03 0. -1.
        -11    1    3    3    0    0  0.18484306313E+02 -0.73333068735E+01  0.19683637938E+02  0.27980217517E+02  0.51100000000E-03 0.  1.
         12    1    3    3    0    0 -0.33760123261E+02  0.16552247219E+02 -0.22700671103E+02  0.43920875208E+02  0.00000000000E+00 0. -1.
</event>
<event>
 7    1  0.2084210E-015  0.9000853E+02  0.7816164E-02  0.1186337E+00
        -11   -1    0    0    0    0  0.00000000000E+00  0.00000000000E+00  0.45593999997E+02  0.45594000000E+02  0.51100000000E-03 0.  1.
         11   -1    0    0    0    0 -0.00000000000E+00 -0.00000000000E+00 -0.45593999997E+02  0.45594000000E+02  0.51100000000E-03 0. -1.
    9900012    2    1    2    0    0 -0.89356120108E+00  0.75099560376E+00 -0.16943399274E+00  0.90008528129E+02  0.90000799897E+02 0.  0.
         12    1    1    2    0    0  0.89356120108E+00 -0.75099560376E+00  0.16943399274E+00  0.11794718712E+01  0.00000000000E+00 0. -1.
         11    1    3    3    0    0  0.80060954338E+01  0.39409657320E+01 -0.34938468629E+00  0.89303328558E+01  0.51100000000E-03 0. -1.
        -11    1    3    3    0    0  0.18826640334E+02  0.14272188010E+02  0.29024516552E+02  0.37424060418E+02  0.51100000000E-03 0.  1.
         12    1    3    3    0    0 -0.27726296968E+02 -0.17462158138E+02 -0.28844565858E+02  0.43654134855E+02  0.00000000000E+00 0. -1.
</event>
<event>
 7    1  0.2084210E-015  0.9000778E+02  0.7816164E-02  0.1186339E+00
        -11   -1    0    0    0    0  0.00000000000E+00  0.00000000000E+00  0.45593999997E+02  0.45594000000E+02  0.51100000000E-03 0.  1.
         11   -1    0    0    0    0 -0.00000000000E+00 -0.00000000000E+00 -0.45593999997E+02  0.45594000000E+02  0.51100000000E-03 0. -1.
    9900012    2    1    2    0    0  0.11677819656E+01  0.16326078584E+00  0.50518512272E-01  0.90007779290E+02  0.90000041177E+02 0.  0.
         12    1    1    2    0    0 -0.11677819656E+01 -0.16326078584E+00 -0.50518512272E-01  0.11802207096E+01  0.00000000000E+00 0. -1.
         11    1    3    3    0    0 -0.14632965542E+02 -0.29542127637E+01 -0.32901580568E+01  0.15286470943E+02  0.51100000000E-03 0. -1.
        -11    1    3    3    0    0  0.17146017330E+02  0.25469481625E+02  0.27900016714E+02  0.41486037861E+02  0.51100000000E-03 0.  1.
         12    1    3    3    0    0 -0.13452698221E+01 -0.22352008076E+02 -0.24559340145E+02  0.33235270486E+02  0.00000000000E+00 0. -1.
</event>
<event>
 7    1  0.2084210E-015  0.9000768E+02  0.7816164E-02  0.1186339E+00
        -11   -1    0    0    0    0  0.00000000000E+00  0.00000000000E+00  0.45593999997E+02  0.45594000000E+02  0.51100000000E-03 0.  1.
         11   -1    0    0    0    0 -0.00000000000E+00 -0.00000000000E+00 -0.45593999997E+02  0.45594000000E+02  0.51100000000E-03 0. -1.
    9900012    2    1    2    0    0 -0.81453860077E-01 -0.11372458027E+01  0.30528821829E+00  0.90007676467E+02  0.89999936996E+02 0.  0.
         12    1    1    2    0    0  0.81453860077E-01  0.11372458027E+01 -0.30528821829E+00  0.11803235334E+01  0.00000000000E+00 0. -1.
         11    1    3    3    0    0  0.33049124223E+02  0.17387049029E+02  0.13559166410E+02  0.39729146477E+02  0.51100000000E-03 0. -1.
        -11    1    3    3    0    0  0.38706247354E+01 -0.94470979451E+01 -0.10006149464E+01  0.10258197988E+02  0.51100000000E-03 0.  1.
        -12    1    3    3    0    0 -0.37001202819E+02 -0.90771968862E+01 -0.12253263245E+02  0.40020332001E+02  0.00000000000E+00 0.  1.
</event>
<event>
 7    1  0.2084210E-015  0.9000772E+02  0.7816164E-02  0.1186339E+00
        -11   -1    0    0    0    0  0.00000000000E+00  0.00000000000E+00  0.45593999997E+02  0.45594000000E+02  0.51100000000E-03 0.  1.
         11   -1    0    0    0    0 -0.00000000000E+00 -0.00000000000E+00 -0.45593999997E+02  0.45594000000E+02  0.51100000000E-03 0. -1.
    9900012    2    1    2    0    0  0.76747458452E-01  0.51908076684E+00  0.10572212375E+01  0.90007723863E+02  0.89999985018E+02 0.  0.
         12    1    1    2    0    0 -0.76747458452E-01 -0.51908076684E+00 -0.10572212375E+01  0.11802761371E+01  0.00000000000E+00 0. -1.
         11    1    3    3    0    0  0.26132674133E+02 -0.17734337104E+02 -0.17486622398E+02  0.36099935361E+02  0.51100000000E-03 0. -1.
        -11    1    3    3    0    0  0.86810923448E+01 -0.19370189221E+01 -0.14786619692E+01  0.90166428389E+01  0.51100000000E-03 0.  1.
        -12    1    3    3    0    0 -0.34737019020E+02  0.20190436793E+02  0.20022505605E+02  0.44891145663E+02  0.00000000000E+00 0.  1.
</event>
<event>
 7    1  0.2084210E-015  0.9000774E+02  0.7816164E-02  0.1186339E+00
        -11   -1    0    0    0    0  0.00000000000E+00  0.00000000000E+00  0.45593999997E+02  0.45594000000E+02  0.51100000000E-03 0.  1.
         11   -1    0    0    0    0 -0.00000000000E+00 -0.00000000000E+00 -0.45593999997E+02  0.45594000000E+02  0.51100000000E-03 0. -1.
    9900012    2    1    2    0    0 -0.36150380716E+00  0.13281690288E+00  0.11156547314E+01  0.90007741210E+02  0.90000002594E+02 0.  0.
         12    1    1    2    0    0  0.36150380716E+00 -0.13281690288E+00 -0.11156547314E+01  0.11802587902E+01  0.00000000000E+00 0. -1.
         11    1    3    3    0    0 -0.54783146579E+01  0.12208550361E+01  0.59387933197E+01  0.81713943036E+01  0.51100000000E-03 0. -1.
        -11    1    3    3    0    0 -0.18449141053E+02 -0.33894785886E+02 -0.12809424410E+02  0.40660898537E+02  0.51100000000E-03 0.  1.
         12    1    3    3    0    0  0.23565951903E+02  0.32806747753E+02  0.79862858217E+01  0.41175448370E+02  0.00000000000E+00 0. -1.
</event>
<event>
 7    1  0.2084210E-015  0.9000770E+02  0.7816164E-02  0.1186339E+00
        -11   -1    0    0    0    0  0.00000000000E+00  0.00000000000E+00  0.45593999997E+02  0.45594000000E+02  0.51100000000E-03 0. -1.
         11   -1    0    0    0    0 -0.00000000000E+00 -0.00000000000E+00 -0.45593999997E+02  0.45594000000E+02  0.51100000000E-03 0.  1.
    9900012    2    1    2    0    0 -0.52496252980E+00 -0.25747756805E+00 -0.10252901232E+01  0.90007703346E+02  0.89999964230E+02 0.  0.
         12    1    1    2    0    0  0.52496252980E+00  0.25747756805E+00  0.10252901232E+01  0.11802966544E+01  0.00000000000E+00 0. -1.
         11    1    3    3    0    0  0.65859614278E+01  0.24890484375E+02 -0.29532955978E+02  0.39180436310E+02  0.51100000000E-03 0. -1.
        -11    1    3    3    0    0 -0.94131201286E+01  0.41493312197E+01  0.60741929437E+00  0.10304986103E+02  0.51100000000E-03 0.  1.
        -12    1    3    3    0    0  0.23021961710E+01 -0.29297293163E+02  0.27900246560E+02  0.40522280933E+02  0.00000000000E+00 0.  1.
</event>
<event>
 7    1  0.2084210E-015  0.9000806E+02  0.7816164E-02  0.1186338E+00
        -11   -1    0    0    0    0  0.00000000000E+00  0.00000000000E+00  0.45593999997E+02  0.45594000000E+02  0.51100000000E-03 0.  1.
         11   -1    0    0    0    0 -0.00000000000E+00 -0.00000000000E+00 -0.45593999997E+02  0.45594000000E+02  0.51100000000E-03 0. -1.
    9900012    2    1    2    0    0 -0.49052155434E+00 -0.59603539402E+00  0.89240402638E+00  0.90008061640E+02  0.90000327253E+02 0.  0.
         12    1    1    2    0    0  0.49052155434E+00  0.59603539402E+00 -0.89240402638E+00  0.11799383596E+01  0.00000000000E+00 0. -1.
         11    1    3    3    0    0  0.12151363716E+02 -0.39825463753E+01  0.10521507203E+01  0.12830562622E+02  0.51100000000E-03 0. -1.
        -11    1    3    3    0    0  0.19893901541E+02  0.26329647884E+02  0.12671117009E+02  0.35349326482E+02  0.51100000000E-03 0.  1.
         12    1    3    3    0    0 -0.32535786811E+02 -0.22943136903E+02 -0.12830863703E+02  0.41828172537E+02  0.00000000000E+00 0. -1.
</event>
<event>
 7    1  0.2084210E-015  0.9000768E+02  0.7816164E-02  0.1186339E+00
        -11   -1    0    0    0    0  0.00000000000E+00  0.00000000000E+00  0.45593999997E+02  0.45594000000E+02  0.51100000000E-03 0. -1.
         11   -1    0    0    0    0 -0.00000000000E+00 -0.00000000000E+00 -0.45593999997E+02  0.45594000000E+02  0.51100000000E-03 0.  1.
    9900012    2    1    2    0    0 -0.37301621265E+00  0.63005698716E+00 -0.92576920562E+00  0.90007677364E+02  0.89999937906E+02 0.  0.
         12    1    1    2    0    0  0.37301621265E+00 -0.63005698716E+00  0.92576920562E+00  0.11803226356E+01  0.00000000000E+00 0. -1.
         11    1    3    3    0    0 -0.51295234516E+01 -0.14263433660E+01  0.71194859708E+01  0.88900813825E+01  0.51100000000E-03 0. -1.
        -11    1    3    3    0    0  0.42420314331E+02  0.39686703842E+01 -0.82895017189E+01  0.43404484234E+02  0.51100000000E-03 0.  1.
         12    1    3    3    0    0 -0.37663807092E+02 -0.19122700310E+01  0.24424654253E+00  0.37713111748E+02  0.00000000000E+00 0. -1.
</event>
<event>
 7    1  0.2084210E-015  0.9000774E+02  0.7816164E-02  0.1186339E+00
        -11   -1    0    0    0    0  0.00000000000E+00  0.00000000000E+00  0.45593999997E+02  0.45594000000E+02  0.51100000000E-03 0.  1.
         11   -1    0    0    0    0 -0.00000000000E+00 -0.00000000000E+00 -0.45593999997E+02  0.45594000000E+02  0.51100000000E-03 0. -1.
    9900012    2    1    2    0    0 -0.72187338062E+00 -0.61804431059E+00  0.69994531850E+00  0.90007744351E+02  0.90000005777E+02 0.  0.
         12    1    1    2    0    0  0.72187338062E+00  0.61804431059E+00 -0.69994531850E+00  0.11802556487E+01  0.00000000000E+00 0. -1.
         11    1    3    3    0    0  0.98577115458E+01  0.45752071247E+01 -0.34878880945E+02  0.36532770678E+02  0.51100000000E-03 0. -1.
        -11    1    3    3    0    0 -0.14369310989E+01 -0.78847709476E+01 -0.65069801368E+01  0.10323525301E+02  0.51100000000E-03 0.  1.
        -12    1    3    3    0    0 -0.91426538275E+01  0.26915195123E+01  0.42085806400E+02  0.43151448373E+02  0.00000000000E+00 0.  1.
</event>
<event>
 7    1  0.2084210E-015  0.9000772E+02  0.7816164E-02  0.1186339E+00
        -11   -1    0    0    0    0  0.00000000000E+00  0.00000000000E+00  0.45593999997E+02  0.45594000000E+02  0.51100000000E-03 0.  1.
         11   -1    0    0    0    0 -0.00000000000E+00 -0.00000000000E+00 -0.45593999997E+02  0.45594000000E+02  0.51100000000E-03 0. -1.
    9900012    2    1    2    0    0 -0.91579929119E+00  0.28381347846E-01  0.74402439079E+00  0.90007717772E+02  0.89999978847E+02 0.  0.
         12    1    1    2    0    0  0.91579929119E+00 -0.28381347846E-01 -0.74402439079E+00  0.11802822276E+01  0.00000000000E+00 0. -1.
         11    1    3    3    0    0  0.32288827898E+00  0.81027579756E+01  0.18009725753E+01  0.83067711013E+01  0.51100000000E-03 0. -1.
        -11    1    3    3    0    0 -0.40041651687E+02 -0.13959290798E+02  0.76434341254E+00  0.42412025305E+02  0.51100000000E-03 0.  1.
         12    1    3    3    0    0  0.38802964116E+02  0.58849141704E+01 -0.18212915970E+01  0.39288921366E+02  0.00000000000E+00 0. -1.
</event>
<event>
 7    1  0.2084210E-015  0.9000773E+02  0.7816164E-02  0.1186339E+00
        -11   -1    0    0    0    0  0.00000000000E+00  0.00000000000E+00  0.45593999997E+02  0.45594000000E+02  0.51100000000E-03 0. -1.
         11   -1    0    0    0    0 -0.00000000000E+00 -0.00000000000E+00 -0.45593999997E+02  0.45594000000E+02  0.51100000000E-03 0.  1.
    9900012    2    1    2    0    0 -0.46283317994E-01  0.82723355236E-01 -0.11764540309E+01  0.90007733341E+02  0.89999994621E+02 0.  0.
         12    1    1    2    0    0  0.46283317994E-01 -0.82723355236E-01  0.11764540309E+01  0.11802666588E+01  0.00000000000E+00 0. -1.
         11    1    3    3    0    0 -0.57000690106E+01  0.60437743990E+01 -0.21906022913E+01  0.85916665655E+01  0.51100000000E-03 0. -1.
        -11    1    3    3    0    0  0.27399802590E+02  0.26545398690E+02 -0.12329688790E+02  0.40092749962E+02  0.51100000000E-03 0.  1.
         12    1    3    3    0    0 -0.21746016898E+02 -0.32506449734E+02  0.13343837051E+02  0.41323316813E+02  0.00000000000E+00 0. -1.
</event>
<event>
 7    1  0.2084210E-015  0.9000771E+02  0.7816164E-02  0.1186339E+00
        -11   -1    0    0    0    0  0.00000000000E+00  0.00000000000E+00  0.45593999997E+02  0.45594000000E+02  0.51100000000E-03 0. -1.
         11   -1    0    0    0    0 -0.00000000000E+00 -0.00000000000E+00 -0.45593999997E+02  0.45594000000E+02  0.51100000000E-03 0.  1.
    9900012    2    1    2    0    0 -0.24637646761E+00 -0.68300519950E+00 -0.93053582575E+00  0.90007705804E+02  0.89999966721E+02 0.  0.
         12    1    1    2    0    0  0.24637646761E+00  0.68300519950E+00  0.93053582575E+00  0.11802941961E+01  0.00000000000E+00 0. -1.
         11    1    3    3    0    0 -0.26709759073E+02  0.19896259406E+02 -0.23031300469E+02  0.40493371923E+02  0.51100000000E-03 0. -1.
        -11    1    3    3    0    0 -0.15975187386E+01  0.46190235369E+01  0.77491046133E+01  0.91616629017E+01  0.51100000000E-03 0.  1.
        -12    1    3    3    0    0  0.28060901344E+02 -0.25198288143E+02  0.14351660030E+02  0.40352670980E+02  0.00000000000E+00 0.  1.
</event>
<event>
 7    1  0.2084210E-015  0.9000770E+02  0.7816164E-02  0.1186339E+00
        -11   -1    0    0    0    0  0.00000000000E+00  0.00000000000E+00  0.45593999997E+02  0.45594000000E+02  0.51100000000E-03 0.  1.
         11   -1    0    0    0    0 -0.00000000000E+00 -0.00000000000E+00 -0.45593999997E+02  0.45594000000E+02  0.51100000000E-03 0. -1.
    9900012    2    1    2    0    0  0.69327925324E+00  0.31402182768E+00  0.90214614589E+00  0.90007697708E+02  0.89999958518E+02 0.  0.
         12    1    1    2    0    0 -0.69327925324E+00 -0.31402182768E+00 -0.90214614589E+00  0.11803022917E+01  0.00000000000E+00 0. -1.
         11    1    3    3    0    0 -0.19885157976E+02 -0.46978921395E+01  0.65831880040E+01  0.21466906224E+02  0.51100000000E-03 0. -1.
        -11    1    3    3    0    0 -0.90070256745E+01 -0.10673312322E+01  0.24328024517E+02  0.25963791800E+02  0.51100000000E-03 0.  1.
         12    1    3    3    0    0  0.29585462904E+02  0.60792451995E+01 -0.30009066375E+02  0.42576999684E+02  0.00000000000E+00 0. -1.
</event>
<event>
 7    1  0.2084210E-015  0.9000785E+02  0.7816164E-02  0.1186339E+00
        -11   -1    0    0    0    0  0.00000000000E+00  0.00000000000E+00  0.45593999997E+02  0.45594000000E+02  0.51100000000E-03 0.  1.
         11   -1    0    0    0    0 -0.00000000000E+00 -0.00000000000E+00 -0.45593999997E+02  0.45594000000E+02  0.51100000000E-03 0. -1.
    9900012    2    1    2    0    0  0.43125404683E+00  0.98694833050E+00  0.48240069948E+00  0.90007848529E+02  0.90000111329E+02 0.  0.
         12    1    1    2    0    0 -0.43125404683E+00 -0.98694833050E+00 -0.48240069948E+00  0.11801514711E+01  0.00000000000E+00 0. -1.
         11    1    3    3    0    0  0.42533223299E+01  0.18266422689E+02 -0.28153032321E+02  0.33828186145E+02  0.51100000000E-03 0. -1.
        -11    1    3    3    0    0 -0.41623954285E+01  0.98124150400E+01 -0.59799095912E+01  0.12221634244E+02  0.51100000000E-03 0.  1.
        -12    1    3    3    0    0  0.34032714547E+00 -0.27091889399E+02  0.34615342612E+02  0.43958028140E+02  0.00000000000E+00 0.  1.
</event>
<event>
 7    1  0.2084210E-015  0.9000774E+02  0.7816164E-02  0.1186339E+00
        -11   -1    0    0    0    0  0.00000000000E+00  0.00000000000E+00  0.45593999997E+02  0.45594000000E+02  0.51100000000E-03 0. -1.
         11   -1    0    0    0    0 -0.00000000000E+00 -0.00000000000E+00 -0.45593999997E+02  0.45594000000E+02  0.51100000000E-03 0.  1.
    9900012    2    1    2    0    0  0.10643154863E+01  0.24193825017E+00 -0.44911382533E+00  0.90007743757E+02  0.90000005174E+02 0.  0.
         12    1    1    2    0    0 -0.10643154863E+01 -0.24193825017E+00  0.44911382533E+00  0.11802562431E+01  0.00000000000E+00 0. -1.
         11    1    3    3    0    0  0.78113928344E+01  0.23581005867E+01 -0.28879182938E+01  0.86555513241E+01  0.51100000000E-03 0. -1.
        -11    1    3    3    0    0  0.29415091237E+02 -0.24870988188E+02  0.28371844379E+01  0.38624645781E+02  0.51100000000E-03 0.  1.
         12    1    3    3    0    0 -0.36162168585E+02  0.22754825851E+02 -0.39837996941E+00  0.42727546652E+02  0.00000000000E+00 0. -1.
</event>
<event>
 7    1  0.3486590E-015  0.9000771E+02  0.7816164E-02  0.1186339E+00
        -11   -1    0    0    0    0  0.00000000000E+00  0.00000000000E+00  0.45593999997E+02  0.45594000000E+02  0.51100000000E-03 0.  1.
         11   -1    0    0    0    0 -0.00000000000E+00 -0.00000000000E+00 -0.45593999997E+02  0.45594000000E+02  0.51100000000E-03 0. -1.
    9900012    2    1    2    0    0  0.85928890289E+00  0.84695107939E-01  0.80470187207E+00  0.90007705214E+02  0.89999966122E+02 0.  0.
         12    1    1    2    0    0 -0.85928890289E+00 -0.84695107939E-01 -0.80470187207E+00  0.11802947864E+01  0.00000000000E+00 0. -1.
         11    1    3    3    0    0  0.18089867450E+01 -0.14011862234E+02 -0.38567564083E+02  0.41073856841E+02  0.51100000000E-03 0. -1.
        -11    1    3    3    0    0  0.64791282218E+01 -0.45182095665E+01  0.56732889441E+01  0.97252006615E+01  0.51100000000E-03 0.  1.
        -12    1    3    3    0    0 -0.74288260639E+01  0.18614766908E+02  0.33698977011E+02  0.39208647711E+02  0.00000000000E+00 0.  1.
</event>
<event>
 7    1  0.2084210E-015  0.9000799E+02  0.7816164E-02  0.1186339E+00
        -11   -1    0    0    0    0  0.00000000000E+00  0.00000000000E+00  0.45593999997E+02  0.45594000000E+02  0.51100000000E-03 0. -1.
         11   -1    0    0    0    0 -0.00000000000E+00 -0.00000000000E+00 -0.45593999997E+02  0.45594000000E+02  0.51100000000E-03 0.  1.
    9900012    2    1    2    0    0  0.18653426418E+00 -0.10397733833E+01 -0.52582297600E+00  0.90007994270E+02  0.90000258994E+02 0.  0.
         12    1    1    2    0    0 -0.18653426418E+00  0.10397733833E+01  0.52582297600E+00  0.11800057298E+01  0.00000000000E+00 0. -1.
         11    1    3    3    0    0  0.58627156860E+01 -0.46074282606E+01  0.58883746803E+01  0.95011992415E+01  0.51100000000E-03 0. -1.
        -11    1    3    3    0    0  0.29544093855E+02 -0.14896779320E+02 -0.19786004276E+02  0.38551958203E+02  0.51100000000E-03 0.  1.
         12    1    3    3    0    0 -0.35220275277E+02  0.18464434197E+02  0.13371806619E+02  0.41954836826E+02  0.00000000000E+00 0. -1.
</event>
<event>
 7    1  0.2084210E-015  0.9000770E+02  0.7816164E-02  0.1186339E+00
        -11   -1    0    0    0    0  0.00000000000E+00  0.00000000000E+00  0.45593999997E+02  0.45594000000E+02  0.51100000000E-03 0.  1.
         11   -1    0    0    0    0 -0.00000000000E+00 -0.00000000000E+00 -0.45593999997E+02  0.45594000000E+02  0.51100000000E-03 0. -1.
    9900012    2    1    2    0    0 -0.37886134830E+00 -0.64418596500E+00  0.91356459738E+00  0.90007698449E+02  0.89999959268E+02 0.  0.
         12    1    1    2    0    0  0.37886134830E+00  0.64418596500E+00 -0.91356459738E+00  0.11803015514E+01  0.00000000000E+00 0. -1.
         11    1    3    3    0    0  0.17371378332E+02 -0.16168138153E+02  0.20922173190E+01  0.23823325756E+02  0.51100000000E-03 0. -1.
        -11    1    3    3    0    0 -0.23047703814E+02 -0.13352744263E+02  0.17051090513E+02  0.31626446503E+02  0.51100000000E-03 0.  1.
        -12    1    3    3    0    0  0.52974641330E+01  0.28876696451E+02 -0.18229743235E+02  0.34557926190E+02  0.00000000000E+00 0.  1.
</event>
<event>
 7    1  0.2084210E-015  0.9000774E+02  0.7816164E-02  0.1186339E+00
        -11   -1    0    0    0    0  0.00000000000E+00  0.00000000000E+00  0.45593999997E+02  0.45594000000E+02  0.51100000000E-03 0.  1.
         11   -1    0    0    0    0 -0.00000000000E+00 -0.00000000000E+00 -0.45593999997E+02  0.45594000000E+02  0.51100000000E-03 0. -1.
    9900012    2    1    2    0    0 -0.88513590209E+00 -0.45082347316E+00  0.63742455112E+00  0.90007738407E+02  0.89999999754E+02 0.  0.
         12    1    1    2    0    0  0.88513590209E+00  0.45082347316E+00 -0.63742455112E+00  0.11802615928E+01  0.00000000000E+00 0. -1.
         11    1    3    3    0    0  0.33396111310E+02  0.16891580017E+02  0.74042668953E+01  0.38150345930E+02  0.51100000000E-03 0. -1.
        -11    1    3    3    0    0  0.36045024060E+01 -0.78972358355E+01  0.62529128759E+01  0.10698490133E+02  0.51100000000E-03 0.  1.
        -12    1    3    3    0    0 -0.37885749618E+02 -0.94451676546E+01 -0.13019755220E+02  0.41158902344E+02  0.00000000000E+00 0.  1.
</event>
<event>
 7    1  0.2084210E-015  0.9000781E+02  0.7816164E-02  0.1186339E+00
        -11   -1    0    0    0    0  0.00000000000E+00  0.00000000000E+00  0.45593999997E+02  0.45594000000E+02  0.51100000000E-03 0. -1.
         11   -1    0    0    0    0 -0.00000000000E+00 -0.00000000000E+00 -0.45593999997E+02  0.45594000000E+02  0.51100000000E-03 0.  1.
    9900012    2    1    2    0    0 -0.29367876274E+00  0.88212061341E+00 -0.72695844914E+00  0.90007808245E+02  0.90000070514E+02 0.  0.
         12    1    1    2    0    0  0.29367876274E+00 -0.88212061341E+00  0.72695844914E+00  0.11801917552E+01  0.00000000000E+00 0. -1.
         11    1    3    3    0    0 -0.10228842796E+01  0.68758074879E+01 -0.45535340812E+01  0.83100958929E+01  0.51100000000E-03 0. -1.
        -11    1    3    3    0    0 -0.96347939835E+01 -0.39649943458E+02  0.16856670591E+02  0.44148551675E+02  0.51100000000E-03 0.  1.
         12    1    3    3    0    0  0.10363999500E+02  0.33656256584E+02 -0.13030094959E+02  0.37549160677E+02  0.00000000000E+00 0. -1.
</event>
<event>
 7    1  0.2084210E-015  0.9000762E+02  0.7816164E-02  0.1186339E+00
        -11   -1    0    0    0    0  0.00000000000E+00  0.00000000000E+00  0.45593999997E+02  0.45594000000E+02  0.51100000000E-03 0.  1.
         11   -1    0    0    0    0 -0.00000000000E+00 -0.00000000000E+00 -0.45593999997E+02  0.45594000000E+02  0.51100000000E-03 0. -1.
    9900012    2    1    2    0    0  0.39558990281E+00 -0.99756333116E+00  0.49160080929E+00  0.90007620685E+02  0.89999880478E+02 0.  0.
         12    1    1    2    0    0 -0.39558990281E+00  0.99756333116E+00 -0.49160080929E+00  0.11803793147E+01  0.00000000000E+00 0. -1.
         11    1    3    3    0    0  0.18588080947E+02  0.23727270105E+02 -0.15000860724E+02  0.33667876717E+02  0.51100000000E-03 0. -1.
        -11    1    3    3    0    0  0.63272207565E+01  0.71255384061E+01 -0.54898191813E+01  0.10997505853E+02  0.51100000000E-03 0.  1.
        -12    1    3    3    0    0 -0.24519711801E+02 -0.31850371842E+02  0.20982280715E+02  0.45342238115E+02  0.00000000000E+00 0.  1.
</event>
<event>
 7    1  0.2084210E-015  0.9000771E+02  0.7816164E-02  0.1186339E+00
        -11   -1    0    0    0    0  0.00000000000E+00  0.00000000000E+00  0.45593999997E+02  0.45594000000E+02  0.51100000000E-03 0. -1.
         11   -1    0    0    0    0 -0.00000000000E+00 -0.00000000000E+00 -0.45593999997E+02  0.45594000000E+02  0.51100000000E-03 0.  1.
    9900012    2    1    2    0    0 -0.81029158615E+00 -0.73841892707E+00 -0.43732145869E+00  0.90007709771E+02  0.89999970740E+02 0.  0.
         12    1    1    2    0    0  0.81029158615E+00  0.73841892707E+00  0.43732145869E+00  0.11802902290E+01  0.00000000000E+00 0. -1.
         11    1    3    3    0    0 -0.21463707882E+02 -0.26134336517E+02  0.11259538230E+02  0.35643674090E+02  0.51100000000E-03 0. -1.
        -11    1    3    3    0    0 -0.12454549511E+02  0.69837696337E+01 -0.78273649539E+01  0.16283626261E+02  0.51100000000E-03 0.  1.
        -12    1    3    3    0    0  0.33107965806E+02  0.18412147956E+02 -0.38694947347E+01  0.38080409421E+02  0.00000000000E+00 0.  1.
</event>
<event>
 7    1  0.2084210E-015  0.9000754E+02  0.7816164E-02  0.1186339E+00
        -11   -1    0    0    0    0  0.00000000000E+00  0.00000000000E+00  0.45593999997E+02  0.45594000000E+02  0.51100000000E-03 0.  1.
         11   -1    0    0    0    0 -0.00000000000E+00 -0.00000000000E+00 -0.45593999997E+02  0.45594000000E+02  0.51100000000E-03 0. -1.
    9900012    2    1    2    0    0 -0.90400590471E+00  0.66782914683E+00 -0.36092183110E+00  0.90007539491E+02  0.89999798212E+02 0.  0.
         12    1    1    2    0    0  0.90400590471E+00 -0.66782914683E+00  0.36092183110E+00  0.11804605090E+01  0.00000000000E+00 0. -1.
         11    1    3    3    0    0 -0.49058642083E+00  0.39140376654E+02 -0.77701256944E+01  0.39907200017E+02  0.51100000000E-03 0. -1.
        -11    1    3    3    0    0 -0.71557480907E+01 -0.50695408088E+00 -0.59209567318E+01  0.93015838468E+01  0.51100000000E-03 0.  1.
        -12    1    3    3    0    0  0.67423286068E+01 -0.37965593426E+02  0.13330160595E+02  0.40798755627E+02  0.00000000000E+00 0.  1.
</event>
<event>
 7    1  0.2084210E-015  0.9000774E+02  0.7816164E-02  0.1186339E+00
        -11   -1    0    0    0    0  0.00000000000E+00  0.00000000000E+00  0.45593999997E+02  0.45594000000E+02  0.51100000000E-03 0.  1.
         11   -1    0    0    0    0 -0.00000000000E+00 -0.00000000000E+00 -0.45593999997E+02  0.45594000000E+02  0.51100000000E-03 0. -1.
    9900012    2    1    2    0    0  0.87529124617E+00  0.59087130518E+00  0.52701037047E+00  0.90007744267E+02  0.90000005691E+02 0.  0.
         12    1    1    2    0    0 -0.87529124617E+00 -0.59087130518E+00 -0.52701037047E+00  0.11802557331E+01  0.00000000000E+00 0. -1.
         11    1    3    3    0    0  0.41053709478E+02 -0.11998857175E+02 -0.28782792784E+01  0.42867984875E+02  0.51100000000E-03 0. -1.
        -11    1    3    3    0    0 -0.66552592063E+01  0.21231912124E+01 -0.76133866132E+01  0.10332670130E+02  0.51100000000E-03 0.  1.
        -12    1    3    3    0    0 -0.33523159025E+02  0.10466537268E+02  0.11018676262E+02  0.36807089262E+02  0.00000000000E+00 0.  1.
</event>
<event>
 7    1  0.2084210E-015  0.9000794E+02  0.7816164E-02  0.1186339E+00
        -11   -1    0    0    0    0  0.00000000000E+00  0.00000000000E+00  0.45593999997E+02  0.45594000000E+02  0.51100000000E-03 0. -1.
         11   -1    0    0    0    0 -0.00000000000E+00 -0.00000000000E+00 -0.45593999997E+02  0.45594000000E+02  0.51100000000E-03 0.  1.
    9900012    2    1    2    0    0 -0.29532590520E+00  0.69998325995E+00 -0.90296695252E+00  0.90007939293E+02  0.90000203292E+02 0.  0.
         12    1    1    2    0    0  0.29532590520E+00 -0.69998325995E+00  0.90296695252E+00  0.11800607068E+01  0.00000000000E+00 0. -1.
         11    1    3    3    0    0 -0.51268655616E+01  0.39208588793E+02  0.87035448852E+01  0.40488885875E+02  0.51100000000E-03 0. -1.
        -11    1    3    3    0    0 -0.59110049157E+01  0.66569302998E+00  0.34193145666E+01  0.68611106018E+01  0.51100000000E-03 0.  1.
        -12    1    3    3    0    0  0.10742544572E+02 -0.39174298563E+02 -0.13025826404E+02  0.42657942816E+02  0.00000000000E+00 0.  1.
</event>
<event>
 7    1  0.2523902E-015  0.9000774E+02  0.7816164E-02  0.1186339E+00
        -11   -1    0    0    0    0  0.00000000000E+00  0.00000000000E+00  0.45593999997E+02  0.45594000000E+02  0.51100000000E-03 0.  1.
         11   -1    0    0    0    0 -0.00000000000E+00 -0.00000000000E+00 -0.45593999997E+02  0.45594000000E+02  0.51100000000E-03 0. -1.
    9900012    2    1    2    0    0  0.88405317445E+00  0.74699040281E+00  0.23125692989E+00  0.90007735434E+02  0.89999996742E+02 0.  0.
         12    1    1    2    0    0 -0.88405317445E+00 -0.74699040281E+00 -0.23125692989E+00  0.11802645656E+01  0.00000000000E+00 0. -1.
         11    1    3    3    0    0 -0.54316378678E+01 -0.98370179051E+01 -0.34507561507E+02  0.36291065189E+02  0.51100000000E-03 0. -1.
        -11    1    3    3    0    0  0.13718293026E+01 -0.83915629609E+01 -0.46684432970E+01  0.97002375044E+01  0.51100000000E-03 0.  1.
        -12    1    3    3    0    0  0.49438617397E+01  0.18975571269E+02  0.39407261734E+02  0.44016432741E+02  0.00000000000E+00 0.  1.
</event>
<event>
 7    1  0.2084210E-015  0.9000764E+02  0.7816164E-02  0.1186339E+00
        -11   -1    0    0    0    0  0.00000000000E+00  0.00000000000E+00  0.45593999997E+02  0.45594000000E+02  0.51100000000E-03 0.  1.
         11   -1    0    0    0    0 -0.00000000000E+00 -0.00000000000E+00 -0.45593999997E+02  0.45594000000E+02  0.51100000000E-03 0. -1.
    9900012    2    1    2    0    0 -0.18891207352E+00 -0.24523446433E+00  0.11390471436E+01  0.90007637298E+02  0.89999897310E+02 0.  0.
         12    1    1    2    0    0  0.18891207352E+00  0.24523446433E+00 -0.11390471436E+01  0.11803627024E+01  0.00000000000E+00 0. -1.
         11    1    3    3    0    0  0.13682904036E+01 -0.85498505818E+01  0.48814332216E+01  0.99398467875E+01  0.51100000000E-03 0. -1.
        -11    1    3    3    0    0  0.20038992670E+02 -0.25910260491E+02  0.14332336036E+02  0.35753582792E+02  0.51100000000E-03 0.  1.
         12    1    3    3    0    0 -0.21596195147E+02  0.34214876609E+02 -0.18074722114E+02  0.44314207718E+02  0.00000000000E+00 0. -1.
</event>
<event>
 7    1  0.2084210E-015  0.9000783E+02  0.7816164E-02  0.1186339E+00
        -11   -1    0    0    0    0  0.00000000000E+00  0.00000000000E+00  0.45593999997E+02  0.45594000000E+02  0.51100000000E-03 0.  1.
         11   -1    0    0    0    0 -0.00000000000E+00 -0.00000000000E+00 -0.45593999997E+02  0.45594000000E+02  0.51100000000E-03 0. -1.
    9900012    2    1    2    0    0 -0.93307304229E-01 -0.19867797730E+00  0.11595782179E+01  0.90007830167E+02  0.90000092725E+02 0.  0.
         12    1    1    2    0    0  0.93307304229E-01  0.19867797730E+00 -0.11595782179E+01  0.11801698331E+01  0.00000000000E+00 0. -1.
         11    1    3    3    0    0  0.30766476289E+01 -0.69660114615E+01 -0.69567365135E+01  0.10314419979E+02  0.51100000000E-03 0. -1.
        -11    1    3    3    0    0  0.21097214301E+02 -0.12920964629E+02 -0.24292838337E+02  0.34672550713E+02  0.51100000000E-03 0.  1.
         12    1    3    3    0    0 -0.24267169235E+02  0.19688298113E+02  0.32409153069E+02  0.45020859475E+02  0.00000000000E+00 0. -1.
</event>
<event>
 7    1  0.3156621E-015  0.9000768E+02  0.7816164E-02  0.1186339E+00
        -11   -1    0    0    0    0  0.00000000000E+00  0.00000000000E+00  0.45593999997E+02  0.45594000000E+02  0.51100000000E-03 0. -1.
         11   -1    0    0    0    0 -0.00000000000E+00 -0.00000000000E+00 -0.45593999997E+02  0.45594000000E+02  0.51100000000E-03 0.  1.
    9900012    2    1    2    0    0 -0.59179096938E+00  0.63151169006E+00 -0.80257656214E+00  0.90007681101E+02  0.89999941691E+02 0.  0.
         12    1    1    2    0    0  0.59179096938E+00 -0.63151169006E+00  0.80257656214E+00  0.11803188994E+01  0.00000000000E+00 0. -1.
         11    1    3    3    0    0 -0.18495718086E+02 -0.32963309820E+02 -0.16965546200E+02  0.41430678729E+02  0.51100000000E-03 0. -1.
        -11    1    3    3    0    0  0.64878563433E+01  0.41107097833E+01 -0.61832572501E+01  0.98601665978E+01  0.51100000000E-03 0.  1.
        -12    1    3    3    0    0  0.11416070773E+02  0.29484111727E+02  0.22346226888E+02  0.38716835774E+02  0.00000000000E+00 0.  1.
</event>
<event>
 7    1  0.2084210E-015  0.9000776E+02  0.7816164E-02  0.1186339E+00
        -11   -1    0    0    0    0  0.00000000000E+00  0.00000000000E+00  0.45593999997E+02  0.45594000000E+02  0.51100000000E-03 0.  1.
         11   -1    0    0    0    0 -0.00000000000E+00 -0.00000000000E+00 -0.45593999997E+02  0.45594000000E+02  0.51100000000E-03 0. -1.
    9900012    2    1    2    0    0 -0.60427762527E+00  0.27028158266E+00  0.97712120452E+00  0.90007758740E+02  0.90000020356E+02 0.  0.
         12    1    1    2    0    0  0.60427762527E+00 -0.27028158266E+00 -0.97712120452E+00  0.11802412595E+01  0.00000000000E+00 0. -1.
         11    1    3    3    0    0 -0.89557032429E+00 -0.20647895762E+01  0.96287172797E+01  0.98882556052E+01  0.51100000000E-03 0. -1.
        -11    1    3    3    0    0  0.85120390103E+01 -0.15278700777E+02  0.31207007298E+02  0.35773884473E+02  0.51100000000E-03 0.  1.
         12    1    3    3    0    0 -0.82207463112E+01  0.17613771936E+02 -0.39858603373E+02  0.44345618662E+02  0.00000000000E+00 0. -1.
</event>
<event>
 7    1  0.2084210E-015  0.9000789E+02  0.7816164E-02  0.1186339E+00
        -11   -1    0    0    0    0  0.00000000000E+00  0.00000000000E+00  0.45593999997E+02  0.45594000000E+02  0.51100000000E-03 0.  1.
         11   -1    0    0    0    0 -0.00000000000E+00 -0.00000000000E+00 -0.45593999997E+02  0.45594000000E+02  0.51100000000E-03 0. -1.
    9900012    2    1    2    0    0 -0.76767399968E+00  0.26479535709E+00  0.85628786802E+00  0.90007886080E+02  0.90000149376E+02 0.  0.
         12    1    1    2    0    0  0.76767399968E+00 -0.26479535709E+00 -0.85628786802E+00  0.11801139199E+01  0.00000000000E+00 0. -1.
         11    1    3    3    0    0  0.22216339883E+02 -0.24796117979E+02  0.14959280727E+02  0.36499223344E+02  0.51100000000E-03 0. -1.
        -11    1    3    3    0    0 -0.11450698871E+02 -0.21086024108E+01 -0.20250569208E+02  0.23359157996E+02  0.51100000000E-03 0.  1.
        -12    1    3    3    0    0 -0.11533315012E+02  0.27169515747E+02  0.61475763494E+01  0.30149504740E+02  0.00000000000E+00 0.  1.
</event>
<event>
 7    1  0.2084210E-015  0.9000774E+02  0.7816164E-02  0.1186339E+00
        -11   -1    0    0    0    0  0.00000000000E+00  0.00000000000E+00  0.45593999997E+02  0.45594000000E+02  0.51100000000E-03 0. -1.
         11   -1    0    0    0    0 -0.00000000000E+00 -0.00000000000E+00 -0.45593999997E+02  0.45594000000E+02  0.51100000000E-03 0.  1.
    9900012    2    1    2    0    0 -0.97093999179E+00 -0.46228289946E+00 -0.48640840370E+00  0.90007736012E+02  0.89999997327E+02 0.  0.
         12    1    1    2    0    0  0.97093999179E+00  0.46228289946E+00  0.48640840370E+00  0.11802639883E+01  0.00000000000E+00 0. -1.
         11    1    3    3    0    0  0.15551574868E+02  0.28042374509E+02  0.20064618513E+02  0.37826117503E+02  0.51100000000E-03 0. -1.
        -11    1    3    3    0    0 -0.37069997110E+01  0.76467998343E+01  0.34148854525E+00  0.85048227054E+01  0.51100000000E-03 0.  1.
        -12    1    3    3    0    0 -0.12815515149E+02 -0.36151457243E+02 -0.20892515462E+02  0.43676795803E+02  0.00000000000E+00 0.  1.
</event>
<event>
 7    1  0.2084210E-015  0.9000775E+02  0.7816164E-02  0.1186339E+00
        -11   -1    0    0    0    0  0.00000000000E+00  0.00000000000E+00  0.45593999997E+02  0.45594000000E+02  0.51100000000E-03 0.  1.
         11   -1    0    0    0    0 -0.00000000000E+00 -0.00000000000E+00 -0.45593999997E+02  0.45594000000E+02  0.51100000000E-03 0. -1.
    9900012    2    1    2    0    0 -0.93473189737E+00  0.24129091743E+00  0.67899604809E+00  0.90007753983E+02  0.90000015536E+02 0.  0.
         12    1    1    2    0    0  0.93473189737E+00 -0.24129091743E+00 -0.67899604809E+00  0.11802460168E+01  0.00000000000E+00 0. -1.
         11    1    3    3    0    0  0.85292255436E+01  0.23069508960E+01 -0.13135461186E+01  0.89328111184E+01  0.51100000000E-03 0. -1.
        -11    1    3    3    0    0 -0.11933987485E+02  0.38536961467E+02  0.20999225217E+01  0.40397117859E+02  0.51100000000E-03 0.  1.
         12    1    3    3    0    0  0.24700300435E+01 -0.40602621446E+02 -0.10738035498E+00  0.40677825006E+02  0.00000000000E+00 0. -1.
</event>
<event>
 7    1  0.2084210E-015  0.9000791E+02  0.7816164E-02  0.1186339E+00
        -11   -1    0    0    0    0  0.00000000000E+00  0.00000000000E+00  0.45593999997E+02  0.45594000000E+02  0.51100000000E-03 0.  1.
         11   -1    0    0    0    0 -0.00000000000E+00 -0.00000000000E+00 -0.45593999997E+02  0.45594000000E+02  0.51100000000E-03 0. -1.
    9900012    2    1    2    0    0  0.25481132878E+00  0.81992616415E+00  0.80956467564E+00  0.90007914117E+02  0.90000177783E+02 0.  0.
         12    1    1    2    0    0 -0.25481132878E+00 -0.81992616415E+00 -0.80956467564E+00  0.11800858833E+01  0.00000000000E+00 0. -1.
         11    1    3    3    0    0 -0.88378988653E+01 -0.21950884481E+01 -0.43488775237E+01  0.10091561109E+02  0.51100000000E-03 0. -1.
        -11    1    3    3    0    0  0.38558235191E+02  0.21548404035E+02 -0.26191486119E+01  0.44248515876E+02  0.51100000000E-03 0.  1.
         12    1    3    3    0    0 -0.29465524997E+02 -0.18533389422E+02  0.77775908112E+01  0.35667837132E+02  0.00000000000E+00 0. -1.
</event>
<event>
 7    1  0.2084210E-015  0.9000802E+02  0.7816164E-02  0.1186338E+00
        -11   -1    0    0    0    0  0.00000000000E+00  0.00000000000E+00  0.45593999997E+02  0.45594000000E+02  0.51100000000E-03 0. -1.
         11   -1    0    0    0    0 -0.00000000000E+00 -0.00000000000E+00 -0.45593999997E+02  0.45594000000E+02  0.51100000000E-03 0.  1.
    9900012    2    1    2    0    0 -0.42220136206E+00  0.94035137150E+00 -0.57431546481E+00  0.90008019939E+02  0.90000285001E+02 0.  0.
         12    1    1    2    0    0  0.42220136206E+00 -0.94035137150E+00  0.57431546481E+00  0.11799800613E+01  0.00000000000E+00 0. -1.
         11    1    3    3    0    0  0.98688674840E+01 -0.48019010056E+01  0.23277441645E+01  0.11219233122E+02  0.51100000000E-03 0. -1.
        -11    1    3    3    0    0  0.32408957259E+02 -0.87860347427E+01  0.18570969641E+00  0.33579300253E+02  0.51100000000E-03 0.  1.
         12    1    3    3    0    0 -0.42700026105E+02  0.14528287120E+02 -0.30877693258E+01  0.45209486564E+02  0.00000000000E+00 0. -1.
</event>
<event>
 7    1  0.2084210E-015  0.9000767E+02  0.7816164E-02  0.1186339E+00
        -11   -1    0    0    0    0  0.00000000000E+00  0.00000000000E+00  0.45593999997E+02  0.45594000000E+02  0.51100000000E-03 0.  1.
         11   -1    0    0    0    0 -0.00000000000E+00 -0.00000000000E+00 -0.45593999997E+02  0.45594000000E+02  0.51100000000E-03 0. -1.
    9900012    2    1    2    0    0 -0.42204756992E+00 -0.23135590329E+00  0.10777448708E+01  0.90007667965E+02  0.89999928383E+02 0.  0.
         12    1    1    2    0    0  0.42204756992E+00  0.23135590329E+00 -0.10777448708E+01  0.11803320346E+01  0.00000000000E+00 0. -1.
         11    1    3    3    0    0 -0.73936547653E+01 -0.34692662421E+02 -0.12499705767E+02  0.37609700892E+02  0.51100000000E-03 0. -1.
        -11    1    3    3    0    0 -0.45452265957E+01 -0.65056565198E+01  0.34549868934E+01  0.86556101029E+01  0.51100000000E-03 0.  1.
        -12    1    3    3    0    0  0.11516833791E+02  0.40966963038E+02  0.10122463744E+02  0.43742356971E+02  0.00000000000E+00 0.  1.
</event>
<event>
 7    1  0.2084210E-015  0.9000782E+02  0.7816164E-02  0.1186339E+00
        -11   -1    0    0    0    0  0.00000000000E+00  0.00000000000E+00  0.45593999997E+02  0.45594000000E+02  0.51100000000E-03 0. -1.
         11   -1    0    0    0    0 -0.00000000000E+00 -0.00000000000E+00 -0.45593999997E+02  0.45594000000E+02  0.51100000000E-03 0.  1.
    9900012    2    1    2    0    0 -0.20537923936E+00  0.50679262033E-01 -0.11610701554E+01  0.90007816571E+02  0.90000078950E+02 0.  0.
         12    1    1    2    0    0  0.20537923936E+00 -0.50679262033E-01  0.11610701554E+01  0.11801834287E+01  0.00000000000E+00 0. -1.
         11    1    3    3    0    0  0.27247792228E+02 -0.21968405180E+02  0.25889223136E+02  0.43535099429E+02  0.51100000000E-03 0. -1.
        -11    1    3    3    0    0 -0.37188571475E+01  0.79230873608E+01 -0.15425134449E+01  0.88873257957E+01  0.51100000000E-03 0.  1.
        -12    1    3    3    0    0 -0.23734314320E+02  0.14095997082E+02 -0.25507779847E+02  0.37585391346E+02  0.00000000000E+00 0.  1.
</event>
<event>
 7    1  0.2084210E-015  0.9000776E+02  0.7816164E-02  0.1186339E+00
        -11   -1    0    0    0    0  0.00000000000E+00  0.00000000000E+00  0.45593999997E+02  0.45594000000E+02  0.51100000000E-03 0. -1.
         11   -1    0    0    0    0 -0.00000000000E+00 -0.00000000000E+00 -0.45593999997E+02  0.45594000000E+02  0.51100000000E-03 0.  1.
    9900012    2    1    2    0    0  0.88795822065E+00  0.50541068086E+00 -0.59081887201E+00  0.90007755662E+02  0.90000017237E+02 0.  0.
         12    1    1    2    0    0 -0.88795822065E+00 -0.50541068086E+00  0.59081887201E+00  0.11802443380E+01  0.00000000000E+00 0. -1.
         11    1    3    3    0    0 -0.17555398559E+02  0.32086983851E+02  0.13370695114E+02  0.38942804718E+02  0.51100000000E-03 0. -1.
        -11    1    3    3    0    0 -0.55209663056E+01  0.32436055261E+01 -0.42637936618E+01  0.76929826731E+01  0.51100000000E-03 0.  1.
        -12    1    3    3    0    0  0.23964323086E+02 -0.34825178696E+02 -0.96977203243E+01  0.43371968271E+02  0.00000000000E+00 0.  1.
</event>
<event>
 7    1  0.2084210E-015  0.9000775E+02  0.7816164E-02  0.1186339E+00
        -11   -1    0    0    0    0  0.00000000000E+00  0.00000000000E+00  0.45593999997E+02  0.45594000000E+02  0.51100000000E-03 0. -1.
         11   -1    0    0    0    0 -0.00000000000E+00 -0.00000000000E+00 -0.45593999997E+02  0.45594000000E+02  0.51100000000E-03 0.  1.
    9900012    2    1    2    0    0 -0.42779973908E+00  0.21883214041E+00 -0.10780020025E+01  0.90007750687E+02  0.90000012197E+02 0.  0.
         12    1    1    2    0    0  0.42779973908E+00 -0.21883214041E+00  0.10780020025E+01  0.11802493126E+01  0.00000000000E+00 0. -1.
         11    1    3    3    0    0  0.11584194870E+02 -0.91863226296E+01  0.27248163995E+01  0.15033519844E+02  0.51100000000E-03 0. -1.
        -11    1    3    3    0    0  0.49804130374E+01  0.33506857920E+02  0.17943267556E+02  0.38333730480E+02  0.51100000000E-03 0.  1.
         12    1    3    3    0    0 -0.16992407646E+02 -0.24101703150E+02 -0.21746085958E+02  0.36640500363E+02  0.00000000000E+00 0. -1.
</event>
<event>
 7    1  0.2084210E-015  0.9000762E+02  0.7816164E-02  0.1186339E+00
        -11   -1    0    0    0    0  0.00000000000E+00  0.00000000000E+00  0.45593999997E+02  0.45594000000E+02  0.51100000000E-03 0. -1.
         11   -1    0    0    0    0 -0.00000000000E+00 -0.00000000000E+00 -0.45593999997E+02  0.45594000000E+02  0.51100000000E-03 0.  1.
    9900012    2    1    2    0    0 -0.95232421292E+00  0.56893055255E+00 -0.40335300631E+00  0.90007619965E+02  0.89999879748E+02 0.  0.
         12    1    1    2    0    0  0.95232421292E+00 -0.56893055255E+00  0.40335300631E+00  0.11803800353E+01  0.00000000000E+00 0. -1.
         11    1    3    3    0    0 -0.14991657930E+02  0.62493367694E+01  0.37143515915E+02  0.40539422694E+02  0.51100000000E-03 0. -1.
        -11    1    3    3    0    0 -0.48513600543E+01  0.72287976196E+01 -0.63282843922E+01  0.10762824583E+02  0.51100000000E-03 0.  1.
        -12    1    3    3    0    0  0.18890693771E+02 -0.12909203836E+02 -0.31218584529E+02  0.38705372687E+02  0.00000000000E+00 0.  1.
</event>
<event>
 7    1  0.2084210E-015  0.9000759E+02  0.7816164E-02  0.1186339E+00
        -11   -1    0    0    0    0  0.00000000000E+00  0.00000000000E+00  0.45593999997E+02  0.45594000000E+02  0.51100000000E-03 0.  1.
         11   -1    0    0    0    0 -0.00000000000E+00 -0.00000000000E+00 -0.45593999997E+02  0.45594000000E+02  0.51100000000E-03 0. -1.
    9900012    2    1    2    0    0  0.79800175424E+00  0.61627214049E+00 -0.61381487730E+00  0.90007590387E+02  0.89999849780E+02 0.  0.
         12    1    1    2    0    0 -0.79800175424E+00 -0.61627214049E+00  0.61381487730E+00  0.11804096130E+01  0.00000000000E+00 0. -1.
         11    1    3    3    0    0  0.33327809639E+02 -0.20448051590E+02 -0.88717194716E+01  0.40094552196E+02  0.51100000000E-03 0. -1.
        -11    1    3    3    0    0 -0.12147993230E+01 -0.64423512999E+01  0.47292307473E+01  0.80836409735E+01  0.51100000000E-03 0.  1.
        -12    1    3    3    0    0 -0.31315008562E+02  0.27506675030E+02  0.35286738470E+01  0.41829397217E+02  0.00000000000E+00 0.  1.
</event>
<event>
 7    1  0.2084210E-015  0.9000773E+02  0.7816164E-02  0.1186339E+00
        -11   -1    0    0    0    0  0.00000000000E+00  0.00000000000E+00  0.45593999997E+02  0.45594000000E+02  0.51100000000E-03 0. -1.
         11   -1    0    0    0    0 -0.00000000000E+00 -0.00000000000E+00 -0.45593999997E+02  0.45594000000E+02  0.51100000000E-03 0.  1.
    9900012    2    1    2    0    0  0.24155571839E+00 -0.84698928320E+00 -0.78568062167E+00  0.90007731365E+02  0.89999992619E+02 0.  0.
         12    1    1    2    0    0 -0.24155571839E+00  0.84698928320E+00  0.78568062167E+00  0.11802686348E+01  0.00000000000E+00 0. -1.
         11    1    3    3    0    0  0.67111728071E+01  0.29224625753E+02 -0.15421159148E+02  0.33718403589E+02  0.51100000000E-03 0. -1.
        -11    1    3    3    0    0  0.10749185686E+02  0.26670858295E+01 -0.73181462505E+01  0.13274547244E+02  0.51100000000E-03 0.  1.
        -12    1    3    3    0    0 -0.17218802775E+02 -0.32738700866E+02  0.21953624777E+02  0.43014780532E+02  0.00000000000E+00 0.  1.
</event>
<event>
 7    1  0.2084210E-015  0.9000777E+02  0.7816164E-02  0.1186339E+00
        -11   -1    0    0    0    0  0.00000000000E+00  0.00000000000E+00  0.45593999997E+02  0.45594000000E+02  0.51100000000E-03 0. -1.
         11   -1    0    0    0    0 -0.00000000000E+00 -0.00000000000E+00 -0.45593999997E+02  0.45594000000E+02  0.51100000000E-03 0.  1.
    9900012    2    1    2    0    0  0.10597366026E+01 -0.48576738363E+00  0.18419628651E+00  0.90007771255E+02  0.90000033036E+02 0.  0.
         12    1    1    2    0    0 -0.10597366026E+01  0.48576738363E+00 -0.18419628651E+00  0.11802287448E+01  0.00000000000E+00 0. -1.
         11    1    3    3    0    0  0.23305091783E+02  0.19040584940E+02  0.12242704477E+02  0.32489305795E+02  0.51100000000E-03 0. -1.
        -11    1    3    3    0    0  0.91960402736E+01  0.93344691541E+01  0.23006365286E+00  0.13105434012E+02  0.51100000000E-03 0.  1.
        -12    1    3    3    0    0 -0.31441395454E+02 -0.28860821478E+02 -0.12288571843E+02  0.44413031448E+02  0.00000000000E+00 0.  1.
</event>
<event>
 7    1  0.2084210E-015  0.9000772E+02  0.7816164E-02  0.1186339E+00
        -11   -1    0    0    0    0  0.00000000000E+00  0.00000000000E+00  0.45593999997E+02  0.45594000000E+02  0.51100000000E-03 0. -1.
         11   -1    0    0    0    0 -0.00000000000E+00 -0.00000000000E+00 -0.45593999997E+02  0.45594000000E+02  0.51100000000E-03 0.  1.
    9900012    2    1    2    0    0 -0.76743758621E+00  0.45393075718E+00  0.77333861167E+00  0.90007717750E+02  0.89999978824E+02 0.  0.
         12    1    1    2    0    0  0.76743758621E+00 -0.45393075718E+00 -0.77333861167E+00  0.11802822499E+01  0.00000000000E+00 0. -1.
         11    1    3    3    0    0  0.51562203381E+00 -0.69841550699E+01  0.66133943887E+01  0.96323036561E+01  0.51100000000E-03 0. -1.
        -11    1    3    3    0    0  0.30110908734E+01 -0.29874608254E+02 -0.24204615697E+02  0.38567114331E+02  0.51100000000E-03 0.  1.
         12    1    3    3    0    0 -0.42941504934E+01  0.37312694081E+02  0.18364559920E+02  0.41808299763E+02  0.00000000000E+00 0. -1.
</event>
<event>
 7    1  0.2084210E-015  0.9000811E+02  0.7816164E-02  0.1186338E+00
        -11   -1    0    0    0    0  0.00000000000E+00  0.00000000000E+00  0.45593999997E+02  0.45594000000E+02  0.51100000000E-03 0.  1.
         11   -1    0    0    0    0 -0.00000000000E+00 -0.00000000000E+00 -0.45593999997E+02  0.45594000000E+02  0.51100000000E-03 0. -1.
    9900012    2    1    2    0    0  0.19759006743E-01  0.10308930206E+01  0.57360043270E+00  0.90008106660E+02  0.90000372867E+02 0.  0.
         12    1    1    2    0    0 -0.19759006743E-01 -0.10308930206E+01 -0.57360043270E+00  0.11798933404E+01  0.00000000000E+00 0. -1.
         11    1    3    3    0    0 -0.20036981793E+01 -0.73241895847E+01 -0.35734288942E+01  0.83921364258E+01  0.51100000000E-03 0. -1.
        -11    1    3    3    0    0 -0.25692948684E+02 -0.20825554747E+01 -0.27896017140E+02  0.37982264571E+02  0.51100000000E-03 0.  1.
         12    1    3    3    0    0  0.27716405870E+02  0.10437638080E+02  0.32043046467E+02  0.43633705663E+02  0.00000000000E+00 0. -1.
</event>
<event>
 7    1  0.2084210E-015  0.9000777E+02  0.7816164E-02  0.1186339E+00
        -11   -1    0    0    0    0  0.00000000000E+00  0.00000000000E+00  0.45593999997E+02  0.45594000000E+02  0.51100000000E-03 0.  1.
         11   -1    0    0    0    0 -0.00000000000E+00 -0.00000000000E+00 -0.45593999997E+02  0.45594000000E+02  0.51100000000E-03 0. -1.
    9900012    2    1    2    0    0 -0.14557432352E-01 -0.11541430388E+01  0.24635784346E+00  0.90007766862E+02  0.90000028585E+02 0.  0.
         12    1    1    2    0    0  0.14557432352E-01  0.11541430388E+01 -0.24635784346E+00  0.11802331380E+01  0.00000000000E+00 0. -1.
         11    1    3    3    0    0  0.82175326592E+01 -0.33366033879E+02 -0.13504979763E+02  0.36921599891E+02  0.51100000000E-03 0. -1.
        -11    1    3    3    0    0  0.15511249909E+00 -0.88313913222E+01 -0.47350327433E+00  0.88454360087E+01  0.51100000000E-03 0.  1.
        -12    1    3    3    0    0 -0.83872025906E+01  0.41043282163E+02  0.14224840881E+02  0.44240730962E+02  0.00000000000E+00 0.  1.
</event>
<event>
 7    1  0.2084210E-015  0.9000777E+02  0.7816164E-02  0.1186339E+00
        -11   -1    0    0    0    0  0.00000000000E+00  0.00000000000E+00  0.45593999997E+02  0.45594000000E+02  0.51100000000E-03 0.  1.
         11   -1    0    0    0    0 -0.00000000000E+00 -0.00000000000E+00 -0.45593999997E+02  0.45594000000E+02  0.51100000000E-03 0. -1.
    9900012    2    1    2    0    0  0.58821165455E+00  0.94689666389E+00  0.38772495202E+00  0.90007772530E+02  0.90000034327E+02 0.  0.
         12    1    1    2    0    0 -0.58821165455E+00 -0.94689666389E+00 -0.38772495202E+00  0.11802274700E+01  0.00000000000E+00 0. -1.
         11    1    3    3    0    0 -0.68003463582E+01  0.31310384815E+01 -0.55906526273E+01  0.93436347116E+01  0.51100000000E-03 0. -1.
        -11    1    3    3    0    0  0.59173260967E+01 -0.40852027286E+02 -0.12577198598E+01  0.41297514950E+02  0.51100000000E-03 0.  1.
         12    1    3    3    0    0  0.14712319161E+01  0.38667885468E+02  0.72360974391E+01  0.39366622869E+02  0.00000000000E+00 0. -1.
</event>
<event>
 7    1  0.2084210E-015  0.9000778E+02  0.7816164E-02  0.1186339E+00
        -11   -1    0    0    0    0  0.00000000000E+00  0.00000000000E+00  0.45593999997E+02  0.45594000000E+02  0.51100000000E-03 0.  1.
         11   -1    0    0    0    0 -0.00000000000E+00 -0.00000000000E+00 -0.45593999997E+02  0.45594000000E+02  0.51100000000E-03 0. -1.
    9900012    2    1    2    0    0 -0.21433151607E+00 -0.49226783616E+00  0.10510212843E+01  0.90007783341E+02  0.90000045281E+02 0.  0.
         12    1    1    2    0    0  0.21433151607E+00  0.49226783616E+00 -0.10510212843E+01  0.11802166586E+01  0.00000000000E+00 0. -1.
         11    1    3    3    0    0  0.18248933815E+01  0.76834450012E+01  0.78432418530E+01  0.11130229376E+02  0.51100000000E-03 0. -1.
        -11    1    3    3    0    0  0.26495019614E+02 -0.58461765977E+01  0.24434554741E+02  0.36513166266E+02  0.51100000000E-03 0.  1.
         12    1    3    3    0    0 -0.28534244511E+02 -0.23295362396E+01 -0.31226775309E+02  0.42364387699E+02  0.00000000000E+00 0. -1.
</event>
<event>
 7    1  0.2084210E-015  0.9000776E+02  0.7816164E-02  0.1186339E+00
        -11   -1    0    0    0    0  0.00000000000E+00  0.00000000000E+00  0.45593999997E+02  0.45594000000E+02  0.51100000000E-03 0.  1.
         11   -1    0    0    0    0 -0.00000000000E+00 -0.00000000000E+00 -0.45593999997E+02  0.45594000000E+02  0.51100000000E-03 0. -1.
    9900012    2    1    2    0    0  0.41906872631E+00  0.70237271613E+00  0.85089481311E+00  0.90007759341E+02  0.90000020964E+02 0.  0.
         12    1    1    2    0    0 -0.41906872631E+00 -0.70237271613E+00 -0.85089481311E+00  0.11802406588E+01  0.00000000000E+00 0. -1.
         11    1    3    3    0    0 -0.21956505173E+02 -0.44345019615E+01 -0.18678300655E+01  0.22477582532E+02  0.51100000000E-03 0. -1.
        -11    1    3    3    0    0 -0.45173402588E+01  0.29256269309E+02  0.88314307837E+01  0.30892229231E+02  0.51100000000E-03 0.  1.
         12    1    3    3    0    0  0.26892914158E+02 -0.24119394631E+02 -0.61127059051E+01  0.36637947579E+02  0.00000000000E+00 0. -1.
</event>
<event>
 7    1  0.2084210E-015  0.9000774E+02  0.7816164E-02  0.1186339E+00
        -11   -1    0    0    0    0  0.00000000000E+00  0.00000000000E+00  0.45593999997E+02  0.45594000000E+02  0.51100000000E-03 0. -1.
         11   -1    0    0    0    0 -0.00000000000E+00 -0.00000000000E+00 -0.45593999997E+02  0.45594000000E+02  0.51100000000E-03 0.  1.
    9900012    2    1    2    0    0 -0.74025313020E+00 -0.47025120290E+00 -0.78987602863E+00  0.90007739422E+02  0.90000000783E+02 0.  0.
         12    1    1    2    0    0  0.74025313020E+00  0.47025120290E+00  0.78987602863E+00  0.11802605777E+01  0.00000000000E+00 0. -1.
         11    1    3    3    0    0 -0.12343468641E+02 -0.25524107969E+02  0.28437330563E+02  0.40156233333E+02  0.51100000000E-03 0. -1.
        -11    1    3    3    0    0 -0.46259167889E+01  0.10057940349E+02  0.23436097314E+01  0.11316084881E+02  0.51100000000E-03 0.  1.
        -12    1    3    3    0    0  0.16229132300E+02  0.14995916417E+02 -0.31570816323E+02  0.38535421208E+02  0.00000000000E+00 0.  1.
</event>
<event>
 7    1  0.2084210E-015  0.9000777E+02  0.7816164E-02  0.1186339E+00
        -11   -1    0    0    0    0  0.00000000000E+00  0.00000000000E+00  0.45593999997E+02  0.45594000000E+02  0.51100000000E-03 0. -1.
         11   -1    0    0    0    0 -0.00000000000E+00 -0.00000000000E+00 -0.45593999997E+02  0.45594000000E+02  0.51100000000E-03 0.  1.
    9900012    2    1    2    0    0  0.42509935205E+00  0.10300931920E+01 -0.38877062118E+00  0.90007769497E+02  0.90000031255E+02 0.  0.
         12    1    1    2    0    0 -0.42509935205E+00 -0.10300931920E+01  0.38877062118E+00  0.11802305025E+01  0.00000000000E+00 0. -1.
         11    1    3    3    0    0  0.49614022225E+00 -0.36195106536E+01 -0.89569813813E+01  0.96733927977E+01  0.51100000000E-03 0. -1.
        -11    1    3    3    0    0 -0.18119038391E+02  0.35846459696E+02 -0.75232609799E+01  0.40864014499E+02  0.51100000000E-03 0.  1.
         12    1    3    3    0    0  0.18047997521E+02 -0.31196855851E+02  0.16091471740E+02  0.39470362200E+02  0.00000000000E+00 0. -1.
</event>
<event>
 7    1  0.2084210E-015  0.9000785E+02  0.7816164E-02  0.1186339E+00
        -11   -1    0    0    0    0  0.00000000000E+00  0.00000000000E+00  0.45593999997E+02  0.45594000000E+02  0.51100000000E-03 0. -1.
         11   -1    0    0    0    0 -0.00000000000E+00 -0.00000000000E+00 -0.45593999997E+02  0.45594000000E+02  0.51100000000E-03 0.  1.
    9900012    2    1    2    0    0  0.17368016562E+00  0.43576797120E+00 -0.10829101527E+01  0.90007850466E+02  0.90000113292E+02 0.  0.
         12    1    1    2    0    0 -0.17368016562E+00 -0.43576797120E+00  0.10829101527E+01  0.11801495344E+01  0.00000000000E+00 0. -1.
         11    1    3    3    0    0  0.60679637200E+01 -0.87360588759E+01 -0.50191219511E+01  0.11761398463E+02  0.51100000000E-03 0. -1.
        -11    1    3    3    0    0  0.35575179830E+02  0.33207352743E+01  0.63801415717E+01  0.36294998408E+02  0.51100000000E-03 0.  1.
         12    1    3    3    0    0 -0.41469463384E+02  0.58510915727E+01 -0.24439297734E+01  0.41951453595E+02  0.00000000000E+00 0. -1.
</event>
<event>
 7    1  0.2084210E-015  0.9000776E+02  0.7816164E-02  0.1186339E+00
        -11   -1    0    0    0    0  0.00000000000E+00  0.00000000000E+00  0.45593999997E+02  0.45594000000E+02  0.51100000000E-03 0.  1.
         11   -1    0    0    0    0 -0.00000000000E+00 -0.00000000000E+00 -0.45593999997E+02  0.45594000000E+02  0.51100000000E-03 0. -1.
    9900012    2    1    2    0    0  0.83470681450E+00 -0.77051011867E+00 -0.32024214201E+00  0.90007755814E+02  0.90000017391E+02 0.  0.
         12    1    1    2    0    0 -0.83470681450E+00  0.77051011867E+00  0.32024214201E+00  0.11802441860E+01  0.00000000000E+00 0. -1.
         11    1    3    3    0    0  0.10827596732E+02 -0.12657369818E+02 -0.11164518472E+02  0.20052240141E+02  0.51100000000E-03 0. -1.
        -11    1    3    3    0    0  0.12437650564E+02 -0.23520013477E+02  0.86782378433E+01  0.27985674869E+02  0.51100000000E-03 0.  1.
         12    1    3    3    0    0 -0.22430540481E+02  0.35406873177E+02  0.21660384867E+01  0.41969840805E+02  0.00000000000E+00 0. -1.
</event>
<event>
 7    1  0.2084210E-015  0.9000841E+02  0.7816164E-02  0.1186338E+00
        -11   -1    0    0    0    0  0.00000000000E+00  0.00000000000E+00  0.45593999997E+02  0.45594000000E+02  0.51100000000E-03 0. -1.
         11   -1    0    0    0    0 -0.00000000000E+00 -0.00000000000E+00 -0.45593999997E+02  0.45594000000E+02  0.51100000000E-03 0.  1.
    9900012    2    1    2    0    0  0.11054857309E+01  0.37771382778E+00  0.16328573463E+00  0.90008411653E+02  0.90000681884E+02 0.  0.
         12    1    1    2    0    0 -0.11054857309E+01 -0.37771382778E+00 -0.16328573463E+00  0.11795883468E+01  0.00000000000E+00 0. -1.
         11    1    3    3    0    0 -0.48231823595E+01 -0.68937138697E+01  0.66770782710E+00  0.84399178310E+01  0.51100000000E-03 0. -1.
        -11    1    3    3    0    0 -0.19089100817E+02 -0.28639951100E+02 -0.11769651264E+02  0.36375338626E+02  0.51100000000E-03 0.  1.
         12    1    3    3    0    0  0.25017768908E+02  0.35911378798E+02  0.11265229172E+02  0.45193155196E+02  0.00000000000E+00 0. -1.
</event>
<event>
 7    1  0.2084210E-015  0.9000783E+02  0.7816164E-02  0.1186339E+00
        -11   -1    0    0    0    0  0.00000000000E+00  0.00000000000E+00  0.45593999997E+02  0.45594000000E+02  0.51100000000E-03 0.  1.
         11   -1    0    0    0    0 -0.00000000000E+00 -0.00000000000E+00 -0.45593999997E+02  0.45594000000E+02  0.51100000000E-03 0. -1.
    9900012    2    1    2    0    0  0.57656884109E+00  0.84572772469E+00  0.58746851971E+00  0.90007827862E+02  0.90000090390E+02 0.  0.
         12    1    1    2    0    0 -0.57656884109E+00 -0.84572772469E+00 -0.58746851971E+00  0.11801721376E+01  0.00000000000E+00 0. -1.
         11    1    3    3    0    0 -0.78857216309E+01 -0.69340271940E-01  0.48244317865E+01  0.92447042158E+01  0.51100000000E-03 0. -1.
        -11    1    3    3    0    0 -0.32951340756E+02 -0.13491292521E+02  0.49922308259E+01  0.35954529622E+02  0.51100000000E-03 0.  1.
         12    1    3    3    0    0  0.41413631228E+02  0.14406360518E+02 -0.92291940926E+01  0.44808594024E+02  0.00000000000E+00 0. -1.
</event>
<event>
 7    1  0.2084210E-015  0.9000775E+02  0.7816164E-02  0.1186339E+00
        -11   -1    0    0    0    0  0.00000000000E+00  0.00000000000E+00  0.45593999997E+02  0.45594000000E+02  0.51100000000E-03 0.  1.
         11   -1    0    0    0    0 -0.00000000000E+00 -0.00000000000E+00 -0.45593999997E+02  0.45594000000E+02  0.51100000000E-03 0. -1.
    9900012    2    1    2    0    0  0.13787100169E+00 -0.27571004210E+00  0.11392808942E+01  0.90007751977E+02  0.90000013503E+02 0.  0.
         12    1    1    2    0    0 -0.13787100169E+00  0.27571004210E+00 -0.11392808942E+01  0.11802480232E+01  0.00000000000E+00 0. -1.
         11    1    3    3    0    0  0.29244690026E+01  0.10043023562E+01  0.16210520580E+02  0.16502791277E+02  0.51100000000E-03 0. -1.
        -11    1    3    3    0    0 -0.27250834301E+02  0.15813491975E+02  0.11506070204E+02  0.33541975946E+02  0.51100000000E-03 0.  1.
         12    1    3    3    0    0  0.24464236300E+02 -0.17093504374E+02 -0.26577309890E+02  0.39962984755E+02  0.00000000000E+00 0. -1.
</event>
<event>
 7    1  0.2084210E-015  0.9000773E+02  0.7816164E-02  0.1186339E+00
        -11   -1    0    0    0    0  0.00000000000E+00  0.00000000000E+00  0.45593999997E+02  0.45594000000E+02  0.51100000000E-03 0. -1.
         11   -1    0    0    0    0 -0.00000000000E+00 -0.00000000000E+00 -0.45593999997E+02  0.45594000000E+02  0.51100000000E-03 0.  1.
    9900012    2    1    2    0    0  0.11312616925E+01 -0.31756327443E+00 -0.11151270606E+00  0.90007731160E+02  0.89999992412E+02 0.  0.
         12    1    1    2    0    0 -0.11312616925E+01  0.31756327443E+00  0.11151270606E+00  0.11802688396E+01  0.00000000000E+00 0. -1.
         11    1    3    3    0    0 -0.92351868884E+01  0.45722070453E+01  0.33660211804E+02  0.35202323972E+02  0.51100000000E-03 0. -1.
        -11    1    3    3    0    0  0.12105955358E+02  0.75797495021E+01  0.41292266261E+01  0.14867994835E+02  0.51100000000E-03 0.  1.
        -12    1    3    3    0    0 -0.17395067768E+01 -0.12469519822E+02 -0.37900951136E+02  0.39937412353E+02  0.00000000000E+00 0.  1.
</event>
<event>
 7    1  0.2084210E-015  0.9000771E+02  0.7816164E-02  0.1186339E+00
        -11   -1    0    0    0    0  0.00000000000E+00  0.00000000000E+00  0.45593999997E+02  0.45594000000E+02  0.51100000000E-03 0.  1.
         11   -1    0    0    0    0 -0.00000000000E+00 -0.00000000000E+00 -0.45593999997E+02  0.45594000000E+02  0.51100000000E-03 0. -1.
    9900012    2    1    2    0    0 -0.11795999343E+01  0.37485142711E-01 -0.14791379124E-01  0.90007711931E+02  0.89999972928E+02 0.  0.
         12    1    1    2    0    0  0.11795999343E+01 -0.37485142711E-01  0.14791379124E-01  0.11802880690E+01  0.00000000000E+00 0. -1.
         11    1    3    3    0    0 -0.25810389862E+01  0.21068899666E+01 -0.44487154865E+01  0.55580407807E+01  0.51100000000E-03 0. -1.
        -11    1    3    3    0    0  0.35118152633E+01 -0.41312321415E+02 -0.98838639931E+01  0.42623133564E+02  0.51100000000E-03 0.  1.
         12    1    3    3    0    0 -0.21103762114E+01  0.39242916591E+02  0.14317788100E+02  0.41826537586E+02  0.00000000000E+00 0. -1.
</event>
<event>
 7    1  0.2084210E-015  0.9000768E+02  0.7816164E-02  0.1186339E+00
        -11   -1    0    0    0    0  0.00000000000E+00  0.00000000000E+00  0.45593999997E+02  0.45594000000E+02  0.51100000000E-03 0.  1.
         11   -1    0    0    0    0 -0.00000000000E+00 -0.00000000000E+00 -0.45593999997E+02  0.45594000000E+02  0.51100000000E-03 0. -1.
    9900012    2    1    2    0    0  0.11069082410E+01  0.36829822616E+00 -0.17964272290E+00  0.90007677610E+02  0.89999938154E+02 0.  0.
         12    1    1    2    0    0 -0.11069082410E+01 -0.36829822616E+00  0.17964272290E+00  0.11803223904E+01  0.00000000000E+00 0. -1.
         11    1    3    3    0    0 -0.45162424824E+01  0.78952029531E+01 -0.21662207395E+01  0.93500368119E+01  0.51100000000E-03 0. -1.
        -11    1    3    3    0    0 -0.31388665023E+02  0.11015221110E+02  0.16053242215E+02  0.36936296159E+02  0.51100000000E-03 0.  1.
         12    1    3    3    0    0  0.37011815746E+02 -0.18542125837E+02 -0.14066664199E+02  0.43721344639E+02  0.00000000000E+00 0. -1.
</event>
<event>
 7    1  0.2084210E-015  0.9000763E+02  0.7816164E-02  0.1186339E+00
        -11   -1    0    0    0    0  0.00000000000E+00  0.00000000000E+00  0.45593999997E+02  0.45594000000E+02  0.51100000000E-03 0.  1.
         11   -1    0    0    0    0 -0.00000000000E+00 -0.00000000000E+00 -0.45593999997E+02  0.45594000000E+02  0.51100000000E-03 0. -1.
    9900012    2    1    2    0    0 -0.79843861901E+00 -0.79309202825E+00  0.35606062332E+00  0.90007627872E+02  0.89999887760E+02 0.  0.
         12    1    1    2    0    0  0.79843861901E+00  0.79309202825E+00 -0.35606062332E+00  0.11803721282E+01  0.00000000000E+00 0. -1.
         11    1    3    3    0    0 -0.63528398635E+01 -0.56223260757E+01 -0.22773467823E+01  0.87838165658E+01  0.51100000000E-03 0. -1.
        -11    1    3    3    0    0  0.11591425961E+02 -0.36722354013E+02 -0.39987097827E+01  0.38715399007E+02  0.51100000000E-03 0.  1.
         12    1    3    3    0    0 -0.60370247163E+01  0.41551588061E+02  0.66321171882E+01  0.42508412299E+02  0.00000000000E+00 0. -1.
</event>
<event>
 7    1  0.2084210E-015  0.9000796E+02  0.7816164E-02  0.1186339E+00
        -11   -1    0    0    0    0  0.00000000000E+00  0.00000000000E+00  0.45593999997E+02  0.45594000000E+02  0.51100000000E-03 0. -1.
         11   -1    0    0    0    0 -0.00000000000E+00 -0.00000000000E+00 -0.45593999997E+02  0.45594000000E+02  0.51100000000E-03 0.  1.
    9900012    2    1    2    0    0  0.21155109299E+00 -0.10773576416E+01 -0.43249380853E+00  0.90007955828E+02  0.90000220045E+02 0.  0.
         12    1    1    2    0    0 -0.21155109299E+00  0.10773576416E+01  0.43249380853E+00  0.11800441717E+01  0.00000000000E+00 0. -1.
         11    1    3    3    0    0 -0.11276927848E+02 -0.20792743979E+01 -0.92576787064E+01  0.14737608321E+02  0.51100000000E-03 0. -1.
        -11    1    3    3    0    0 -0.17483912510E+02 -0.98499835968E+01 -0.23245444427E+02  0.30709282967E+02  0.51100000000E-03 0.  1.
         12    1    3    3    0    0  0.28972391452E+02  0.10851900353E+02  0.32070629324E+02  0.44561064540E+02  0.00000000000E+00 0. -1.
</event>
<event>
 7    1  0.2084210E-015  0.9000753E+02  0.7816164E-02  0.1186339E+00
        -11   -1    0    0    0    0  0.00000000000E+00  0.00000000000E+00  0.45593999997E+02  0.45594000000E+02  0.51100000000E-03 0. -1.
         11   -1    0    0    0    0 -0.00000000000E+00 -0.00000000000E+00 -0.45593999997E+02  0.45594000000E+02  0.51100000000E-03 0.  1.
    9900012    2    1    2    0    0 -0.25182630343E+00  0.62098726441E+00 -0.97183464811E+00  0.90007532189E+02  0.89999790814E+02 0.  0.
         12    1    1    2    0    0  0.25182630343E+00 -0.62098726441E+00  0.97183464811E+00  0.11804678110E+01  0.00000000000E+00 0. -1.
         11    1    3    3    0    0  0.56368494286E+01  0.17645593179E+01  0.71127894775E+01  0.92455132621E+01  0.51100000000E-03 0. -1.
        -11    1    3    3    0    0  0.35504083068E+02  0.35780779428E+01 -0.14673390375E+02  0.38583039559E+02  0.51100000000E-03 0.  1.
         12    1    3    3    0    0 -0.41392758800E+02 -0.47216499963E+01  0.65887662490E+01  0.42178979368E+02  0.00000000000E+00 0. -1.
</event>
<event>
 7    1  0.2084210E-015  0.9000773E+02  0.7816164E-02  0.1186339E+00
        -11   -1    0    0    0    0  0.00000000000E+00  0.00000000000E+00  0.45593999997E+02  0.45594000000E+02  0.51100000000E-03 0.  1.
         11   -1    0    0    0    0 -0.00000000000E+00 -0.00000000000E+00 -0.45593999997E+02  0.45594000000E+02  0.51100000000E-03 0. -1.
    9900012    2    1    2    0    0 -0.28226514264E+00 -0.10809174746E+01  0.38076980417E+00  0.90007728065E+02  0.89999989275E+02 0.  0.
         12    1    1    2    0    0  0.28226514264E+00  0.10809174746E+01 -0.38076980417E+00  0.11802719354E+01  0.00000000000E+00 0. -1.
         11    1    3    3    0    0 -0.33729306797E+02  0.33395669309E+01 -0.22226146636E+02  0.40531721390E+02  0.51100000000E-03 0. -1.
        -11    1    3    3    0    0  0.49935282279E+01 -0.42360691455E+01 -0.61769977075E+01  0.90019390638E+01  0.51100000000E-03 0.  1.
        -12    1    3    3    0    0  0.28453513427E+02 -0.18441526000E+00  0.28783914147E+02  0.40474067611E+02  0.00000000000E+00 0.  1.
</event>
<event>
 7    1  0.2084210E-015  0.9000787E+02  0.7816164E-02  0.1186339E+00
        -11   -1    0    0    0    0  0.00000000000E+00  0.00000000000E+00  0.45593999997E+02  0.45594000000E+02  0.51100000000E-03 0. -1.
         11   -1    0    0    0    0 -0.00000000000E+00 -0.00000000000E+00 -0.45593999997E+02  0.45594000000E+02  0.51100000000E-03 0.  1.
    9900012    2    1    2    0    0 -0.83612513013E+00 -0.10145485542E+00 -0.82662302860E+00  0.90007871214E+02  0.90000134314E+02 0.  0.
         12    1    1    2    0    0  0.83612513013E+00  0.10145485542E+00  0.82662302860E+00  0.11801287863E+01  0.00000000000E+00 0. -1.
         11    1    3    3    0    0 -0.43535755589E+01 -0.41883236533E+01  0.88924418098E+01  0.10750404493E+02  0.51100000000E-03 0. -1.
        -11    1    3    3    0    0  0.44099264787E+01  0.40699242212E+02 -0.11712443586E+02  0.42580008257E+02  0.51100000000E-03 0.  1.
         12    1    3    3    0    0 -0.89247604992E+00 -0.36612373414E+02  0.19933787477E+01  0.36677458463E+02  0.00000000000E+00 0. -1.
</event>
<event>
 7    1  0.2084210E-015  0.9000774E+02  0.7816164E-02  0.1186339E+00
        -11   -1    0    0    0    0  0.00000000000E+00  0.00000000000E+00  0.45593999997E+02  0.45594000000E+02  0.51100000000E-03 0.  1.
         11   -1    0    0    0    0 -0.00000000000E+00 -0.00000000000E+00 -0.45593999997E+02  0.45594000000E+02  0.51100000000E-03 0. -1.
    9900012    2    1    2    0    0  0.94673171634E+00 -0.64741232279E+00  0.27850621194E+00  0.90007741821E+02  0.90000003213E+02 0.  0.
         12    1    1    2    0    0 -0.94673171634E+00  0.64741232279E+00 -0.27850621194E+00  0.11802581788E+01  0.00000000000E+00 0. -1.
         11    1    3    3    0    0 -0.53849841525E+01 -0.41067973906E+01  0.37569799642E+01  0.77445941044E+01  0.51100000000E-03 0. -1.
        -11    1    3    3    0    0 -0.19075328830E+02 -0.31713574283E+02  0.69084324789E+01  0.37647648046E+02  0.51100000000E-03 0.  1.
         12    1    3    3    0    0  0.25407044699E+02  0.35172959351E+02 -0.10386906231E+02  0.44615499671E+02  0.00000000000E+00 0. -1.
</event>
<event>
 7    1  0.2084210E-015  0.9000774E+02  0.7816164E-02  0.1186339E+00
        -11   -1    0    0    0    0  0.00000000000E+00  0.00000000000E+00  0.45593999997E+02  0.45594000000E+02  0.51100000000E-03 0. -1.
         11   -1    0    0    0    0 -0.00000000000E+00 -0.00000000000E+00 -0.45593999997E+02  0.45594000000E+02  0.51100000000E-03 0.  1.
    9900012    2    1    2    0    0  0.36039399122E+00  0.10799804196E+01  0.31109074861E+00  0.90007737745E+02  0.89999999084E+02 0.  0.
         12    1    1    2    0    0 -0.36039399122E+00 -0.10799804196E+01 -0.31109074861E+00  0.11802622545E+01  0.00000000000E+00 0. -1.
         11    1    3    3    0    0 -0.10350719007E+02  0.12076212634E+01 -0.19109849374E+01  0.10594696634E+02  0.51100000000E-03 0. -1.
        -11    1    3    3    0    0  0.23963294412E+02  0.34599868386E+02  0.33931479624E+01  0.42224445819E+02  0.51100000000E-03 0.  1.
         12    1    3    3    0    0 -0.13252181414E+02 -0.34727509230E+02 -0.11710722764E+01  0.37188595292E+02  0.00000000000E+00 0. -1.
</event>
<event>
 7    1  0.2084210E-015  0.9000777E+02  0.7816164E-02  0.1186339E+00
        -11   -1    0    0    0    0  0.00000000000E+00  0.00000000000E+00  0.45593999997E+02  0.45594000000E+02  0.51100000000E-03 0. -1.
         11   -1    0    0    0    0 -0.00000000000E+00 -0.00000000000E+00 -0.45593999997E+02  0.45594000000E+02  0.51100000000E-03 0.  1.
    9900012    2    1    2    0    0  0.84544428684E+00  0.12515338397E+00 -0.81394301725E+00  0.90007770087E+02  0.90000031852E+02 0.  0.
         12    1    1    2    0    0 -0.84544428684E+00 -0.12515338397E+00  0.81394301725E+00  0.11802299128E+01  0.00000000000E+00 0. -1.
         11    1    3    3    0    0 -0.82467689072E+01  0.18638238128E+01 -0.30056282781E+01  0.89731175307E+01  0.51100000000E-03 0. -1.
        -11    1    3    3    0    0 -0.33295060927E+02  0.10656680892E+02 -0.76562138121E+01  0.35787477419E+02  0.51100000000E-03 0.  1.
         12    1    3    3    0    0  0.42387274121E+02 -0.12395351321E+02  0.98478990730E+01  0.45247175138E+02  0.00000000000E+00 0. -1.
</event>
<event>
 7    1  0.2084210E-015  0.9000770E+02  0.7816164E-02  0.1186339E+00
        -11   -1    0    0    0    0  0.00000000000E+00  0.00000000000E+00  0.45593999997E+02  0.45594000000E+02  0.51100000000E-03 0.  1.
         11   -1    0    0    0    0 -0.00000000000E+00 -0.00000000000E+00 -0.45593999997E+02  0.45594000000E+02  0.51100000000E-03 0. -1.
    9900012    2    1    2    0    0 -0.44623201061E+00 -0.88042980580E+00  0.64717047698E+00  0.90007699497E+02  0.89999960331E+02 0.  0.
         12    1    1    2    0    0  0.44623201061E+00  0.88042980580E+00 -0.64717047698E+00  0.11803005026E+01  0.00000000000E+00 0. -1.
         11    1    3    3    0    0  0.22411480781E+00 -0.29913199645E+01  0.93501325696E+01  0.98195316542E+01  0.51100000000E-03 0. -1.
        -11    1    3    3    0    0  0.16323881686E+02 -0.34810519624E+02 -0.92289091571E+01  0.39540032300E+02  0.51100000000E-03 0.  1.
         12    1    3    3    0    0 -0.16994228504E+02  0.36921409783E+02  0.52594706452E+00  0.40648135543E+02  0.00000000000E+00 0. -1.
</event>
<event>
 7    1  0.2084210E-015  0.9000775E+02  0.7816164E-02  0.1186339E+00
        -11   -1    0    0    0    0  0.00000000000E+00  0.00000000000E+00  0.45593999997E+02  0.45594000000E+02  0.51100000000E-03 0.  1.
         11   -1    0    0    0    0 -0.00000000000E+00 -0.00000000000E+00 -0.45593999997E+02  0.45594000000E+02  0.51100000000E-03 0. -1.
    9900012    2    1    2    0    0  0.87429394982E+00 -0.69730588450E+00  0.37731562670E+00  0.90007748972E+02  0.90000010458E+02 0.  0.
         12    1    1    2    0    0 -0.87429394982E+00  0.69730588450E+00 -0.37731562670E+00  0.11802510281E+01  0.00000000000E+00 0. -1.
         11    1    3    3    0    0  0.18841682710E+02 -0.28068481712E+02  0.87502229298E+01  0.34920124206E+02  0.51100000000E-03 0. -1.
        -11    1    3    3    0    0  0.39797770304E+01 -0.10178565868E+02 -0.10092980847E+01  0.10975450388E+02  0.51100000000E-03 0.  1.
        -12    1    3    3    0    0 -0.21947165791E+02  0.37549741695E+02 -0.73636092184E+01  0.44112174378E+02  0.00000000000E+00 0.  1.
</event>
<event>
 7    1  0.2084210E-015  0.9000768E+02  0.7816164E-02  0.1186339E+00
        -11   -1    0    0    0    0  0.00000000000E+00  0.00000000000E+00  0.45593999997E+02  0.45594000000E+02  0.51100000000E-03 0.  1.
         11   -1    0    0    0    0 -0.00000000000E+00 -0.00000000000E+00 -0.45593999997E+02  0.45594000000E+02  0.51100000000E-03 0. -1.
    9900012    2    1    2    0    0  0.12919832402E+00 -0.82923790998E+00  0.82995469025E+00  0.90007681185E+02  0.89999941776E+02 0.  0.
         12    1    1    2    0    0 -0.12919832402E+00  0.82923790998E+00 -0.82995469025E+00  0.11803188155E+01  0.00000000000E+00 0. -1.
         11    1    3    3    0    0 -0.63277480088E+01 -0.28968019731E+02  0.21763709702E+02  0.36781049771E+02  0.51100000000E-03 0. -1.
        -11    1    3    3    0    0 -0.19226100611E+00 -0.40452401861E+01  0.83043679162E+01  0.92392347739E+01  0.51100000000E-03 0.  1.
        -12    1    3    3    0    0  0.66492073390E+01  0.32184022007E+02 -0.29238122928E+02  0.43987396640E+02  0.00000000000E+00 0.  1.
</event>
<event>
 7    1  0.2084210E-015  0.9000780E+02  0.7816164E-02  0.1186339E+00
        -11   -1    0    0    0    0  0.00000000000E+00  0.00000000000E+00  0.45593999997E+02  0.45594000000E+02  0.51100000000E-03 0.  1.
         11   -1    0    0    0    0 -0.00000000000E+00 -0.00000000000E+00 -0.45593999997E+02  0.45594000000E+02  0.51100000000E-03 0. -1.
    9900012    2    1    2    0    0  0.84168710453E+00 -0.51753552133E+00  0.64544695429E+00  0.90007795794E+02  0.90000057898E+02 0.  0.
         12    1    1    2    0    0 -0.84168710453E+00  0.51753552133E+00 -0.64544695429E+00  0.11802042063E+01  0.00000000000E+00 0. -1.
         11    1    3    3    0    0  0.13471814717E+02  0.12545625307E+02 -0.32709376862E+02  0.37533795985E+02  0.51100000000E-03 0. -1.
        -11    1    3    3    0    0  0.33400482169E+01 -0.12210639330E+02 -0.27776345930E+01  0.12960358372E+02  0.51100000000E-03 0.  1.
        -12    1    3    3    0    0 -0.15970175829E+02 -0.85252149890E+00  0.36132458409E+02  0.39513641437E+02  0.00000000000E+00 0.  1.
</event>
<event>
 7    1  0.2084210E-015  0.9000772E+02  0.7816164E-02  0.1186339E+00
        -11   -1    0    0    0    0  0.00000000000E+00  0.00000000000E+00  0.45593999997E+02  0.45594000000E+02  0.51100000000E-03 0.  1.
         11   -1    0    0    0    0 -0.00000000000E+00 -0.00000000000E+00 -0.45593999997E+02  0.45594000000E+02  0.51100000000E-03 0. -1.
    9900012    2    1    2    0    0 -0.11056529303E+00 -0.68500184963E-01  0.11730956397E+01  0.90007715992E+02  0.89999977043E+02 0.  0.
         12    1    1    2    0    0  0.11056529303E+00  0.68500184963E-01 -0.11730956397E+01  0.11802840079E+01  0.00000000000E+00 0. -1.
         11    1    3    3    0    0 -0.28961780435E+02  0.29766547428E+02 -0.92537378212E+01  0.42549544482E+02  0.51100000000E-03 0. -1.
        -11    1    3    3    0    0  0.90088349111E+00 -0.84085407794E+01 -0.40552243164E+01  0.93786989301E+01  0.51100000000E-03 0.  1.
        -12    1    3    3    0    0  0.27950331651E+02 -0.21426506834E+02  0.14482057777E+02  0.38079472580E+02  0.00000000000E+00 0.  1.
</event>
<event>
 7    1  0.2084210E-015  0.9000776E+02  0.7816164E-02  0.1186339E+00
        -11   -1    0    0    0    0  0.00000000000E+00  0.00000000000E+00  0.45593999997E+02  0.45594000000E+02  0.51100000000E-03 0.  1.
         11   -1    0    0    0    0 -0.00000000000E+00 -0.00000000000E+00 -0.45593999997E+02  0.45594000000E+02  0.51100000000E-03 0. -1.
    9900012    2    1    2    0    0 -0.26519847728E+00 -0.73053062025E+00  0.88822940188E+00  0.90007764138E+02  0.90000025825E+02 0.  0.
         12    1    1    2    0    0  0.26519847728E+00  0.73053062025E+00 -0.88822940188E+00  0.11802358620E+01  0.00000000000E+00 0. -1.
         11    1    3    3    0    0 -0.11883537863E+02 -0.12541159892E+02 -0.31549416908E+02  0.35970333207E+02  0.51100000000E-03 0. -1.
        -11    1    3    3    0    0  0.35890637411E+01 -0.71822757834E+01 -0.62651268507E+01  0.10184217136E+02  0.51100000000E-03 0.  1.
        -12    1    3    3    0    0  0.80292756450E+01  0.18992905055E+02  0.38702773160E+02  0.43853213794E+02  0.00000000000E+00 0.  1.
</event>
<event>
 7    1  0.2084210E-015  0.9000777E+02  0.7816164E-02  0.1186339E+00
        -11   -1    0    0    0    0  0.00000000000E+00  0.00000000000E+00  0.45593999997E+02  0.45594000000E+02  0.51100000000E-03 0.  1.
         11   -1    0    0    0    0 -0.00000000000E+00 -0.00000000000E+00 -0.45593999997E+02  0.45594000000E+02  0.51100000000E-03 0. -1.
    9900012    2    1    2    0    0 -0.36403258393E+00  0.25106395475E+00  0.10942556166E+01  0.90007767741E+02  0.90000029475E+02 0.  0.
         12    1    1    2    0    0  0.36403258393E+00 -0.25106395475E+00 -0.10942556166E+01  0.11802322593E+01  0.00000000000E+00 0. -1.
         11    1    3    3    0    0  0.33737365629E+02 -0.12104791601E+02  0.11924229688E+01  0.35863040754E+02  0.51100000000E-03 0. -1.
        -11    1    3    3    0    0  0.81859397669E+01  0.80866018173E+01  0.15495172980E+01  0.11610501408E+02  0.51100000000E-03 0.  1.
        -12    1    3    3    0    0 -0.42287337980E+02  0.42692537388E+01 -0.16476846502E+01  0.42534225579E+02  0.00000000000E+00 0.  1.
</event>
<event>
 7    1  0.2084210E-015  0.9000768E+02  0.7816164E-02  0.1186339E+00
        -11   -1    0    0    0    0  0.00000000000E+00  0.00000000000E+00  0.45593999997E+02  0.45594000000E+02  0.51100000000E-03 0. -1.
         11   -1    0    0    0    0 -0.00000000000E+00 -0.00000000000E+00 -0.45593999997E+02  0.45594000000E+02  0.51100000000E-03 0.  1.
    9900012    2    1    2    0    0  0.84510113018E+00 -0.81949712491E+00 -0.85950338652E-01  0.90007678468E+02  0.89999939024E+02 0.  0.
         12    1    1    2    0    0 -0.84510113018E+00  0.81949712491E+00  0.85950338652E-01  0.11803215319E+01  0.00000000000E+00 0. -1.
         11    1    3    3    0    0  0.30857561020E+01 -0.13584689792E+02 -0.14594288230E+02  0.20175701640E+02  0.51100000000E-03 0. -1.
        -11    1    3    3    0    0  0.20349842841E+02  0.20537882825E+02 -0.14424339098E+02  0.32310714836E+02  0.51100000000E-03 0.  1.
         12    1    3    3    0    0 -0.22590497813E+02 -0.77726901571E+01  0.28932676989E+02  0.37521261992E+02  0.00000000000E+00 0. -1.
</event>
<event>
 7    1  0.2084210E-015  0.9000772E+02  0.7816164E-02  0.1186339E+00
        -11   -1    0    0    0    0  0.00000000000E+00  0.00000000000E+00  0.45593999997E+02  0.45594000000E+02  0.51100000000E-03 0.  1.
         11   -1    0    0    0    0 -0.00000000000E+00 -0.00000000000E+00 -0.45593999997E+02  0.45594000000E+02  0.51100000000E-03 0. -1.
    9900012    2    1    2    0    0  0.11793266057E+00  0.86698225247E-01  0.11711653056E+01  0.90007723394E+02  0.89999984542E+02 0.  0.
         12    1    1    2    0    0 -0.11793266057E+00 -0.86698225247E-01 -0.11711653056E+01  0.11802766065E+01  0.00000000000E+00 0. -1.
         11    1    3    3    0    0  0.28147319185E+02  0.12486975055E+02  0.18679432088E+02  0.36015514806E+02  0.51100000000E-03 0. -1.
        -11    1    3    3    0    0  0.92624535207E+00  0.10193601746E+02  0.44937989806E+01  0.11178625879E+02  0.51100000000E-03 0.  1.
        -12    1    3    3    0    0 -0.28955631877E+02 -0.22593878576E+02 -0.22002065763E+02  0.42813582708E+02  0.00000000000E+00 0.  1.
</event>
<event>
 7    1  0.2084210E-015  0.9000776E+02  0.7816164E-02  0.1186339E+00
        -11   -1    0    0    0    0  0.00000000000E+00  0.00000000000E+00  0.45593999997E+02  0.45594000000E+02  0.51100000000E-03 0. -1.
         11   -1    0    0    0    0 -0.00000000000E+00 -0.00000000000E+00 -0.45593999997E+02  0.45594000000E+02  0.51100000000E-03 0.  1.
    9900012    2    1    2    0    0  0.91243582673E+00 -0.31285136035E+00 -0.68011786060E+00  0.90007756205E+02  0.90000017787E+02 0.  0.
         12    1    1    2    0    0 -0.91243582673E+00  0.31285136035E+00  0.68011786060E+00  0.11802437951E+01  0.00000000000E+00 0. -1.
         11    1    3    3    0    0  0.28079628359E+01  0.92875832460E+01  0.41965243853E+00  0.97118466972E+01  0.51100000000E-03 0. -1.
        -11    1    3    3    0    0 -0.28970165074E+02  0.23644866404E+02  0.35019861254E+00  0.37396160378E+02  0.51100000000E-03 0.  1.
         12    1    3    3    0    0  0.27074638065E+02 -0.33245301010E+02 -0.14499689117E+01  0.42899749130E+02  0.00000000000E+00 0. -1.
</event>
<event>
 7    1  0.2084210E-015  0.9000768E+02  0.7816164E-02  0.1186339E+00
        -11   -1    0    0    0    0  0.00000000000E+00  0.00000000000E+00  0.45593999997E+02  0.45594000000E+02  0.51100000000E-03 0. -1.
         11   -1    0    0    0    0 -0.00000000000E+00 -0.00000000000E+00 -0.45593999997E+02  0.45594000000E+02  0.51100000000E-03 0.  1.
    9900012    2    1    2    0    0  0.11394936734E+01 -0.12338767337E+00  0.28191633000E+00  0.90007683446E+02  0.89999944068E+02 0.  0.
         12    1    1    2    0    0 -0.11394936734E+01  0.12338767337E+00 -0.28191633000E+00  0.11803165536E+01  0.00000000000E+00 0. -1.
         11    1    3    3    0    0 -0.37396847797E+02  0.62254504466E+00  0.25597651727E+01  0.37489521009E+02  0.51100000000E-03 0. -1.
        -11    1    3    3    0    0 -0.25302688105E+01  0.50095830083E+01  0.80218662490E+01  0.97902257659E+01  0.51100000000E-03 0.  1.
        -12    1    3    3    0    0  0.41066610281E+02 -0.57555157263E+01 -0.10299715092E+02  0.42727936671E+02  0.00000000000E+00 0.  1.
</event>
<event>
 7    1  0.2084210E-015  0.9000771E+02  0.7816164E-02  0.1186339E+00
        -11   -1    0    0    0    0  0.00000000000E+00  0.00000000000E+00  0.45593999997E+02  0.45594000000E+02  0.51100000000E-03 0.  1.
         11   -1    0    0    0    0 -0.00000000000E+00 -0.00000000000E+00 -0.45593999997E+02  0.45594000000E+02  0.51100000000E-03 0. -1.
    9900012    2    1    2    0    0  0.55293488608E+00 -0.98361200624E+00  0.34621407666E+00  0.90007706073E+02  0.89999966993E+02 0.  0.
         12    1    1    2    0    0 -0.55293488608E+00  0.98361200624E+00 -0.34621407666E+00  0.11802939269E+01  0.00000000000E+00 0. -1.
         11    1    3    3    0    0  0.16378892214E+02  0.33446839449E+02 -0.58059999236E+01  0.37691760567E+02  0.51100000000E-03 0. -1.
        -11    1    3    3    0    0  0.58675074802E+01  0.18467253829E+01  0.78985155334E+01  0.10011223030E+02  0.51100000000E-03 0.  1.
        -12    1    3    3    0    0 -0.21693464808E+02 -0.36277176838E+02 -0.17463015332E+01  0.42304722476E+02  0.00000000000E+00 0.  1.
</event>
<event>
 7    1  0.2084210E-015  0.9000772E+02  0.7816164E-02  0.1186339E+00
        -11   -1    0    0    0    0  0.00000000000E+00  0.00000000000E+00  0.45593999997E+02  0.45594000000E+02  0.51100000000E-03 0.  1.
         11   -1    0    0    0    0 -0.00000000000E+00 -0.00000000000E+00 -0.45593999997E+02  0.45594000000E+02  0.51100000000E-03 0. -1.
    9900012    2    1    2    0    0  0.32288426680E-01  0.76608190980E+00  0.89728793308E+00  0.90007724748E+02  0.89999985915E+02 0.  0.
         12    1    1    2    0    0 -0.32288426680E-01 -0.76608190980E+00 -0.89728793308E+00  0.11802752517E+01  0.00000000000E+00 0. -1.
         11    1    3    3    0    0 -0.60072772046E+01 -0.53194684853E+01 -0.29267186527E+00  0.80293076576E+01  0.51100000000E-03 0. -1.
        -11    1    3    3    0    0 -0.17655426080E+02  0.38180330400E+02 -0.59769388626E-01  0.42064893583E+02  0.51100000000E-03 0.  1.
         12    1    3    3    0    0  0.23694991711E+02 -0.32094780005E+02  0.12497291870E+01  0.39913523508E+02  0.00000000000E+00 0. -1.
</event>
<event>
 7    1  0.2084210E-015  0.9000771E+02  0.7816164E-02  0.1186339E+00
        -11   -1    0    0    0    0  0.00000000000E+00  0.00000000000E+00  0.45593999997E+02  0.45594000000E+02  0.51100000000E-03 0.  1.
         11   -1    0    0    0    0 -0.00000000000E+00 -0.00000000000E+00 -0.45593999997E+02  0.45594000000E+02  0.51100000000E-03 0. -1.
    9900012    2    1    2    0    0 -0.39500696866E+00  0.11007862586E+00  0.11067643682E+01  0.90007713943E+02  0.89999974967E+02 0.  0.
         12    1    1    2    0    0  0.39500696866E+00 -0.11007862586E+00 -0.11067643682E+01  0.11802860568E+01  0.00000000000E+00 0. -1.
         11    1    3    3    0    0  0.11001391996E+02 -0.38092022597E+02 -0.54215947320E+01  0.40017827291E+02  0.51100000000E-03 0. -1.
        -11    1    3    3    0    0  0.94541210238E+00 -0.26726465815E+01  0.67184670147E+01  0.72920945606E+01  0.51100000000E-03 0.  1.
        -12    1    3    3    0    0 -0.12341811067E+02  0.40874747804E+02 -0.19010791443E+00  0.42697792092E+02  0.00000000000E+00 0.  1.
</event>
<event>
 7    1  0.2084210E-015  0.9000737E+02  0.7816164E-02  0.1186340E+00
        -11   -1    0    0    0    0  0.00000000000E+00  0.00000000000E+00  0.45593999997E+02  0.45594000000E+02  0.51100000000E-03 0.  1.
         11   -1    0    0    0    0 -0.00000000000E+00 -0.00000000000E+00 -0.45593999997E+02  0.45594000000E+02  0.51100000000E-03 0. -1.
    9900012    2    1    2    0    0  0.40164473043E+00 -0.10855872536E+01 -0.23250927927E+00  0.90007373582E+02  0.89999630112E+02 0.  0.
         12    1    1    2    0    0 -0.40164473043E+00  0.10855872536E+01  0.23250927927E+00  0.11806264183E+01  0.00000000000E+00 0. -1.
         11    1    3    3    0    0 -0.27807278775E+01 -0.55597286094E+01 -0.69345770036E+01  0.93129688188E+01  0.51100000000E-03 0. -1.
        -11    1    3    3    0    0  0.21617264838E+02 -0.30109383212E+02  0.16070972391E+02  0.40399965969E+02  0.51100000000E-03 0.  1.
         12    1    3    3    0    0 -0.18434892230E+02  0.34583524568E+02 -0.93689046666E+01  0.40294438794E+02  0.00000000000E+00 0. -1.
</event>
<event>
 7    1  0.2084210E-015  0.9000787E+02  0.7816164E-02  0.1186339E+00
        -11   -1    0    0    0    0  0.00000000000E+00  0.00000000000E+00  0.45593999997E+02  0.45594000000E+02  0.51100000000E-03 0.  1.
         11   -1    0    0    0    0 -0.00000000000E+00 -0.00000000000E+00 -0.45593999997E+02  0.45594000000E+02  0.51100000000E-03 0. -1.
    9900012    2    1    2    0    0  0.92924937568E+00 -0.60667086398E+00 -0.40142417416E+00  0.90007874877E+02  0.90000138025E+02 0.  0.
         12    1    1    2    0    0 -0.92924937568E+00  0.60667086398E+00  0.40142417416E+00  0.11801251235E+01  0.00000000000E+00 0. -1.
         11    1    3    3    0    0 -0.31060431467E+01  0.86062377892E+01 -0.51337526759E+00  0.91639722467E+01  0.51100000000E-03 0. -1.
        -11    1    3    3    0    0 -0.12091576893E+02  0.28613590550E+02 -0.18010136511E+02  0.35906946589E+02  0.51100000000E-03 0.  1.
         12    1    3    3    0    0  0.16126869415E+02 -0.37826499203E+02  0.18122087605E+02  0.44936956041E+02  0.00000000000E+00 0. -1.
</event>
<event>
 7    1  0.2084210E-015  0.9000782E+02  0.7816164E-02  0.1186339E+00
        -11   -1    0    0    0    0  0.00000000000E+00  0.00000000000E+00  0.45593999997E+02  0.45594000000E+02  0.51100000000E-03 0.  1.
         11   -1    0    0    0    0 -0.00000000000E+00 -0.00000000000E+00 -0.45593999997E+02  0.45594000000E+02  0.51100000000E-03 0. -1.
    9900012    2    1    2    0    0  0.47733374458E-01  0.25458760343E+00  0.11514035426E+01  0.90007820590E+02  0.90000083021E+02 0.  0.
         12    1    1    2    0    0 -0.47733374458E-01 -0.25458760343E+00 -0.11514035426E+01  0.11801794104E+01  0.00000000000E+00 0. -1.
         11    1    3    3    0    0  0.25470194422E+01 -0.56259879889E+01  0.79927106604E+01  0.10100617449E+02  0.51100000000E-03 0. -1.
        -11    1    3    3    0    0 -0.35375359952E+02  0.11476800896E+02  0.14935851227E+02  0.40077583543E+02  0.51100000000E-03 0.  1.
         12    1    3    3    0    0  0.32876073884E+02 -0.55962253036E+01 -0.21777158345E+02  0.39829619597E+02  0.00000000000E+00 0. -1.
</event>
<event>
 7    1  0.2084210E-015  0.9000780E+02  0.7816164E-02  0.1186339E+00
        -11   -1    0    0    0    0  0.00000000000E+00  0.00000000000E+00  0.45593999997E+02  0.45594000000E+02  0.51100000000E-03 0.  1.
         11   -1    0    0    0    0 -0.00000000000E+00 -0.00000000000E+00 -0.45593999997E+02  0.45594000000E+02  0.51100000000E-03 0. -1.
    9900012    2    1    2    0    0 -0.10003815335E+01 -0.61172050451E+00 -0.13382477958E+00  0.90007799060E+02  0.90000061207E+02 0.  0.
         12    1    1    2    0    0  0.10003815335E+01  0.61172050451E+00  0.13382477958E+00  0.11802009405E+01  0.00000000000E+00 0. -1.
         11    1    3    3    0    0  0.65495323447E+01  0.27769031021E+01 -0.31355374772E+01  0.77742626856E+01  0.51100000000E-03 0. -1.
        -11    1    3    3    0    0  0.35817172606E+02  0.61844655978E+01 -0.62187881257E+01  0.36875341276E+02  0.51100000000E-03 0.  1.
         12    1    3    3    0    0 -0.43367086485E+02 -0.95730892044E+01  0.92205008233E+01  0.45358195098E+02  0.00000000000E+00 0. -1.
</event>
<event>
 7    1  0.2084210E-015  0.9000771E+02  0.7816164E-02  0.1186339E+00
        -11   -1    0    0    0    0  0.00000000000E+00  0.00000000000E+00  0.45593999997E+02  0.45594000000E+02  0.51100000000E-03 0.  1.
         11   -1    0    0    0    0 -0.00000000000E+00 -0.00000000000E+00 -0.45593999997E+02  0.45594000000E+02  0.51100000000E-03 0. -1.
    9900012    2    1    2    0    0 -0.23234033374E+00  0.87507787023E+00  0.75718606185E+00  0.90007714424E+02  0.89999975454E+02 0.  0.
         12    1    1    2    0    0  0.23234033374E+00 -0.87507787023E+00 -0.75718606185E+00  0.11802855764E+01  0.00000000000E+00 0. -1.
         11    1    3    3    0    0  0.76740898046E+01  0.84203700906E+00  0.27921503021E+01  0.82095544474E+01  0.51100000000E-03 0. -1.
        -11    1    3    3    0    0 -0.31798707539E+02 -0.13919262784E+02  0.25262226822E+02  0.42931151649E+02  0.51100000000E-03 0.  1.
         12    1    3    3    0    0  0.23892277401E+02  0.13952303646E+02 -0.27297191063E+02  0.38867008327E+02  0.00000000000E+00 0. -1.
</event>
<event>
 7    1  0.2084210E-015  0.9000780E+02  0.7816164E-02  0.1186339E+00
        -11   -1    0    0    0    0  0.00000000000E+00  0.00000000000E+00  0.45593999997E+02  0.45594000000E+02  0.51100000000E-03 0.  1.
         11   -1    0    0    0    0 -0.00000000000E+00 -0.00000000000E+00 -0.45593999997E+02  0.45594000000E+02  0.51100000000E-03 0. -1.
    9900012    2    1    2    0    0  0.28259462072E+00 -0.33091565887E+00  0.10970411446E+01  0.90007803336E+02  0.90000065540E+02 0.  0.
         12    1    1    2    0    0 -0.28259462072E+00  0.33091565887E+00 -0.10970411446E+01  0.11801966641E+01  0.00000000000E+00 0. -1.
         11    1    3    3    0    0  0.37855655536E+02 -0.15513101965E+02 -0.16711359818E+02  0.44192494113E+02  0.51100000000E-03 0. -1.
        -11    1    3    3    0    0 -0.85474502228E+01  0.27321820457E+01 -0.10431548078E+01  0.90339302773E+01  0.51100000000E-03 0.  1.
        -12    1    3    3    0    0 -0.29025610693E+02  0.12450004260E+02  0.18851555771E+02  0.36781378946E+02  0.00000000000E+00 0.  1.
</event>
<event>
 7    1  0.2084210E-015  0.9000769E+02  0.7816164E-02  0.1186339E+00
        -11   -1    0    0    0    0  0.00000000000E+00  0.00000000000E+00  0.45593999997E+02  0.45594000000E+02  0.51100000000E-03 0.  1.
         11   -1    0    0    0    0 -0.00000000000E+00 -0.00000000000E+00 -0.45593999997E+02  0.45594000000E+02  0.51100000000E-03 0. -1.
    9900012    2    1    2    0    0 -0.35521276248E+00  0.10939175440E+01 -0.26512575047E+00  0.90007693530E+02  0.89999954285E+02 0.  0.
         12    1    1    2    0    0  0.35521276248E+00 -0.10939175440E+01  0.26512575047E+00  0.11803064700E+01  0.00000000000E+00 0. -1.
         11    1    3    3    0    0 -0.34233064495E+01 -0.34966704701E+01  0.88057679008E+01  0.10074089537E+02  0.51100000000E-03 0. -1.
        -11    1    3    3    0    0  0.38132288176E+02 -0.11320371819E+02  0.21243851879E+01  0.39833845312E+02  0.51100000000E-03 0.  1.
         12    1    3    3    0    0 -0.35064194489E+02  0.15910959833E+02 -0.11195278839E+02  0.40099758681E+02  0.00000000000E+00 0. -1.
</event>
<event>
 7    1  0.2084210E-015  0.9000769E+02  0.7816164E-02  0.1186339E+00
        -11   -1    0    0    0    0  0.00000000000E+00  0.00000000000E+00  0.45593999997E+02  0.45594000000E+02  0.51100000000E-03 0.  1.
         11   -1    0    0    0    0 -0.00000000000E+00 -0.00000000000E+00 -0.45593999997E+02  0.45594000000E+02  0.51100000000E-03 0. -1.
    9900012    2    1    2    0    0 -0.79092041501E+00  0.87356215214E+00 -0.66900511842E-01  0.90007685798E+02  0.89999946451E+02 0.  0.
         12    1    1    2    0    0  0.79092041501E+00 -0.87356215214E+00  0.66900511842E-01  0.11803142018E+01  0.00000000000E+00 0. -1.
         11    1    3    3    0    0  0.31632934867E+01 -0.13969076245E+02  0.61877760066E+01  0.15602246281E+02  0.51100000000E-03 0.  1.
        -11    1    3    3    0    0 -0.58002255565E+01 -0.16382734902E+02 -0.30314380330E+02  0.34942785727E+02  0.51100000000E-03 0. -1.
         12    1    3    3    0    0  0.18460116548E+01  0.31225373299E+02  0.24059703811E+02  0.39462653790E+02  0.00000000000E+00 0. -1.
</event>
<event>
 7    1  0.2191824E-015  0.9000774E+02  0.7816164E-02  0.1186339E+00
        -11   -1    0    0    0    0  0.00000000000E+00  0.00000000000E+00  0.45593999997E+02  0.45594000000E+02  0.51100000000E-03 0. -1.
         11   -1    0    0    0    0 -0.00000000000E+00 -0.00000000000E+00 -0.45593999997E+02  0.45594000000E+02  0.51100000000E-03 0.  1.
    9900012    2    1    2    0    0 -0.96905242258E+00 -0.14774606586E+00 -0.65736016517E+00  0.90007739908E+02  0.90000001275E+02 0.  0.
         12    1    1    2    0    0  0.96905242258E+00  0.14774606586E+00  0.65736016517E+00  0.11802600919E+01  0.00000000000E+00 0. -1.
         11    1    3    3    0    0  0.17234997619E+02  0.35314138170E+02  0.65846238862E+01  0.39843327793E+02  0.51100000000E-03 0. -1.
        -11    1    3    3    0    0  0.53864947714E+01 -0.14377521867E+01 -0.67558948101E+01  0.87591992909E+01  0.51100000000E-03 0.  1.
        -12    1    3    3    0    0 -0.23590544813E+02 -0.34024132049E+02 -0.48608924125E+00  0.41405212824E+02  0.00000000000E+00 0.  1.
</event>
<event>
 7    1  0.2084210E-015  0.9000836E+02  0.7816164E-02  0.1186338E+00
        -11   -1    0    0    0    0  0.00000000000E+00  0.00000000000E+00  0.45593999997E+02  0.45594000000E+02  0.51100000000E-03 0.  1.
         11   -1    0    0    0    0 -0.00000000000E+00 -0.00000000000E+00 -0.45593999997E+02  0.45594000000E+02  0.51100000000E-03 0. -1.
    9900012    2    1    2    0    0 -0.10904280203E+01  0.37146802565E+00  0.25404629000E+00  0.90008355444E+02  0.90000624933E+02 0.  0.
         12    1    1    2    0    0  0.10904280203E+01 -0.37146802565E+00 -0.25404629000E+00  0.11796445562E+01  0.00000000000E+00 0. -1.
         11    1    3    3    0    0  0.80043593082E+01 -0.21206467639E+02  0.26648243545E+02  0.34984466866E+02  0.51100000000E-03 0. -1.
        -11    1    3    3    0    0  0.11710819920E+02 -0.64488067298E+01 -0.69235328698E+01  0.15055421584E+02  0.51100000000E-03 0.  1.
        -12    1    3    3    0    0 -0.20805607248E+02  0.28026742394E+02 -0.19470664385E+02  0.39968466993E+02  0.00000000000E+00 0.  1.
</event>
<event>
 7    1  0.2084210E-015  0.9000754E+02  0.7816164E-02  0.1186339E+00
        -11   -1    0    0    0    0  0.00000000000E+00  0.00000000000E+00  0.45593999997E+02  0.45594000000E+02  0.51100000000E-03 0. -1.
         11   -1    0    0    0    0 -0.00000000000E+00 -0.00000000000E+00 -0.45593999997E+02  0.45594000000E+02  0.51100000000E-03 0.  1.
    9900012    2    1    2    0    0 -0.40969140009E+00 -0.86285356006E+00 -0.69363373294E+00  0.90007537775E+02  0.89999796473E+02 0.  0.
         12    1    1    2    0    0  0.40969140009E+00  0.86285356006E+00  0.69363373294E+00  0.11804622251E+01  0.00000000000E+00 0. -1.
         11    1    3    3    0    0 -0.13714899894E+02  0.77252663450E+01 -0.20079215075E+01  0.15868521300E+02  0.51100000000E-03 0. -1.
        -11    1    3    3    0    0  0.20320497500E+02  0.29264079021E+02  0.97635467737E+00  0.35640738044E+02  0.51100000000E-03 0.  1.
         12    1    3    3    0    0 -0.70152890061E+01 -0.37852198926E+02  0.33793309722E+00  0.38498278431E+02  0.00000000000E+00 0. -1.
</event>
<event>
 7    1  0.2084210E-015  0.9000793E+02  0.7816164E-02  0.1186339E+00
        -11   -1    0    0    0    0  0.00000000000E+00  0.00000000000E+00  0.45593999997E+02  0.45594000000E+02  0.51100000000E-03 0.  1.
         11   -1    0    0    0    0 -0.00000000000E+00 -0.00000000000E+00 -0.45593999997E+02  0.45594000000E+02  0.51100000000E-03 0. -1.
    9900012    2    1    2    0    0  0.45560208611E+00  0.68275853561E+00  0.84784061585E+00  0.90007929583E+02  0.90000193453E+02 0.  0.
         12    1    1    2    0    0 -0.45560208611E+00 -0.68275853561E+00 -0.84784061585E+00  0.11800704168E+01  0.00000000000E+00 0. -1.
         11    1    3    3    0    0 -0.88445439914E+01 -0.86061764980E+00 -0.49093969712E+01  0.10152280534E+02  0.51100000000E-03 0. -1.
        -11    1    3    3    0    0 -0.29845254252E+02  0.19074824255E+02  0.98628839565E+01  0.36767711404E+02  0.51100000000E-03 0.  1.
         12    1    3    3    0    0  0.39145400330E+02 -0.17531448070E+02 -0.41056463694E+01  0.43087937645E+02  0.00000000000E+00 0. -1.
</event>
<event>
 7    1  0.2084210E-015  0.9000766E+02  0.7816164E-02  0.1186339E+00
        -11   -1    0    0    0    0  0.00000000000E+00  0.00000000000E+00  0.45593999997E+02  0.45594000000E+02  0.51100000000E-03 0.  1.
         11   -1    0    0    0    0 -0.00000000000E+00 -0.00000000000E+00 -0.45593999997E+02  0.45594000000E+02  0.51100000000E-03 0. -1.
    9900012    2    1    2    0    0  0.10418368151E+01  0.19631661383E+00  0.51887063997E+00  0.90007664919E+02  0.89999925296E+02 0.  0.
         12    1    1    2    0    0 -0.10418368151E+01 -0.19631661383E+00 -0.51887063997E+00  0.11803350809E+01  0.00000000000E+00 0. -1.
         11    1    3    3    0    0  0.11690941613E+02  0.14426869720E+01  0.65819943051E+01  0.13493780449E+02  0.51100000000E-03 0. -1.
        -11    1    3    3    0    0 -0.18516616436E+02 -0.11619497433E+02  0.30600818503E+02  0.37607019267E+02  0.51100000000E-03 0.  1.
         12    1    3    3    0    0  0.78675116385E+01  0.10373127075E+02 -0.36663942168E+02  0.38906865204E+02  0.00000000000E+00 0. -1.
</event>
<event>
 7    1  0.2084210E-015  0.9000774E+02  0.7816164E-02  0.1186339E+00
        -11   -1    0    0    0    0  0.00000000000E+00  0.00000000000E+00  0.45593999997E+02  0.45594000000E+02  0.51100000000E-03 0.  1.
         11   -1    0    0    0    0 -0.00000000000E+00 -0.00000000000E+00 -0.45593999997E+02  0.45594000000E+02  0.51100000000E-03 0. -1.
    9900012    2    1    2    0    0  0.11611584774E+01  0.20879557058E+00  0.33544047198E-01  0.90007741637E+02  0.90000003027E+02 0.  0.
         12    1    1    2    0    0 -0.11611584774E+01 -0.20879557058E+00 -0.33544047198E-01  0.11802583629E+01  0.00000000000E+00 0. -1.
         11    1    3    3    0    0  0.36667048961E+02  0.15601711171E+02  0.11768347559E+02  0.41549727742E+02  0.51100000000E-03 0. -1.
        -11    1    3    3    0    0 -0.69521341294E-01 -0.80254785236E+01  0.40286439466E+01  0.89801509486E+01  0.51100000000E-03 0.  1.
        -12    1    3    3    0    0 -0.35436369142E+02 -0.73674370770E+01 -0.15763447458E+02  0.39477862946E+02  0.00000000000E+00 0.  1.
</event>
<event>
 7    1  0.2084210E-015  0.9000774E+02  0.7816164E-02  0.1186339E+00
        -11   -1    0    0    0    0  0.00000000000E+00  0.00000000000E+00  0.45593999997E+02  0.45594000000E+02  0.51100000000E-03 0. -1.
         11   -1    0    0    0    0 -0.00000000000E+00 -0.00000000000E+00 -0.45593999997E+02  0.45594000000E+02  0.51100000000E-03 0.  1.
    9900012    2    1    2    0    0  0.99318635300E-01 -0.53058398366E+00 -0.10495855084E+01  0.90007740158E+02  0.90000001528E+02 0.  0.
         12    1    1    2    0    0 -0.99318635300E-01  0.53058398366E+00  0.10495855084E+01  0.11802598419E+01  0.00000000000E+00 0. -1.
         11    1    3    3    0    0  0.74768051755E+01  0.31293095142E+02  0.12979038138E+02  0.34693167201E+02  0.51100000000E-03 0. -1.
        -11    1    3    3    0    0 -0.35601549404E+00  0.10470164586E+02 -0.44654996374E+01  0.11388229922E+02  0.51100000000E-03 0.  1.
        -12    1    3    3    0    0 -0.70214710462E+01 -0.42293843712E+02 -0.95631240085E+01  0.43926343035E+02  0.00000000000E+00 0.  1.
</event>
<event>
 7    1  0.2084210E-015  0.9000785E+02  0.7816164E-02  0.1186339E+00
        -11   -1    0    0    0    0  0.00000000000E+00  0.00000000000E+00  0.45593999997E+02  0.45594000000E+02  0.51100000000E-03 0. -1.
         11   -1    0    0    0    0 -0.00000000000E+00 -0.00000000000E+00 -0.45593999997E+02  0.45594000000E+02  0.51100000000E-03 0.  1.
    9900012    2    1    2    0    0 -0.29871990456E+00  0.71513306630E+00 -0.89000731497E+00  0.90007846661E+02  0.90000109436E+02 0.  0.
         12    1    1    2    0    0  0.29871990456E+00 -0.71513306630E+00  0.89000731497E+00  0.11801533394E+01  0.00000000000E+00 0. -1.
         11    1    3    3    0    0 -0.23911573025E+02 -0.18422784561E+01  0.36490256196E+02  0.43665731552E+02  0.51100000000E-03 0. -1.
        -11    1    3    3    0    0  0.10087116365E+02 -0.42483123532E+01 -0.89798303016E+01  0.14157521920E+02  0.51100000000E-03 0.  1.
        -12    1    3    3    0    0  0.13525736755E+02  0.68057238756E+01 -0.28400433209E+02  0.32184593189E+02  0.00000000000E+00 0.  1.
</event>
<event>
 7    1  0.2084210E-015  0.9000769E+02  0.7816164E-02  0.1186339E+00
        -11   -1    0    0    0    0  0.00000000000E+00  0.00000000000E+00  0.45593999997E+02  0.45594000000E+02  0.51100000000E-03 0.  1.
         11   -1    0    0    0    0 -0.00000000000E+00 -0.00000000000E+00 -0.45593999997E+02  0.45594000000E+02  0.51100000000E-03 0. -1.
    9900012    2    1    2    0    0 -0.47592243230E+00 -0.10801082637E+01 -0.12032356584E-02  0.90007687554E+02  0.89999948230E+02 0.  0.
         12    1    1    2    0    0  0.47592243230E+00  0.10801082637E+01  0.12032356584E-02  0.11803124462E+01  0.00000000000E+00 0. -1.
         11    1    3    3    0    0  0.30544655052E+02  0.18025311372E+02 -0.21979308821E+02  0.41725026289E+02  0.51100000000E-03 0. -1.
        -11    1    3    3    0    0  0.18741743589E-01 -0.10083561055E+02  0.19903336414E+01  0.10278131303E+02  0.51100000000E-03 0.  1.
        -12    1    3    3    0    0 -0.31039319228E+02 -0.90218585804E+01  0.19987771944E+02  0.38004529962E+02  0.00000000000E+00 0.  1.
</event>
<event>
 7    1  0.2084210E-015  0.9000767E+02  0.7816164E-02  0.1186339E+00
        -11   -1    0    0    0    0  0.00000000000E+00  0.00000000000E+00  0.45593999997E+02  0.45594000000E+02  0.51100000000E-03 0.  1.
         11   -1    0    0    0    0 -0.00000000000E+00 -0.00000000000E+00 -0.45593999997E+02  0.45594000000E+02  0.51100000000E-03 0. -1.
    9900012    2    1    2    0    0  0.11052749501E+01 -0.38911702695E+00 -0.14187124423E+00  0.90007672831E+02  0.89999933312E+02 0.  0.
         12    1    1    2    0    0 -0.11052749501E+01  0.38911702695E+00  0.14187124423E+00  0.11803271690E+01  0.00000000000E+00 0. -1.
         11    1    3    3    0    0 -0.99417959550E+00  0.89312372996E+01  0.66709626325E+01  0.11191833428E+02  0.51100000000E-03 0. -1.
        -11    1    3    3    0    0 -0.12748161743E+02  0.74749535717E+01  0.31291946200E+02  0.34606017626E+02  0.51100000000E-03 0.  1.
         12    1    3    3    0    0  0.14847616289E+02 -0.16795307898E+02 -0.38104780076E+02  0.44209821777E+02  0.00000000000E+00 0. -1.
</event>
<event>
 7    1  0.2084210E-015  0.9000772E+02  0.7816164E-02  0.1186339E+00
        -11   -1    0    0    0    0  0.00000000000E+00  0.00000000000E+00  0.45593999997E+02  0.45594000000E+02  0.51100000000E-03 0. -1.
         11   -1    0    0    0    0 -0.00000000000E+00 -0.00000000000E+00 -0.45593999997E+02  0.45594000000E+02  0.51100000000E-03 0.  1.
    9900012    2    1    2    0    0 -0.68351835854E+00 -0.41474805955E-01 -0.96132459948E+00  0.90007719317E+02  0.89999980412E+02 0.  0.
         12    1    1    2    0    0  0.68351835854E+00  0.41474805955E-01  0.96132459948E+00  0.11802806834E+01  0.00000000000E+00 0. -1.
         11    1    3    3    0    0  0.34009635263E+01  0.28753300352E+01 -0.10624556491E+02  0.11520211657E+02  0.51100000000E-03 0. -1.
        -11    1    3    3    0    0 -0.38394047481E+02  0.11257153890E+02  0.10466823003E+02  0.41356750111E+02  0.51100000000E-03 0.  1.
         12    1    3    3    0    0  0.34309565596E+02 -0.14173958731E+02 -0.80359111082E+00  0.37130757549E+02  0.00000000000E+00 0. -1.
</event>
<event>
 7    1  0.2084210E-015  0.9000793E+02  0.7816164E-02  0.1186339E+00
        -11   -1    0    0    0    0  0.00000000000E+00  0.00000000000E+00  0.45593999997E+02  0.45594000000E+02  0.51100000000E-03 0.  1.
         11   -1    0    0    0    0 -0.00000000000E+00 -0.00000000000E+00 -0.45593999997E+02  0.45594000000E+02  0.51100000000E-03 0. -1.
    9900012    2    1    2    0    0  0.79258242826E+00  0.50322276846E+00 -0.71494391936E+00  0.90007930143E+02  0.90000194020E+02 0.  0.
         12    1    1    2    0    0 -0.79258242826E+00 -0.50322276846E+00  0.71494391936E+00  0.11800698573E+01  0.00000000000E+00 0. -1.
         11    1    3    3    0    0  0.44410529778E+01 -0.16001354846E+01 -0.82454094540E+01  0.95010611221E+01  0.51100000000E-03 0. -1.
        -11    1    3    3    0    0 -0.19995549051E+01 -0.30771066654E+02 -0.20703031757E+02  0.37141247785E+02  0.51100000000E-03 0.  1.
         12    1    3    3    0    0 -0.16489156445E+01  0.32874424907E+02  0.28233497292E+02  0.43365621235E+02  0.00000000000E+00 0. -1.
</event>
<event>
 7    1  0.2084210E-015  0.9000780E+02  0.7816164E-02  0.1186339E+00
        -11   -1    0    0    0    0  0.00000000000E+00  0.00000000000E+00  0.45593999997E+02  0.45594000000E+02  0.51100000000E-03 0.  1.
         11   -1    0    0    0    0 -0.00000000000E+00 -0.00000000000E+00 -0.45593999997E+02  0.45594000000E+02  0.51100000000E-03 0. -1.
    9900012    2    1    2    0    0 -0.55235124622E+00 -0.66712374653E+00  0.80170547049E+00  0.90007797622E+02  0.90000059750E+02 0.  0.
         12    1    1    2    0    0  0.55235124622E+00  0.66712374653E+00 -0.80170547049E+00  0.11802023783E+01  0.00000000000E+00 0. -1.
         11    1    3    3    0    0  0.12649480677E+02 -0.12567596116E+02 -0.35351728722E+02  0.39594173276E+02  0.51100000000E-03 0. -1.
        -11    1    3    3    0    0  0.10290267058E+01  0.69287776716E+01 -0.36160646368E+01  0.78830691804E+01  0.51100000000E-03 0.  1.
        -12    1    3    3    0    0 -0.14230858629E+02  0.49716946975E+01  0.39769498829E+02  0.42530555165E+02  0.00000000000E+00 0.  1.
</event>
<event>
 7    1  0.2084210E-015  0.9000782E+02  0.7816164E-02  0.1186339E+00
        -11   -1    0    0    0    0  0.00000000000E+00  0.00000000000E+00  0.45593999997E+02  0.45594000000E+02  0.51100000000E-03 0.  1.
         11   -1    0    0    0    0 -0.00000000000E+00 -0.00000000000E+00 -0.45593999997E+02  0.45594000000E+02  0.51100000000E-03 0. -1.
    9900012    2    1    2    0    0 -0.23822561166E+00 -0.67731331786E+00  0.93665871947E+00  0.90007815976E+02  0.90000078347E+02 0.  0.
         12    1    1    2    0    0  0.23822561166E+00  0.67731331786E+00 -0.93665871947E+00  0.11801840235E+01  0.00000000000E+00 0. -1.
         11    1    3    3    0    0  0.24718427558E+01  0.24709259689E+01 -0.47682345086E+01  0.59119829451E+01  0.51100000000E-03 0. -1.
        -11    1    3    3    0    0  0.31704722676E+02 -0.26197911957E+02 -0.46792564713E+01  0.41393423056E+02  0.51100000000E-03 0.  1.
         12    1    3    3    0    0 -0.34414791044E+02  0.23049672670E+02  0.10384149699E+02  0.42702409976E+02  0.00000000000E+00 0. -1.
</event>
<event>
 7    1  0.2084210E-015  0.9000778E+02  0.7816164E-02  0.1186339E+00
        -11   -1    0    0    0    0  0.00000000000E+00  0.00000000000E+00  0.45593999997E+02  0.45594000000E+02  0.51100000000E-03 0. -1.
         11   -1    0    0    0    0 -0.00000000000E+00 -0.00000000000E+00 -0.45593999997E+02  0.45594000000E+02  0.51100000000E-03 0.  1.
    9900012    2    1    2    0    0 -0.44482187971E+00 -0.51024003837E+00 -0.96679960180E+00  0.90007782702E+02  0.90000044633E+02 0.  0.
         12    1    1    2    0    0  0.44482187971E+00  0.51024003837E+00  0.96679960180E+00  0.11802172984E+01  0.00000000000E+00 0. -1.
         11    1    3    3    0    0  0.16930238198E+01  0.81519128998E+01 -0.40318155104E+01  0.92507053867E+01  0.51100000000E-03 0. -1.
        -11    1    3    3    0    0  0.57973171423E+01  0.18533441064E+02 -0.30920399663E+02  0.36512579193E+02  0.51100000000E-03 0.  1.
         12    1    3    3    0    0 -0.79351628418E+01 -0.27195594002E+02  0.33985415572E+02  0.44244498122E+02  0.00000000000E+00 0. -1.
</event>
<event>
 7    1  0.2084210E-015  0.9000784E+02  0.7816164E-02  0.1186339E+00
        -11   -1    0    0    0    0  0.00000000000E+00  0.00000000000E+00  0.45593999997E+02  0.45594000000E+02  0.51100000000E-03 0. -1.
         11   -1    0    0    0    0 -0.00000000000E+00 -0.00000000000E+00 -0.45593999997E+02  0.45594000000E+02  0.51100000000E-03 0.  1.
    9900012    2    1    2    0    0 -0.11085290664E+01 -0.38303875554E+00 -0.13119481303E+00  0.90007844308E+02  0.90000107052E+02 0.  0.
         12    1    1    2    0    0  0.11085290664E+01  0.38303875554E+00  0.13119481303E+00  0.11801556924E+01  0.00000000000E+00 0. -1.
         11    1    3    3    0    0 -0.53082177038E+01 -0.82499903225E+01 -0.22558175696E+01  0.10066192363E+02  0.51100000000E-03 0. -1.
        -11    1    3    3    0    0 -0.19001641619E+02 -0.29959640594E+02 -0.60667848798E+00  0.35482538069E+02  0.51100000000E-03 0.  1.
         12    1    3    3    0    0  0.23201330256E+02  0.37826592161E+02  0.27313012445E+01  0.44459113876E+02  0.00000000000E+00 0. -1.
</event>
<event>
 7    1  0.2084210E-015  0.9000795E+02  0.7816164E-02  0.1186339E+00
        -11   -1    0    0    0    0  0.00000000000E+00  0.00000000000E+00  0.45593999997E+02  0.45594000000E+02  0.51100000000E-03 0.  1.
         11   -1    0    0    0    0 -0.00000000000E+00 -0.00000000000E+00 -0.45593999997E+02  0.45594000000E+02  0.51100000000E-03 0. -1.
    9900012    2    1    2    0    0 -0.36892810547E+00  0.11086539418E+01 -0.16524165272E+00  0.90007946479E+02  0.90000210572E+02 0.  0.
         12    1    1    2    0    0  0.36892810547E+00 -0.11086539418E+01  0.16524165272E+00  0.11800535215E+01  0.00000000000E+00 0. -1.
         11    1    3    3    0    0 -0.61774090391E+01 -0.34669591938E+02 -0.17698994579E+02  0.39413137365E+02  0.51100000000E-03 0. -1.
        -11    1    3    3    0    0  0.59990375466E+01 -0.42928174844E+01  0.31270501111E+01  0.80121892201E+01  0.51100000000E-03 0.  1.
        -12    1    3    3    0    0 -0.19055661296E+00  0.40071063365E+02  0.14406702815E+02  0.42582619893E+02  0.00000000000E+00 0.  1.
</event>
<event>
 7    1  0.2084210E-015  0.9000823E+02  0.7816164E-02  0.1186338E+00
        -11   -1    0    0    0    0  0.00000000000E+00  0.00000000000E+00  0.45593999997E+02  0.45594000000E+02  0.51100000000E-03 0. -1.
         11   -1    0    0    0    0 -0.00000000000E+00 -0.00000000000E+00 -0.45593999997E+02  0.45594000000E+02  0.51100000000E-03 0.  1.
    9900012    2    1    2    0    0 -0.11202886596E+01  0.91535376650E-01 -0.35835947369E+00  0.90008234380E+02  0.90000502272E+02 0.  0.
         12    1    1    2    0    0  0.11202886596E+01 -0.91535376649E-01  0.35835947369E+00  0.11797656201E+01  0.00000000000E+00 0. -1.
         11    1    3    3    0    0  0.19496571090E+01  0.87081311260E+01  0.39704811610E+01  0.97671608701E+01  0.51100000000E-03 0. -1.
        -11    1    3    3    0    0 -0.34574638598E+02  0.16388212997E+02  0.59621538644E+01  0.38723719325E+02  0.51100000000E-03 0.  1.
         12    1    3    3    0    0  0.31504692830E+02 -0.25004808746E+02 -0.10290994499E+02  0.41517354185E+02  0.00000000000E+00 0. -1.
</event>
<event>
 7    1  0.2084210E-015  0.9000773E+02  0.7816164E-02  0.1186339E+00
        -11   -1    0    0    0    0  0.00000000000E+00  0.00000000000E+00  0.45593999997E+02  0.45594000000E+02  0.51100000000E-03 0. -1.
         11   -1    0    0    0    0 -0.00000000000E+00 -0.00000000000E+00 -0.45593999997E+02  0.45594000000E+02  0.51100000000E-03 0.  1.
    9900012    2    1    2    0    0  0.11788049010E+01  0.47624519579E-01  0.34423776335E-01  0.90007731350E+02  0.89999992604E+02 0.  0.
         12    1    1    2    0    0 -0.11788049010E+01 -0.47624519579E-01 -0.34423776335E-01  0.11802686498E+01  0.00000000000E+00 0. -1.
         11    1    3    3    0    0 -0.51341324390E+01  0.61689534725E+01  0.19193858171E+01  0.82522327296E+01  0.51100000000E-03 0. -1.
        -11    1    3    3    0    0 -0.25041082886E+02  0.17678495397E+02  0.20112870827E+02  0.36662141301E+02  0.51100000000E-03 0.  1.
         12    1    3    3    0    0  0.31354020226E+02 -0.23799824350E+02 -0.21997832868E+02  0.45093357319E+02  0.00000000000E+00 0. -1.
</event>
<event>
 7    1  0.2084210E-015  0.9000767E+02  0.7816164E-02  0.1186339E+00
        -11   -1    0    0    0    0  0.00000000000E+00  0.00000000000E+00  0.45593999997E+02  0.45594000000E+02  0.51100000000E-03 0. -1.
         11   -1    0    0    0    0 -0.00000000000E+00 -0.00000000000E+00 -0.45593999997E+02  0.45594000000E+02  0.51100000000E-03 0.  1.
    9900012    2    1    2    0    0 -0.62810151511E+00 -0.46409235810E+00 -0.88503596992E+00  0.90007668734E+02  0.89999929161E+02 0.  0.
         12    1    1    2    0    0  0.62810151511E+00  0.46409235810E+00  0.88503596992E+00  0.11803312663E+01  0.00000000000E+00 0. -1.
         11    1    3    3    0    0 -0.82106654183E+01  0.41849202371E+01  0.35740660378E+01  0.98844591307E+01  0.51100000000E-03 0. -1.
        -11    1    3    3    0    0  0.42420961519E+02  0.79630079803E+00 -0.11941096896E+02  0.44076772415E+02  0.51100000000E-03 0.  1.
         12    1    3    3    0    0 -0.34838397616E+02 -0.54453133933E+01  0.74819948885E+01  0.36046437188E+02  0.00000000000E+00 0. -1.
</event>
<event>
 7    1  0.2084210E-015  0.9000777E+02  0.7816164E-02  0.1186339E+00
        -11   -1    0    0    0    0  0.00000000000E+00  0.00000000000E+00  0.45593999997E+02  0.45594000000E+02  0.51100000000E-03 0.  1.
         11   -1    0    0    0    0 -0.00000000000E+00 -0.00000000000E+00 -0.45593999997E+02  0.45594000000E+02  0.51100000000E-03 0. -1.
    9900012    2    1    2    0    0  0.16965320645E+00 -0.10904248274E+01 -0.41850234545E+00  0.90007765817E+02  0.90000027525E+02 0.  0.
         12    1    1    2    0    0 -0.16965320645E+00  0.10904248274E+01  0.41850234545E+00  0.11802341835E+01  0.00000000000E+00 0. -1.
         11    1    3    3    0    0 -0.40242757175E+01 -0.46230361798E+01  0.40453252707E+01  0.73438351954E+01  0.51100000000E-03 0. -1.
        -11    1    3    3    0    0 -0.24399051422E+02  0.22243180960E+02  0.21801684372E+02  0.39564962419E+02  0.51100000000E-03 0.  1.
         12    1    3    3    0    0  0.28592980346E+02 -0.18710569607E+02 -0.26265511988E+02  0.43098968202E+02  0.00000000000E+00 0. -1.
</event>
<event>
 7    1  0.2084210E-015  0.9000764E+02  0.7816164E-02  0.1186339E+00
        -11   -1    0    0    0    0  0.00000000000E+00  0.00000000000E+00  0.45593999997E+02  0.45594000000E+02  0.51100000000E-03 0. -1.
         11   -1    0    0    0    0 -0.00000000000E+00 -0.00000000000E+00 -0.45593999997E+02  0.45594000000E+02  0.51100000000E-03 0.  1.
    9900012    2    1    2    0    0 -0.10966488694E+01 -0.35585541058E+00 -0.25293026879E+00  0.90007641776E+02  0.89999901847E+02 0.  0.
         12    1    1    2    0    0  0.10966488694E+01  0.35585541058E+00  0.25293026879E+00  0.11803582239E+01  0.00000000000E+00 0. -1.
         11    1    3    3    0    0  0.10524100582E+01  0.73280470811E+01 -0.48156131028E+01  0.88316459831E+01  0.51100000000E-03 0. -1.
        -11    1    3    3    0    0  0.11734495164E+02  0.14597184539E+02 -0.31453486012E+02  0.36607348385E+02  0.51100000000E-03 0.  1.
         12    1    3    3    0    0 -0.13883554092E+02 -0.22281087031E+02  0.36016168846E+02  0.44568647408E+02  0.00000000000E+00 0. -1.
</event>
<event>
 7    1  0.2084210E-015  0.9000771E+02  0.7816164E-02  0.1186339E+00
        -11   -1    0    0    0    0  0.00000000000E+00  0.00000000000E+00  0.45593999997E+02  0.45594000000E+02  0.51100000000E-03 0. -1.
         11   -1    0    0    0    0 -0.00000000000E+00 -0.00000000000E+00 -0.45593999997E+02  0.45594000000E+02  0.51100000000E-03 0.  1.
    9900012    2    1    2    0    0 -0.39435566630E+00  0.32817725402E+00 -0.10629531202E+01  0.90007709342E+02  0.89999970305E+02 0.  0.
         12    1    1    2    0    0  0.39435566630E+00 -0.32817725402E+00  0.10629531202E+01  0.11802906580E+01  0.00000000000E+00 0. -1.
         11    1    3    3    0    0  0.42782514173E+00  0.33197555034E+02  0.20111475541E+02  0.38816647760E+02  0.51100000000E-03 0. -1.
        -11    1    3    3    0    0  0.26003224550E+01  0.61212171541E+01  0.81738208189E-01  0.66511395800E+01  0.51100000000E-03 0.  1.
        -12    1    3    3    0    0 -0.34225032630E+01 -0.38990594935E+02 -0.21256166870E+02  0.44539922002E+02  0.00000000000E+00 0.  1.
</event>
<event>
 7    1  0.2084210E-015  0.9000781E+02  0.7816164E-02  0.1186339E+00
        -11   -1    0    0    0    0  0.00000000000E+00  0.00000000000E+00  0.45593999997E+02  0.45594000000E+02  0.51100000000E-03 0. -1.
         11   -1    0    0    0    0 -0.00000000000E+00 -0.00000000000E+00 -0.45593999997E+02  0.45594000000E+02  0.51100000000E-03 0.  1.
    9900012    2    1    2    0    0  0.44479079935E+00 -0.10645579583E+01 -0.24845477847E+00  0.90007808372E+02  0.90000070643E+02 0.  0.
         12    1    1    2    0    0 -0.44479079935E+00  0.10645579583E+01  0.24845477847E+00  0.11801916280E+01  0.00000000000E+00 0. -1.
         11    1    3    3    0    0  0.98766826862E+01 -0.75796349373E+01  0.33612060574E+01  0.12895636203E+02  0.51100000000E-03 0. -1.
        -11    1    3    3    0    0 -0.19540045446E+02  0.15504314386E+02  0.31095558668E+02  0.39863904848E+02  0.51100000000E-03 0.  1.
         12    1    3    3    0    0  0.10108153559E+02 -0.89892374069E+01 -0.34705219504E+02  0.37248267320E+02  0.00000000000E+00 0. -1.
</event>
<event>
 7    1  0.2084210E-015  0.9000771E+02  0.7816164E-02  0.1186339E+00
        -11   -1    0    0    0    0  0.00000000000E+00  0.00000000000E+00  0.45593999997E+02  0.45594000000E+02  0.51100000000E-03 0.  1.
         11   -1    0    0    0    0 -0.00000000000E+00 -0.00000000000E+00 -0.45593999997E+02  0.45594000000E+02  0.51100000000E-03 0. -1.
    9900012    2    1    2    0    0 -0.27490750463E+00 -0.83292101617E+00 -0.78977544940E+00  0.90007713248E+02  0.89999974263E+02 0.  0.
         12    1    1    2    0    0  0.27490750463E+00  0.83292101617E+00  0.78977544940E+00  0.11802867515E+01  0.00000000000E+00 0. -1.
         11    1    3    3    0    0  0.27620312072E+01  0.56970753078E+01 -0.34258108686E+01  0.71987265416E+01  0.51100000000E-03 0. -1.
        -11    1    3    3    0    0 -0.17807716042E+02  0.34638704590E+02 -0.58229641031E+00  0.38952454039E+02  0.51100000000E-03 0.  1.
         12    1    3    3    0    0  0.14770777330E+02 -0.41168700914E+02  0.32183318295E+01  0.43856532668E+02  0.00000000000E+00 0. -1.
</event>
<event>
 7    1  0.2084210E-015  0.9000773E+02  0.7816164E-02  0.1186339E+00
        -11   -1    0    0    0    0  0.00000000000E+00  0.00000000000E+00  0.45593999997E+02  0.45594000000E+02  0.51100000000E-03 0. -1.
         11   -1    0    0    0    0 -0.00000000000E+00 -0.00000000000E+00 -0.45593999997E+02  0.45594000000E+02  0.51100000000E-03 0.  1.
    9900012    2    1    2    0    0  0.63612568361E+00 -0.96993807911E+00 -0.21817330382E+00  0.90007730813E+02  0.89999992060E+02 0.  0.
         12    1    1    2    0    0 -0.63612568361E+00  0.96993807911E+00  0.21817330382E+00  0.11802691867E+01  0.00000000000E+00 0. -1.
         11    1    3    3    0    0  0.24855914800E+02  0.24827873603E+02  0.11614003901E+02  0.37001687733E+02  0.51100000000E-03 0. -1.
        -11    1    3    3    0    0  0.47716865326E+01  0.65126740610E+01 -0.25237012606E+00  0.80775990698E+01  0.51100000000E-03 0.  1.
        -12    1    3    3    0    0 -0.28991475649E+02 -0.32310485743E+02 -0.11579807079E+02  0.44928444011E+02  0.00000000000E+00 0.  1.
</event>
<event>
 7    1  0.2084210E-015  0.9000770E+02  0.7816164E-02  0.1186339E+00
        -11   -1    0    0    0    0  0.00000000000E+00  0.00000000000E+00  0.45593999997E+02  0.45594000000E+02  0.51100000000E-03 0.  1.
         11   -1    0    0    0    0 -0.00000000000E+00 -0.00000000000E+00 -0.45593999997E+02  0.45594000000E+02  0.51100000000E-03 0. -1.
    9900012    2    1    2    0    0  0.49302965972E+00 -0.79644287792E+00 -0.71812547777E+00  0.90007701858E+02  0.89999962722E+02 0.  0.
         12    1    1    2    0    0 -0.49302965972E+00  0.79644287792E+00  0.71812547777E+00  0.11802981424E+01  0.00000000000E+00 0. -1.
         11    1    3    3    0    0 -0.67250036126E+01  0.16040907531E+02 -0.48715484794E+01  0.18062900455E+02  0.51100000000E-03 0. -1.
        -11    1    3    3    0    0 -0.13521940141E+02 -0.25521332652E+02  0.27252061186E+02  0.39709647753E+02  0.51100000000E-03 0.  1.
         12    1    3    3    0    0  0.20739973414E+02  0.86839822427E+01 -0.23098638185E+02  0.32235153649E+02  0.00000000000E+00 0. -1.
</event>
<event>
 7    1  0.2084210E-015  0.9000780E+02  0.7816164E-02  0.1186339E+00
        -11   -1    0    0    0    0  0.00000000000E+00  0.00000000000E+00  0.45593999997E+02  0.45594000000E+02  0.51100000000E-03 0.  1.
         11   -1    0    0    0    0 -0.00000000000E+00 -0.00000000000E+00 -0.45593999997E+02  0.45594000000E+02  0.51100000000E-03 0. -1.
    9900012    2    1    2    0    0 -0.10386185062E+01  0.48867871663E+00  0.27449262276E+00  0.90007795997E+02  0.90000058104E+02 0.  0.
         12    1    1    2    0    0  0.10386185062E+01 -0.48867871663E+00 -0.27449262276E+00  0.11802040034E+01  0.00000000000E+00 0. -1.
         11    1    3    3    0    0 -0.30642970831E+02 -0.88380917706E+01 -0.15011878140E+02  0.35248546255E+02  0.51100000000E-03 0. -1.
        -11    1    3    3    0    0 -0.83753161905E+01  0.16471948018E+01 -0.61088654062E+01  0.10496542708E+02  0.51100000000E-03 0.  1.
        -12    1    3    3    0    0  0.37979668515E+02  0.76795756854E+01  0.21395236169E+02  0.44262707034E+02  0.00000000000E+00 0.  1.
</event>
<event>
 7    1  0.2084210E-015  0.9000778E+02  0.7816164E-02  0.1186339E+00
        -11   -1    0    0    0    0  0.00000000000E+00  0.00000000000E+00  0.45593999997E+02  0.45594000000E+02  0.51100000000E-03 0.  1.
         11   -1    0    0    0    0 -0.00000000000E+00 -0.00000000000E+00 -0.45593999997E+02  0.45594000000E+02  0.51100000000E-03 0. -1.
    9900012    2    1    2    0    0 -0.48986241152E+00  0.10705224664E+01  0.83238106238E-01  0.90007783022E+02  0.90000044958E+02 0.  0.
         12    1    1    2    0    0  0.48986241152E+00 -0.10705224664E+01 -0.83238106238E-01  0.11802169782E+01  0.00000000000E+00 0. -1.
         11    1    3    3    0    0 -0.19923930579E+01  0.71271709800E+00 -0.88742836136E+01  0.91230754505E+01  0.51100000000E-03 0. -1.
        -11    1    3    3    0    0  0.62118120807E+01  0.39899168426E+02  0.17563012071E+01  0.40418001492E+02  0.51100000000E-03 0.  1.
         12    1    3    3    0    0 -0.47092814343E+01 -0.39541363057E+02  0.72012205128E+01  0.40466706080E+02  0.00000000000E+00 0. -1.
</event>
<event>
 7    1  0.2084210E-015  0.9000766E+02  0.7816164E-02  0.1186339E+00
        -11   -1    0    0    0    0  0.00000000000E+00  0.00000000000E+00  0.45593999997E+02  0.45594000000E+02  0.51100000000E-03 0.  1.
         11   -1    0    0    0    0 -0.00000000000E+00 -0.00000000000E+00 -0.45593999997E+02  0.45594000000E+02  0.51100000000E-03 0. -1.
    9900012    2    1    2    0    0  0.26045801557E+00 -0.41385333183E+00  0.10742805593E+01  0.90007664591E+02  0.89999924963E+02 0.  0.
         12    1    1    2    0    0 -0.26045801557E+00  0.41385333183E+00 -0.10742805593E+01  0.11803354092E+01  0.00000000000E+00 0. -1.
         11    1    3    3    0    0 -0.10450379782E+02 -0.49975645649E+01  0.49269453665E+01  0.12588124565E+02  0.51100000000E-03 0. -1.
        -11    1    3    3    0    0 -0.30078893672E+02 -0.24053586147E+01  0.12843214106E+02  0.32794416346E+02  0.51100000000E-03 0.  1.
        -12    1    3    3    0    0  0.40789731470E+02  0.69890698478E+01 -0.16695878913E+02  0.44625123680E+02  0.00000000000E+00 0.  1.
</event>
<event>
 7    1  0.2084210E-015  0.9000775E+02  0.7816164E-02  0.1186339E+00
        -11   -1    0    0    0    0  0.00000000000E+00  0.00000000000E+00  0.45593999997E+02  0.45594000000E+02  0.51100000000E-03 0.  1.
         11   -1    0    0    0    0 -0.00000000000E+00 -0.00000000000E+00 -0.45593999997E+02  0.45594000000E+02  0.51100000000E-03 0. -1.
    9900012    2    1    2    0    0 -0.11170099579E+01  0.37526593360E+00 -0.66759908709E-01  0.90007748903E+02  0.90000010388E+02 0.  0.
         12    1    1    2    0    0  0.11170099579E+01 -0.37526593360E+00  0.66759908709E-01  0.11802510972E+01  0.00000000000E+00 0. -1.
         11    1    3    3    0    0 -0.10804861972E+02 -0.33526013351E+02 -0.79900312733E+01  0.36118959197E+02  0.51100000000E-03 0. -1.
        -11    1    3    3    0    0 -0.48272176837E+01 -0.67567484014E+01 -0.38322361834E+01  0.91455843964E+01  0.51100000000E-03 0.  1.
        -12    1    3    3    0    0  0.14515069698E+02  0.40658027686E+02  0.11755507548E+02  0.44743205310E+02  0.00000000000E+00 0.  1.
</event>
<event>
 7    1  0.2669610E-015  0.9000773E+02  0.7816164E-02  0.1186339E+00
        -11   -1    0    0    0    0  0.00000000000E+00  0.00000000000E+00  0.45593999997E+02  0.45594000000E+02  0.51100000000E-03 0. -1.
         11   -1    0    0    0    0 -0.00000000000E+00 -0.00000000000E+00 -0.45593999997E+02  0.45594000000E+02  0.51100000000E-03 0.  1.
    9900012    2    1    2    0    0 -0.29307965792E+00  0.39118892617E+00 -0.10742976653E+01  0.90007728872E+02  0.89999990093E+02 0.  0.
         12    1    1    2    0    0  0.29307965792E+00 -0.39118892617E+00  0.10742976653E+01  0.11802711280E+01  0.00000000000E+00 0. -1.
         11    1    3    3    0    0  0.22891882316E+02 -0.16982704631E+02  0.21383576837E+02  0.35632960741E+02  0.51100000000E-03 0. -1.
        -11    1    3    3    0    0  0.71521281063E+01 -0.51823583421E+01  0.23728250501E+01  0.91454947058E+01  0.51100000000E-03 0.  1.
        -12    1    3    3    0    0 -0.30337090081E+02  0.22556251899E+02 -0.24830699553E+02  0.45229273425E+02  0.00000000000E+00 0.  1.
</event>
<event>
 7    1  0.2084210E-015  0.9000772E+02  0.7816164E-02  0.1186339E+00
        -11   -1    0    0    0    0  0.00000000000E+00  0.00000000000E+00  0.45593999997E+02  0.45594000000E+02  0.51100000000E-03 0. -1.
         11   -1    0    0    0    0 -0.00000000000E+00 -0.00000000000E+00 -0.45593999997E+02  0.45594000000E+02  0.51100000000E-03 0.  1.
    9900012    2    1    2    0    0 -0.33493590326E+00 -0.11309770527E+01 -0.42181101880E-01  0.90007715967E+02  0.89999977018E+02 0.  0.
         12    1    1    2    0    0  0.33493590326E+00  0.11309770527E+01  0.42181101880E-01  0.11802840329E+01  0.00000000000E+00 0. -1.
         11    1    3    3    0    0 -0.36886431213E+02 -0.16031652431E+02  0.85528776639E+01  0.41119027273E+02  0.51100000000E-03 0. -1.
        -11    1    3    3    0    0  0.52687620754E+01 -0.65251702532E+01  0.35026580833E+01  0.90888016014E+01  0.51100000000E-03 0.  1.
        -12    1    3    3    0    0  0.31282733234E+02  0.21425845631E+02 -0.12097716849E+02  0.39799887093E+02  0.00000000000E+00 0.  1.
</event>
<event>
 8    1  0.2084210E-015  0.9000741E+02  0.7816164E-02  0.1186340E+00
        -11   -1    0    0    0    0  0.00000000000E+00  0.00000000000E+00  0.45593999997E+02  0.45594000000E+02  0.51100000000E-03 0. -1.
         11   -1    0    0    0    0 -0.00000000000E+00 -0.00000000000E+00 -0.45593999997E+02  0.45594000000E+02  0.51100000000E-03 0.  1.
    9900012    2    1    2    0    0 -0.69255828042E+00  0.93814121928E+00  0.18451742736E+00  0.90007410063E+02  0.89999667075E+02 0.  0.
         23    2    3    3    0    0  0.86901606756E+00 -0.24377618727E+02 -0.11762097266E+02  0.61970865719E+02  0.55740629545E+02 0.  0.
         12    1    1    2    0    0  0.69255828042E+00 -0.93814121928E+00 -0.18451742736E+00  0.11805899373E+01  0.00000000000E+00 0. -1.
         11    1    4    4    0    0  0.26762263808E+02 -0.13895453359E+02  0.31266602093E+01  0.30316305720E+02  0.51100000000E-03 0. -1.
        -11    1    4    4    0    0 -0.25893247740E+02 -0.10482165368E+02 -0.14888757475E+02  0.31654559999E+02  0.51100000000E-03 0.  1.
        -12    1    3    3    0    0 -0.15615743480E+01  0.25315759946E+02  0.11946614693E+02  0.28036544344E+02  0.00000000000E+00 0.  1.
</event>
<event>
 7    1  0.2084210E-015  0.9000771E+02  0.7816164E-02  0.1186339E+00
        -11   -1    0    0    0    0  0.00000000000E+00  0.00000000000E+00  0.45593999997E+02  0.45594000000E+02  0.51100000000E-03 0. -1.
         11   -1    0    0    0    0 -0.00000000000E+00 -0.00000000000E+00 -0.45593999997E+02  0.45594000000E+02  0.51100000000E-03 0.  1.
    9900012    2    1    2    0    0 -0.11733299799E+01  0.10796477596E-01 -0.12756876142E+00  0.90007706141E+02  0.89999967062E+02 0.  0.
         12    1    1    2    0    0  0.11733299799E+01 -0.10796477596E-01  0.12756876142E+00  0.11802938594E+01  0.00000000000E+00 0. -1.
         11    1    3    3    0    0 -0.88967990653E+01  0.59677159348E+01 -0.10695015467E+01  0.10766173921E+02  0.51100000000E-03 0. -1.
        -11    1    3    3    0    0 -0.33433712087E+02  0.80794747370E+01  0.76655894526E+01  0.35239924487E+02  0.51100000000E-03 0.  1.
         12    1    3    3    0    0  0.41157181172E+02 -0.14036394194E+02 -0.67236566673E+01  0.44001607732E+02  0.00000000000E+00 0. -1.
</event>
<event>
 7    1  0.2084210E-015  0.9000796E+02  0.7816164E-02  0.1186339E+00
        -11   -1    0    0    0    0  0.00000000000E+00  0.00000000000E+00  0.45593999997E+02  0.45594000000E+02  0.51100000000E-03 0. -1.
         11   -1    0    0    0    0 -0.00000000000E+00 -0.00000000000E+00 -0.45593999997E+02  0.45594000000E+02  0.51100000000E-03 0.  1.
    9900012    2    1    2    0    0  0.28015953449E+00 -0.52768938837E+00 -0.10176241685E+01  0.90007955762E+02  0.90000219978E+02 0.  0.
         12    1    1    2    0    0 -0.28015953449E+00  0.52768938837E+00  0.10176241685E+01  0.11800442380E+01  0.00000000000E+00 0. -1.
         11    1    3    3    0    0 -0.52521096927E+01 -0.74344394707E+01 -0.59141939304E+01  0.10855101869E+02  0.51100000000E-03 0. -1.
        -11    1    3    3    0    0 -0.35795297148E+02 -0.41691036606E+01 -0.40573867986E+00  0.36039552542E+02  0.51100000000E-03 0.  1.
         12    1    3    3    0    0  0.41327566375E+02  0.11075853743E+02  0.53023084418E+01  0.43113301352E+02  0.00000000000E+00 0. -1.
</event>
<event>
 7    1  0.2084210E-015  0.9000801E+02  0.7816164E-02  0.1186339E+00
        -11   -1    0    0    0    0  0.00000000000E+00  0.00000000000E+00  0.45593999997E+02  0.45594000000E+02  0.51100000000E-03 0.  1.
         11   -1    0    0    0    0 -0.00000000000E+00 -0.00000000000E+00 -0.45593999997E+02  0.45594000000E+02  0.51100000000E-03 0. -1.
    9900012    2    1    2    0    0  0.60776151326E+00  0.78422580343E+00  0.63874060722E+00  0.90008011131E+02  0.90000276077E+02 0.  0.
         12    1    1    2    0    0 -0.60776151326E+00 -0.78422580343E+00 -0.63874060722E+00  0.11799888691E+01  0.00000000000E+00 0. -1.
         11    1    3    3    0    0 -0.18355792461E+02  0.32521075818E+02  0.39158969811E+01  0.37548498487E+02  0.51100000000E-03 0. -1.
        -11    1    3    3    0    0  0.45190629351E+00  0.37616230658E+01  0.96676353019E+01  0.10383506151E+02  0.51100000000E-03 0.  1.
        -12    1    3    3    0    0  0.18511647681E+02 -0.35498473080E+02 -0.12944791676E+02  0.42076006493E+02  0.00000000000E+00 0.  1.
</event>
<event>
 7    1  0.2084210E-015  0.9000774E+02  0.7816164E-02  0.1186339E+00
        -11   -1    0    0    0    0  0.00000000000E+00  0.00000000000E+00  0.45593999997E+02  0.45594000000E+02  0.51100000000E-03 0.  1.
         11   -1    0    0    0    0 -0.00000000000E+00 -0.00000000000E+00 -0.45593999997E+02  0.45594000000E+02  0.51100000000E-03 0. -1.
    9900012    2    1    2    0    0  0.91428458614E+00  0.62415828685E+00  0.40930768648E+00  0.90007736193E+02  0.89999997511E+02 0.  0.
         12    1    1    2    0    0 -0.91428458614E+00 -0.62415828685E+00 -0.40930768648E+00  0.11802638068E+01  0.00000000000E+00 0. -1.
         11    1    3    3    0    0 -0.40964988995E+01  0.28931965673E+01  0.89758737625E+01  0.10281935599E+02  0.51100000000E-03 0. -1.
        -11    1    3    3    0    0  0.89175697283E+01  0.49149493942E+01  0.34458014933E+02  0.35930969522E+02  0.51100000000E-03 0.  1.
         12    1    3    3    0    0 -0.39067862427E+01 -0.71839876746E+01 -0.43024581009E+02  0.43794831072E+02  0.00000000000E+00 0. -1.
</event>
<event>
 7    1  0.2084210E-015  0.9000776E+02  0.7816164E-02  0.1186339E+00
        -11   -1    0    0    0    0  0.00000000000E+00  0.00000000000E+00  0.45593999997E+02  0.45594000000E+02  0.51100000000E-03 0.  1.
         11   -1    0    0    0    0 -0.00000000000E+00 -0.00000000000E+00 -0.45593999997E+02  0.45594000000E+02  0.51100000000E-03 0. -1.
    9900012    2    1    2    0    0 -0.12138933144E+00  0.24731822359E+00  0.11476307326E+01  0.90007763595E+02  0.90000025274E+02 0.  0.
         12    1    1    2    0    0  0.12138933144E+00 -0.24731822359E+00 -0.11476307326E+01  0.11802364051E+01  0.00000000000E+00 0. -1.
         11    1    3    3    0    0  0.34146037329E+02  0.13958201912E+02 -0.78505257201E+01  0.37714904484E+02  0.51100000000E-03 0. -1.
        -11    1    3    3    0    0 -0.13444743053E+01  0.91828333963E+01 -0.40458552486E+01  0.10124277026E+02  0.51100000000E-03 0.  1.
        -12    1    3    3    0    0 -0.32922952356E+02 -0.22893717085E+02  0.13044011701E+02  0.42168582085E+02  0.00000000000E+00 0.  1.
</event>
<event>
 7    1  0.2084210E-015  0.9000770E+02  0.7816164E-02  0.1186339E+00
        -11   -1    0    0    0    0  0.00000000000E+00  0.00000000000E+00  0.45593999997E+02  0.45594000000E+02  0.51100000000E-03 0. -1.
         11   -1    0    0    0    0 -0.00000000000E+00 -0.00000000000E+00 -0.45593999997E+02  0.45594000000E+02  0.51100000000E-03 0.  1.
    9900012    2    1    2    0    0 -0.78602856052E+00  0.66983371218E+00 -0.57148654862E+00  0.90007697083E+02  0.89999957885E+02 0.  0.
         12    1    1    2    0    0  0.78602856052E+00 -0.66983371218E+00  0.57148654862E+00  0.11803029167E+01  0.00000000000E+00 0. -1.
         11    1    3    3    0    0 -0.68902574970E+01  0.24041174202E+01  0.82415180004E+01  0.11008090123E+02  0.51100000000E-03 0. -1.
        -11    1    3    3    0    0 -0.12200680953E+02  0.23562785245E+02 -0.30917345955E+02  0.40742407211E+02  0.51100000000E-03 0.  1.
         12    1    3    3    0    0  0.18304909889E+02 -0.25297068953E+02  0.22104341406E+02  0.38257199749E+02  0.00000000000E+00 0. -1.
</event>
<event>
 7    1  0.2084210E-015  0.9000774E+02  0.7816164E-02  0.1186339E+00
        -11   -1    0    0    0    0  0.00000000000E+00  0.00000000000E+00  0.45593999997E+02  0.45594000000E+02  0.51100000000E-03 0. -1.
         11   -1    0    0    0    0 -0.00000000000E+00 -0.00000000000E+00 -0.45593999997E+02  0.45594000000E+02  0.51100000000E-03 0.  1.
    9900012    2    1    2    0    0 -0.89710448584E-01 -0.76127349631E+00 -0.89745370561E+00  0.90007742208E+02  0.90000003606E+02 0.  0.
         12    1    1    2    0    0  0.89710448584E-01  0.76127349631E+00  0.89745370561E+00  0.11802577915E+01  0.00000000000E+00 0. -1.
         11    1    3    3    0    0  0.32104630457E+02  0.13771390761E+02  0.19299453534E+02  0.39910241884E+02  0.51100000000E-03 0. -1.
        -11    1    3    3    0    0 -0.61936010537E+01 -0.15559238041E+02  0.64439327731E+00  0.16759052043E+02  0.51100000000E-03 0.  1.
        -12    1    3    3    0    0 -0.26000739852E+02  0.10265737838E+01 -0.20841300517E+02  0.33338448281E+02  0.00000000000E+00 0.  1.
</event>
<event>
 7    1  0.2084210E-015  0.9000781E+02  0.7816164E-02  0.1186339E+00
        -11   -1    0    0    0    0  0.00000000000E+00  0.00000000000E+00  0.45593999997E+02  0.45594000000E+02  0.51100000000E-03 0. -1.
         11   -1    0    0    0    0 -0.00000000000E+00 -0.00000000000E+00 -0.45593999997E+02  0.45594000000E+02  0.51100000000E-03 0.  1.
    9900012    2    1    2    0    0  0.46816249336E+00  0.76930204095E+00 -0.76278585765E+00  0.90007811873E+02  0.90000074190E+02 0.  0.
         12    1    1    2    0    0 -0.46816249336E+00 -0.76930204095E+00  0.76278585765E+00  0.11801881270E+01  0.00000000000E+00 0. -1.
         11    1    3    3    0    0 -0.37124901931E+02 -0.26751462175E+01  0.22433523357E+01  0.37288703124E+02  0.51100000000E-03 0. -1.
        -11    1    3    3    0    0 -0.54390719358E+01 -0.31923199016E+01 -0.64767877570E+01  0.90400879303E+01  0.51100000000E-03 0.  1.
        -12    1    3    3    0    0  0.43032136360E+02  0.66367681600E+01  0.34706495636E+01  0.43679020819E+02  0.00000000000E+00 0.  1.
</event>
<event>
 7    1  0.2084210E-015  0.9000778E+02  0.7816164E-02  0.1186339E+00
        -11   -1    0    0    0    0  0.00000000000E+00  0.00000000000E+00  0.45593999997E+02  0.45594000000E+02  0.51100000000E-03 0. -1.
         11   -1    0    0    0    0 -0.00000000000E+00 -0.00000000000E+00 -0.45593999997E+02  0.45594000000E+02  0.51100000000E-03 0.  1.
    9900012    2    1    2    0    0  0.53966205867E+00 -0.44933074454E+00 -0.94857445163E+00  0.90007776824E+02  0.90000038678E+02 0.  0.
         12    1    1    2    0    0 -0.53966205867E+00  0.44933074454E+00  0.94857445163E+00  0.11802231763E+01  0.00000000000E+00 0. -1.
         11    1    3    3    0    0  0.24259603550E+02  0.29926818987E+02 -0.14897062571E+02  0.41304543728E+02  0.51100000000E-03 0. -1.
        -11    1    3    3    0    0 -0.70038554465E+01  0.39872043934E+01  0.10625651699E+00  0.80599677852E+01  0.51100000000E-03 0.  1.
        -12    1    3    3    0    0 -0.16716086045E+02 -0.34363354124E+02  0.13842231602E+02  0.40643265310E+02  0.00000000000E+00 0.  1.
</event>
<event>
 7    1  0.2084210E-015  0.9000771E+02  0.7816164E-02  0.1186339E+00
        -11   -1    0    0    0    0  0.00000000000E+00  0.00000000000E+00  0.45593999997E+02  0.45594000000E+02  0.51100000000E-03 0. -1.
         11   -1    0    0    0    0 -0.00000000000E+00 -0.00000000000E+00 -0.45593999997E+02  0.45594000000E+02  0.51100000000E-03 0.  1.
    9900012    2    1    2    0    0 -0.82785825723E+00  0.54939351952E-02  0.84125380597E+00  0.90007708746E+02  0.89999969702E+02 0.  0.
         12    1    1    2    0    0  0.82785825723E+00 -0.54939351952E-02 -0.84125380597E+00  0.11802912536E+01  0.00000000000E+00 0. -1.
         11    1    3    3    0    0  0.14927832927E+01  0.12534417824E+01 -0.95288831265E+01  0.97262085193E+01  0.51100000000E-03 0. -1.
        -11    1    3    3    0    0 -0.40571313438E+02 -0.51678763735E+01  0.85764523483E+01  0.41788682145E+02  0.51100000000E-03 0.  1.
         12    1    3    3    0    0  0.38250671888E+02  0.39199285263E+01  0.17936845842E+01  0.38492818082E+02  0.00000000000E+00 0. -1.
</event>
<event>
 7    1  0.2084210E-015  0.9000779E+02  0.7816164E-02  0.1186339E+00
        -11   -1    0    0    0    0  0.00000000000E+00  0.00000000000E+00  0.45593999997E+02  0.45594000000E+02  0.51100000000E-03 0.  1.
         11   -1    0    0    0    0 -0.00000000000E+00 -0.00000000000E+00 -0.45593999997E+02  0.45594000000E+02  0.51100000000E-03 0. -1.
    9900012    2    1    2    0    0 -0.10307596177E+01 -0.37703709045E+00  0.43389375678E+00  0.90007794023E+02  0.90000056104E+02 0.  0.
         12    1    1    2    0    0  0.10307596177E+01  0.37703709045E+00 -0.43389375678E+00  0.11802059774E+01  0.00000000000E+00 0. -1.
         11    1    3    3    0    0 -0.13613540409E+02  0.62858216794E+01 -0.11920049685E+01  0.15041971704E+02  0.51100000000E-03 0. -1.
        -11    1    3    3    0    0 -0.13294945510E+02  0.22067312002E+01  0.31619019399E+02  0.34371319828E+02  0.51100000000E-03 0.  1.
         12    1    3    3    0    0  0.25877726301E+02 -0.88695899701E+01 -0.29993120674E+02  0.40594502491E+02  0.00000000000E+00 0. -1.
</event>
<event>
 7    1  0.2084210E-015  0.9000747E+02  0.7816164E-02  0.1186340E+00
        -11   -1    0    0    0    0  0.00000000000E+00  0.00000000000E+00  0.45593999997E+02  0.45594000000E+02  0.51100000000E-03 0. -1.
         11   -1    0    0    0    0 -0.00000000000E+00 -0.00000000000E+00 -0.45593999997E+02  0.45594000000E+02  0.51100000000E-03 0.  1.
    9900012    2    1    2    0    0 -0.10070957866E+01 -0.57429697717E-01 -0.61327725239E+00  0.90007470847E+02  0.89999728661E+02 0.  0.
         12    1    1    2    0    0  0.10070957866E+01  0.57429697717E-01  0.61327725239E+00  0.11805291533E+01  0.00000000000E+00 0. -1.
         11    1    3    3    0    0 -0.16638506635E+01  0.16642834824E+01  0.25834408161E+02  0.25941373977E+02  0.51100000000E-03 0. -1.
        -11    1    3    3    0    0  0.86857218086E+01 -0.56240940534E+00  0.17409993645E+02  0.19464479100E+02  0.51100000000E-03 0.  1.
        -12    1    3    3    0    0 -0.80289669317E+01 -0.11593037748E+01 -0.43857679058E+02  0.44601617769E+02  0.00000000000E+00 0.  1.
</event>
<event>
 7    1  0.2084210E-015  0.9000766E+02  0.7816164E-02  0.1186339E+00
        -11   -1    0    0    0    0  0.00000000000E+00  0.00000000000E+00  0.45593999997E+02  0.45594000000E+02  0.51100000000E-03 0.  1.
         11   -1    0    0    0    0 -0.00000000000E+00 -0.00000000000E+00 -0.45593999997E+02  0.45594000000E+02  0.51100000000E-03 0. -1.
    9900012    2    1    2    0    0 -0.23809790712E+00  0.32053062927E-01  0.11556348877E+01  0.90007656827E+02  0.89999917097E+02 0.  0.
         12    1    1    2    0    0  0.23809790712E+00 -0.32053062927E-01 -0.11556348877E+01  0.11803431730E+01  0.00000000000E+00 0. -1.
         11    1    3    3    0    0  0.14412086072E+02  0.32141516985E+02  0.13677772372E+02  0.37787124743E+02  0.51100000000E-03 0. -1.
        -11    1    3    3    0    0  0.58641864433E+01 -0.16336407182E+01  0.80678736011E+01  0.10106831815E+02  0.51100000000E-03 0.  1.
        -12    1    3    3    0    0 -0.20514370422E+02 -0.30475823204E+02 -0.20590011086E+02  0.42113700268E+02  0.00000000000E+00 0.  1.
</event>
<event>
 7    1  0.2084210E-015  0.9000768E+02  0.7816164E-02  0.1186339E+00
        -11   -1    0    0    0    0  0.00000000000E+00  0.00000000000E+00  0.45593999997E+02  0.45594000000E+02  0.51100000000E-03 0. -1.
         11   -1    0    0    0    0 -0.00000000000E+00 -0.00000000000E+00 -0.45593999997E+02  0.45594000000E+02  0.51100000000E-03 0.  1.
    9900012    2    1    2    0    0  0.55007171798E+00  0.30894693076E+00 -0.99755936018E+00  0.90007681493E+02  0.89999942089E+02 0.  0.
         12    1    1    2    0    0 -0.55007171798E+00 -0.30894693076E+00  0.99755936018E+00  0.11803185070E+01  0.00000000000E+00 0. -1.
         11    1    3    3    0    0  0.22872439162E+02 -0.78681568606E+01  0.35458986311E+02  0.42923141498E+02  0.51100000000E-03 0. -1.
        -11    1    3    3    0    0  0.28302346442E+01  0.28523485745E+01 -0.60865156914E+01  0.72932704635E+01  0.51100000000E-03 0.  1.
        -12    1    3    3    0    0 -0.25152602089E+02  0.53247552169E+01 -0.30370029980E+02  0.39791269531E+02  0.00000000000E+00 0.  1.
</event>
<event>
 7    1  0.2084210E-015  0.9000773E+02  0.7816164E-02  0.1186339E+00
        -11   -1    0    0    0    0  0.00000000000E+00  0.00000000000E+00  0.45593999997E+02  0.45594000000E+02  0.51100000000E-03 0.  1.
         11   -1    0    0    0    0 -0.00000000000E+00 -0.00000000000E+00 -0.45593999997E+02  0.45594000000E+02  0.51100000000E-03 0. -1.
    9900012    2    1    2    0    0  0.20408734295E+00 -0.88217189799E+00  0.75707751285E+00  0.90007726616E+02  0.89999987807E+02 0.  0.
         12    1    1    2    0    0 -0.20408734295E+00  0.88217189799E+00 -0.75707751285E+00  0.11802733843E+01  0.00000000000E+00 0. -1.
         11    1    3    3    0    0 -0.87195445074E+01 -0.20626672003E+01 -0.37406297461E+01  0.97096531120E+01  0.51100000000E-03 0. -1.
        -11    1    3    3    0    0 -0.45995686267E+01  0.39225209481E+02  0.57018193276E+01  0.39903431360E+02  0.51100000000E-03 0.  1.
         12    1    3    3    0    0  0.13523200477E+02 -0.38044714179E+02 -0.12041120686E+01  0.40394642144E+02  0.00000000000E+00 0. -1.
</event>
<event>
 7    1  0.2084210E-015  0.9000767E+02  0.7816164E-02  0.1186339E+00
        -11   -1    0    0    0    0  0.00000000000E+00  0.00000000000E+00  0.45593999997E+02  0.45594000000E+02  0.51100000000E-03 0.  1.
         11   -1    0    0    0    0 -0.00000000000E+00 -0.00000000000E+00 -0.45593999997E+02  0.45594000000E+02  0.51100000000E-03 0. -1.
    9900012    2    1    2    0    0  0.38787655121E+00  0.52295662205E+00  0.98450473283E+00  0.90007668938E+02  0.89999929368E+02 0.  0.
         12    1    1    2    0    0 -0.38787655121E+00 -0.52295662205E+00 -0.98450473283E+00  0.11803310622E+01  0.00000000000E+00 0. -1.
         11    1    3    3    0    0 -0.19201816728E+02 -0.32163322415E+02  0.15147376847E+01  0.37489778673E+02  0.51100000000E-03 0. -1.
        -11    1    3    3    0    0  0.44625293767E+01 -0.58469889352E+01 -0.75388483599E+01  0.10532600956E+02  0.51100000000E-03 0.  1.
        -12    1    3    3    0    0  0.15127163903E+02  0.38533267972E+02  0.70086154080E+01  0.41985289308E+02  0.00000000000E+00 0.  1.
</event>
<event>
 7    1  0.2084210E-015  0.9000765E+02  0.7816164E-02  0.1186339E+00
        -11   -1    0    0    0    0  0.00000000000E+00  0.00000000000E+00  0.45593999997E+02  0.45594000000E+02  0.51100000000E-03 0.  1.
         11   -1    0    0    0    0 -0.00000000000E+00 -0.00000000000E+00 -0.45593999997E+02  0.45594000000E+02  0.51100000000E-03 0. -1.
    9900012    2    1    2    0    0 -0.54166234157E+00  0.20058073324E+00  0.10293628516E+01  0.90007653185E+02  0.89999913407E+02 0.  0.
         12    1    1    2    0    0  0.54166234157E+00 -0.20058073324E+00 -0.10293628516E+01  0.11803468147E+01  0.00000000000E+00 0. -1.
         11    1    3    3    0    0  0.12122192673E+02  0.15517337500E+02  0.27114335380E+01  0.19876800305E+02  0.51100000000E-03 0. -1.
        -11    1    3    3    0    0 -0.39200370539E+01  0.37509592195E+01  0.30904033838E+02  0.31376674350E+02  0.51100000000E-03 0.  1.
         12    1    3    3    0    0 -0.87438179605E+01 -0.19067715986E+02 -0.32586104524E+02  0.38754178530E+02  0.00000000000E+00 0. -1.
</event>
<event>
 7    1  0.2084210E-015  0.9000779E+02  0.7816164E-02  0.1186339E+00
        -11   -1    0    0    0    0  0.00000000000E+00  0.00000000000E+00  0.45593999997E+02  0.45594000000E+02  0.51100000000E-03 0. -1.
         11   -1    0    0    0    0 -0.00000000000E+00 -0.00000000000E+00 -0.45593999997E+02  0.45594000000E+02  0.51100000000E-03 0.  1.
    9900012    2    1    2    0    0 -0.28317902443E+00  0.82100845169E-01 -0.11427842411E+01  0.90007793776E+02  0.90000055854E+02 0.  0.
         12    1    1    2    0    0  0.28317902443E+00 -0.82100845169E-01  0.11427842411E+01  0.11802062237E+01  0.00000000000E+00 0. -1.
         11    1    3    3    0    0 -0.18263894429E+02  0.30920929617E+02  0.20401539525E+02  0.41302500449E+02  0.51100000000E-03 0. -1.
        -11    1    3    3    0    0  0.67810620634E+01  0.29626157205E+01 -0.71733095189E+01  0.10306127514E+02  0.51100000000E-03 0.  1.
        -12    1    3    3    0    0  0.11199653341E+02 -0.33801444492E+02 -0.14371014247E+02  0.38399165814E+02  0.00000000000E+00 0.  1.
</event>
<event>
 7    1  0.2084210E-015  0.9000773E+02  0.7816164E-02  0.1186339E+00
        -11   -1    0    0    0    0  0.00000000000E+00  0.00000000000E+00  0.45593999997E+02  0.45594000000E+02  0.51100000000E-03 0. -1.
         11   -1    0    0    0    0 -0.00000000000E+00 -0.00000000000E+00 -0.45593999997E+02  0.45594000000E+02  0.51100000000E-03 0.  1.
    9900012    2    1    2    0    0 -0.90003400773E+00 -0.61943979641E+00  0.44640555735E+00  0.90007726812E+02  0.89999988006E+02 0.  0.
         12    1    1    2    0    0  0.90003400773E+00  0.61943979641E+00 -0.44640555735E+00  0.11802731879E+01  0.00000000000E+00 0. -1.
         11    1    3    3    0    0  0.82626448217E+01 -0.34085912822E+02 -0.50061900625E+01  0.35428557571E+02  0.51100000000E-03 0. -1.
        -11    1    3    3    0    0 -0.49178844628E+01 -0.85603776493E+01 -0.49971456239E+01  0.11065130715E+02  0.51100000000E-03 0.  1.
        -12    1    3    3    0    0 -0.42447943666E+01  0.42026850675E+02  0.10449741244E+02  0.43514038527E+02  0.00000000000E+00 0.  1.
</event>
<event>
 7    1  0.2084210E-015  0.9000771E+02  0.7816164E-02  0.1186339E+00
        -11   -1    0    0    0    0  0.00000000000E+00  0.00000000000E+00  0.45593999997E+02  0.45594000000E+02  0.51100000000E-03 0.  1.
         11   -1    0    0    0    0 -0.00000000000E+00 -0.00000000000E+00 -0.45593999997E+02  0.45594000000E+02  0.51100000000E-03 0. -1.
    9900012    2    1    2    0    0  0.62034816581E+00  0.25785004600E+00 -0.97044867923E+00  0.90007708031E+02  0.89999968977E+02 0.  0.
         12    1    1    2    0    0 -0.62034816581E+00 -0.25785004600E+00  0.97044867923E+00  0.11802919690E+01  0.00000000000E+00 0. -1.
         11    1    3    3    0    0  0.24611216055E+02 -0.13101824009E+02 -0.27391222021E+02  0.39085147974E+02  0.51100000000E-03 0. -1.
        -11    1    3    3    0    0  0.28336669126E+01 -0.84734779654E+01  0.49717920008E+01  0.10224882051E+02  0.51100000000E-03 0.  1.
        -12    1    3    3    0    0 -0.26824534802E+02  0.21833152021E+02  0.21448981341E+02  0.40697678006E+02  0.00000000000E+00 0.  1.
</event>
<event>
 7    1  0.2084210E-015  0.9000788E+02  0.7816164E-02  0.1186339E+00
        -11   -1    0    0    0    0  0.00000000000E+00  0.00000000000E+00  0.45593999997E+02  0.45594000000E+02  0.51100000000E-03 0.  1.
         11   -1    0    0    0    0 -0.00000000000E+00 -0.00000000000E+00 -0.45593999997E+02  0.45594000000E+02  0.51100000000E-03 0. -1.
    9900012    2    1    2    0    0  0.25152369138E+00  0.89970492342E+00  0.72107673022E+00  0.90007879342E+02  0.90000142549E+02 0.  0.
         12    1    1    2    0    0 -0.25152369138E+00 -0.89970492342E+00 -0.72107673022E+00  0.11801206580E+01  0.00000000000E+00 0. -1.
         11    1    3    3    0    0  0.20605435018E+01  0.14019195327E+01 -0.74894629895E+01  0.78932423016E+01  0.51100000000E-03 0. -1.
        -11    1    3    3    0    0 -0.38065838302E+02  0.76510180730E+01  0.19263999772E+02  0.43343371012E+02  0.51100000000E-03 0.  1.
         12    1    3    3    0    0  0.36256818492E+02 -0.81532326824E+01 -0.11053460053E+02  0.38771266028E+02  0.00000000000E+00 0. -1.
</event>
<event>
 7    1  0.2084210E-015  0.9000774E+02  0.7816164E-02  0.1186339E+00
        -11   -1    0    0    0    0  0.00000000000E+00  0.00000000000E+00  0.45593999997E+02  0.45594000000E+02  0.51100000000E-03 0.  1.
         11   -1    0    0    0    0 -0.00000000000E+00 -0.00000000000E+00 -0.45593999997E+02  0.45594000000E+02  0.51100000000E-03 0. -1.
    9900012    2    1    2    0    0 -0.33549186811E+00 -0.10901529032E+01  0.30335764539E+00  0.90007739856E+02  0.90000001222E+02 0.  0.
         12    1    1    2    0    0  0.33549186811E+00  0.10901529032E+01 -0.30335764539E+00  0.11802601438E+01  0.00000000000E+00 0. -1.
         11    1    3    3    0    0  0.11117917875E+02  0.38930771197E+01  0.45762682475E+01  0.12637498909E+02  0.51100000000E-03 0. -1.
        -11    1    3    3    0    0  0.26282877554E+02  0.17670775622E+02 -0.94552791276E+01  0.33052205180E+02  0.51100000000E-03 0.  1.
         12    1    3    3    0    0 -0.37736287297E+02 -0.22654005645E+02  0.51823685255E+01  0.44318035767E+02  0.00000000000E+00 0. -1.
</event>
<event>
 7    1  0.2084210E-015  0.9000764E+02  0.7816164E-02  0.1186339E+00
        -11   -1    0    0    0    0  0.00000000000E+00  0.00000000000E+00  0.45593999997E+02  0.45594000000E+02  0.51100000000E-03 0.  1.
         11   -1    0    0    0    0 -0.00000000000E+00 -0.00000000000E+00 -0.45593999997E+02  0.45594000000E+02  0.51100000000E-03 0. -1.
    9900012    2    1    2    0    0  0.61666295306E-01  0.28136576004E+00  0.11446696981E+01  0.90007644909E+02  0.89999905022E+02 0.  0.
         12    1    1    2    0    0 -0.61666295306E-01 -0.28136576004E+00 -0.11446696981E+01  0.11803550909E+01  0.00000000000E+00 0. -1.
         11    1    3    3    0    0 -0.15558882494E+01 -0.10096165183E+01  0.81732208573E+01  0.83810293641E+01  0.51100000000E-03 0. -1.
        -11    1    3    3    0    0  0.37745794485E+01 -0.63449002214E+01  0.36572105134E+02  0.37309838957E+02  0.51100000000E-03 0.  1.
         12    1    3    3    0    0 -0.21570249038E+01  0.76358824998E+01 -0.43600656293E+02  0.44316776588E+02  0.00000000000E+00 0. -1.
</event>
<event>
 7    1  0.2084210E-015  0.9000777E+02  0.7816164E-02  0.1186339E+00
        -11   -1    0    0    0    0  0.00000000000E+00  0.00000000000E+00  0.45593999997E+02  0.45594000000E+02  0.51100000000E-03 0. -1.
         11   -1    0    0    0    0 -0.00000000000E+00 -0.00000000000E+00 -0.45593999997E+02  0.45594000000E+02  0.51100000000E-03 0.  1.
    9900012    2    1    2    0    0  0.32855752196E-01 -0.55745196105E+00 -0.10397655075E+01  0.90007769302E+02  0.90000031057E+02 0.  0.
         12    1    1    2    0    0 -0.32855752196E-01  0.55745196105E+00  0.10397655075E+01  0.11802306977E+01  0.00000000000E+00 0. -1.
         11    1    3    3    0    0  0.93864263488E+01 -0.11636055260E+01  0.47126952461E+00  0.94700091155E+01  0.51100000000E-03 0. -1.
        -11    1    3    3    0    0  0.29407937201E+02  0.16282018882E+02 -0.14710589012E+02  0.36692401647E+02  0.51100000000E-03 0.  1.
         12    1    3    3    0    0 -0.38761507798E+02 -0.15675865317E+02  0.13199553980E+02  0.43845358540E+02  0.00000000000E+00 0. -1.
</event>
<event>
 7    1  0.2084210E-015  0.9000747E+02  0.7816164E-02  0.1186340E+00
        -11   -1    0    0    0    0  0.00000000000E+00  0.00000000000E+00  0.45593999997E+02  0.45594000000E+02  0.51100000000E-03 0. -1.
         11   -1    0    0    0    0 -0.00000000000E+00 -0.00000000000E+00 -0.45593999997E+02  0.45594000000E+02  0.51100000000E-03 0.  1.
    9900012    2    1    2    0    0  0.25383384304E-01  0.45539927659E-01 -0.11793756505E+01  0.90007472522E+02  0.89999730359E+02 0.  0.
         12    1    1    2    0    0 -0.25383384304E-01 -0.45539927659E-01  0.11793756505E+01  0.11805274780E+01  0.00000000000E+00 0. -1.
         11    1    3    3    0    0 -0.28599158159E+02 -0.17088320427E+02  0.18495217150E+02  0.38105060033E+02  0.51100000000E-03 0. -1.
        -11    1    3    3    0    0  0.53087967637E+00  0.11976351651E+01  0.87679486202E+01  0.88652741913E+01  0.51100000000E-03 0.  1.
        -12    1    3    3    0    0  0.28093661867E+02  0.15936225190E+02 -0.28442541421E+02  0.43037138298E+02  0.00000000000E+00 0.  1.
</event>
<event>
 7    1  0.2084210E-015  0.9000758E+02  0.7816164E-02  0.1186339E+00
        -11   -1    0    0    0    0  0.00000000000E+00  0.00000000000E+00  0.45593999997E+02  0.45594000000E+02  0.51100000000E-03 0.  1.
         11   -1    0    0    0    0 -0.00000000000E+00 -0.00000000000E+00 -0.45593999997E+02  0.45594000000E+02  0.51100000000E-03 0. -1.
    9900012    2    1    2    0    0  0.46683724912E-01 -0.11653786455E+01 -0.18197365558E+00  0.90007575852E+02  0.89999835053E+02 0.  0.
         12    1    1    2    0    0 -0.46683724912E-01  0.11653786455E+01  0.18197365558E+00  0.11804241479E+01  0.00000000000E+00 0. -1.
         11    1    3    3    0    0  0.23281536935E+02 -0.24150699887E+02 -0.24847410529E+02  0.41745419837E+02  0.51100000000E-03 0. -1.
        -11    1    3    3    0    0  0.55496846019E+01  0.52762568658E+01  0.52770183494E+01  0.92997208891E+01  0.51100000000E-03 0.  1.
        -12    1    3    3    0    0 -0.28784537812E+02  0.17709064375E+02  0.19388418524E+02  0.38962435126E+02  0.00000000000E+00 0.  1.
</event>
<event>
 7    1  0.2084210E-015  0.9000766E+02  0.7816164E-02  0.1186339E+00
        -11   -1    0    0    0    0  0.00000000000E+00  0.00000000000E+00  0.45593999997E+02  0.45594000000E+02  0.51100000000E-03 0. -1.
         11   -1    0    0    0    0 -0.00000000000E+00 -0.00000000000E+00 -0.45593999997E+02  0.45594000000E+02  0.51100000000E-03 0.  1.
    9900012    2    1    2    0    0  0.13182657141E+00 -0.67696798042E+00 -0.95788376893E+00  0.90007658860E+02  0.89999919157E+02 0.  0.
         12    1    1    2    0    0 -0.13182657141E+00  0.67696798042E+00  0.95788376893E+00  0.11803411398E+01  0.00000000000E+00 0. -1.
         11    1    3    3    0    0 -0.76277633387E+01 -0.31613026857E+01  0.26296677406E+01  0.86655502369E+01  0.51100000000E-03 0. -1.
        -11    1    3    3    0    0  0.16850370924E+02 -0.27327720216E+02 -0.27329436146E+02  0.42162037105E+02  0.51100000000E-03 0.  1.
         12    1    3    3    0    0 -0.90907810142E+01  0.29812054922E+02  0.23741884637E+02  0.39180071518E+02  0.00000000000E+00 0. -1.
</event>
<event>
 7    1  0.2084210E-015  0.9000771E+02  0.7816164E-02  0.1186339E+00
        -11   -1    0    0    0    0  0.00000000000E+00  0.00000000000E+00  0.45593999997E+02  0.45594000000E+02  0.51100000000E-03 0.  1.
         11   -1    0    0    0    0 -0.00000000000E+00 -0.00000000000E+00 -0.45593999997E+02  0.45594000000E+02  0.51100000000E-03 0. -1.
    9900012    2    1    2    0    0 -0.37996963671E+00 -0.44415090693E+00  0.10253974753E+01  0.90007708962E+02  0.89999969920E+02 0.  0.
         12    1    1    2    0    0  0.37996963671E+00  0.44415090693E+00 -0.10253974753E+01  0.11802910384E+01  0.00000000000E+00 0. -1.
         11    1    3    3    0    0 -0.30858792507E+02 -0.25336075964E+02  0.61178565966E+01  0.40393192370E+02  0.51100000000E-03 0. -1.
        -11    1    3    3    0    0 -0.30486817940E+00  0.31518215516E+01  0.88750190804E+01  0.94229978053E+01  0.51100000000E-03 0.  1.
        -12    1    3    3    0    0  0.30783691050E+02  0.21740103505E+02 -0.13967478202E+02  0.40191518787E+02  0.00000000000E+00 0.  1.
</event>
<event>
 7    1  0.2084210E-015  0.9000775E+02  0.7816164E-02  0.1186339E+00
        -11   -1    0    0    0    0  0.00000000000E+00  0.00000000000E+00  0.45593999997E+02  0.45594000000E+02  0.51100000000E-03 0.  1.
         11   -1    0    0    0    0 -0.00000000000E+00 -0.00000000000E+00 -0.45593999997E+02  0.45594000000E+02  0.51100000000E-03 0. -1.
    9900012    2    1    2    0    0 -0.78247478626E-01  0.91198944330E+00 -0.74507200109E+00  0.90007754390E+02  0.90000015948E+02 0.  0.
         12    1    1    2    0    0  0.78247478626E-01 -0.91198944330E+00  0.74507200109E+00  0.11802456098E+01  0.00000000000E+00 0. -1.
         11    1    3    3    0    0  0.33359349905E+02  0.10670219197E+02 -0.14523838192E+02  0.37916245593E+02  0.51100000000E-03 0. -1.
        -11    1    3    3    0    0  0.69381979458E+01  0.18254872686E+01  0.60435895168E+01  0.93806166648E+01  0.51100000000E-03 0.  1.
        -12    1    3    3    0    0 -0.40375795329E+02 -0.11583717023E+02  0.77351766744E+01  0.42710892132E+02  0.00000000000E+00 0.  1.
</event>
<event>
 7    1  0.2084210E-015  0.9000757E+02  0.7816164E-02  0.1186339E+00
        -11   -1    0    0    0    0  0.00000000000E+00  0.00000000000E+00  0.45593999997E+02  0.45594000000E+02  0.51100000000E-03 0.  1.
         11   -1    0    0    0    0 -0.00000000000E+00 -0.00000000000E+00 -0.45593999997E+02  0.45594000000E+02  0.51100000000E-03 0. -1.
    9900012    2    1    2    0    0 -0.66376016828E+00 -0.92584033248E+00 -0.30927404807E+00  0.90007572823E+02  0.89999831985E+02 0.  0.
         12    1    1    2    0    0  0.66376016828E+00  0.92584033248E+00  0.30927404807E+00  0.11804271765E+01  0.00000000000E+00 0. -1.
         11    1    3    3    0    0 -0.10400055725E+02 -0.31478828362E+02  0.25532327050E+02  0.41844683282E+02  0.51100000000E-03 0. -1.
        -11    1    3    3    0    0 -0.78039270361E+01  0.42958769309E+01 -0.75045555403E+01  0.11647926421E+02  0.51100000000E-03 0.  1.
        -12    1    3    3    0    0  0.17540222593E+02  0.26257111099E+02 -0.18337045558E+02  0.36514963120E+02  0.00000000000E+00 0.  1.
</event>
<event>
 7    1  0.2084210E-015  0.9000776E+02  0.7816164E-02  0.1186339E+00
        -11   -1    0    0    0    0  0.00000000000E+00  0.00000000000E+00  0.45593999997E+02  0.45594000000E+02  0.51100000000E-03 0.  1.
         11   -1    0    0    0    0 -0.00000000000E+00 -0.00000000000E+00 -0.45593999997E+02  0.45594000000E+02  0.51100000000E-03 0. -1.
    9900012    2    1    2    0    0 -0.44565432726E+00  0.99406944187E+00  0.45406793740E+00  0.90007762936E+02  0.90000024607E+02 0.  0.
         12    1    1    2    0    0  0.44565432726E+00 -0.99406944187E+00 -0.45406793740E+00  0.11802370637E+01  0.00000000000E+00 0. -1.
         11    1    3    3    0    0 -0.70145792490E+01 -0.19409630375E+02  0.20066195802E+02  0.28785244268E+02  0.51100000000E-03 0.  1.
        -11    1    3    3    0    0  0.83803064653E+00 -0.14336801293E+02  0.80341077957E+01  0.16455790927E+02  0.51100000000E-03 0. -1.
         12    1    3    3    0    0  0.57308942752E+01  0.34740501110E+02 -0.27646235660E+02  0.44766727742E+02  0.00000000000E+00 0. -1.
</event>
<event>
 7    1  0.2084210E-015  0.9000772E+02  0.7816164E-02  0.1186339E+00
        -11   -1    0    0    0    0  0.00000000000E+00  0.00000000000E+00  0.45593999997E+02  0.45594000000E+02  0.51100000000E-03 0.  1.
         11   -1    0    0    0    0 -0.00000000000E+00 -0.00000000000E+00 -0.45593999997E+02  0.45594000000E+02  0.51100000000E-03 0. -1.
    9900012    2    1    2    0    0 -0.32585971129E+00  0.13146261486E+00  0.11267642102E+01  0.90007718442E+02  0.89999979526E+02 0.  0.
         12    1    1    2    0    0  0.32585971129E+00 -0.13146261486E+00 -0.11267642102E+01  0.11802815579E+01  0.00000000000E+00 0. -1.
         11    1    3    3    0    0 -0.26046323693E+01 -0.36002742907E+02  0.18194891922E+02  0.40423207430E+02  0.51100000000E-03 0. -1.
        -11    1    3    3    0    0 -0.66467264079E+01 -0.95804706388E+00 -0.78597816392E+01  0.10337939533E+02  0.51100000000E-03 0.  1.
        -12    1    3    3    0    0  0.89254990660E+01  0.37092252586E+02 -0.92083460728E+01  0.39246571479E+02  0.00000000000E+00 0.  1.
</event>
<event>
 7    1  0.2084210E-015  0.9000783E+02  0.7816164E-02  0.1186339E+00
        -11   -1    0    0    0    0  0.00000000000E+00  0.00000000000E+00  0.45593999997E+02  0.45594000000E+02  0.51100000000E-03 0. -1.
         11   -1    0    0    0    0 -0.00000000000E+00 -0.00000000000E+00 -0.45593999997E+02  0.45594000000E+02  0.51100000000E-03 0.  1.
    9900012    2    1    2    0    0  0.47782204445E+00 -0.17565753106E+00 -0.10647265656E+01  0.90007825380E+02  0.90000087875E+02 0.  0.
         12    1    1    2    0    0 -0.47782204445E+00  0.17565753106E+00  0.10647265656E+01  0.11801746201E+01  0.00000000000E+00 0. -1.
         11    1    3    3    0    0  0.22368630693E+01 -0.18250222859E+02  0.30177895556E+00  0.18389270284E+02  0.51100000000E-03 0. -1.
        -11    1    3    3    0    0 -0.29749341400E+02 -0.92027890646E+01 -0.75668525073E+01  0.32046402254E+02  0.51100000000E-03 0.  1.
         12    1    3    3    0    0  0.27990300376E+02  0.27277354392E+02  0.62003469861E+01  0.39572152841E+02  0.00000000000E+00 0. -1.
</event>
<event>
 7    1  0.2084210E-015  0.9000759E+02  0.7816164E-02  0.1186339E+00
        -11   -1    0    0    0    0  0.00000000000E+00  0.00000000000E+00  0.45593999997E+02  0.45594000000E+02  0.51100000000E-03 0.  1.
         11   -1    0    0    0    0 -0.00000000000E+00 -0.00000000000E+00 -0.45593999997E+02  0.45594000000E+02  0.51100000000E-03 0. -1.
    9900012    2    1    2    0    0  0.13539004369E+00 -0.11707537259E+01  0.66157209779E-01  0.90007588408E+02  0.89999847775E+02 0.  0.
         12    1    1    2    0    0 -0.13539004369E+00  0.11707537259E+01 -0.66157209779E-01  0.11804115923E+01  0.00000000000E+00 0. -1.
         11    1    3    3    0    0  0.25864989035E+01 -0.93137819989E+01  0.69747889194E+01  0.11919907400E+02  0.51100000000E-03 0. -1.
        -11    1    3    3    0    0  0.92141424136E+01 -0.27071014344E+02  0.17644988284E+02  0.33601872714E+02  0.51100000000E-03 0.  1.
         12    1    3    3    0    0 -0.11665251273E+02  0.35214042617E+02 -0.24553619994E+02  0.44485808294E+02  0.00000000000E+00 0. -1.
</event>
<event>
 7    1  0.2084210E-015  0.9000777E+02  0.7816164E-02  0.1186339E+00
        -11   -1    0    0    0    0  0.00000000000E+00  0.00000000000E+00  0.45593999997E+02  0.45594000000E+02  0.51100000000E-03 0.  1.
         11   -1    0    0    0    0 -0.00000000000E+00 -0.00000000000E+00 -0.45593999997E+02  0.45594000000E+02  0.51100000000E-03 0. -1.
    9900012    2    1    2    0    0  0.47210009338E+00  0.17918180359E+00  0.10667493138E+01  0.90007771753E+02  0.90000033540E+02 0.  0.
         12    1    1    2    0    0 -0.47210009338E+00 -0.17918180359E+00 -0.10667493138E+01  0.11802282471E+01  0.00000000000E+00 0. -1.
         11    1    3    3    0    0  0.89328684617E+01 -0.33964612949E+01  0.32709485674E+01  0.10101049108E+02  0.51100000000E-03 0. -1.
        -11    1    3    3    0    0  0.20908968358E+02 -0.13002688983E+02  0.26097439473E+02  0.35879398350E+02  0.51100000000E-03 0.  1.
         12    1    3    3    0    0 -0.29369736726E+02  0.16578332082E+02 -0.28301638727E+02  0.44027324296E+02  0.00000000000E+00 0. -1.
</event>
<event>
 7    1  0.2084210E-015  0.9000772E+02  0.7816164E-02  0.1186339E+00
        -11   -1    0    0    0    0  0.00000000000E+00  0.00000000000E+00  0.45593999997E+02  0.45594000000E+02  0.51100000000E-03 0.  1.
         11   -1    0    0    0    0 -0.00000000000E+00 -0.00000000000E+00 -0.45593999997E+02  0.45594000000E+02  0.51100000000E-03 0. -1.
    9900012    2    1    2    0    0  0.54625985731E+00 -0.69262141990E+00  0.78417152635E+00  0.90007724928E+02  0.89999986097E+02 0.  0.
         12    1    1    2    0    0 -0.54625985731E+00  0.69262141990E+00 -0.78417152635E+00  0.11802750721E+01  0.00000000000E+00 0. -1.
         11    1    3    3    0    0  0.97187573118E+01  0.12142437064E+02 -0.36359425972E+02  0.39546186653E+02  0.51100000000E-03 0. -1.
        -11    1    3    3    0    0  0.88310039813E+00  0.93120220499E+01  0.67567890523E+01  0.11538969604E+02  0.51100000000E-03 0.  1.
        -12    1    3    3    0    0 -0.10055597853E+02 -0.22147080534E+02  0.30386808446E+02  0.38922568670E+02  0.00000000000E+00 0.  1.
</event>
<event>
 7    1  0.2084210E-015  0.9000780E+02  0.7816164E-02  0.1186339E+00
        -11   -1    0    0    0    0  0.00000000000E+00  0.00000000000E+00  0.45593999997E+02  0.45594000000E+02  0.51100000000E-03 0.  1.
         11   -1    0    0    0    0 -0.00000000000E+00 -0.00000000000E+00 -0.45593999997E+02  0.45594000000E+02  0.51100000000E-03 0. -1.
    9900012    2    1    2    0    0 -0.77856694138E+00 -0.14956215943E+00  0.87426297829E+00  0.90007800408E+02  0.90000062573E+02 0.  0.
         12    1    1    2    0    0  0.77856694138E+00  0.14956215943E+00 -0.87426297829E+00  0.11801995920E+01  0.00000000000E+00 0. -1.
         11    1    3    3    0    0 -0.64208428864E+01 -0.29264672459E+01  0.46233120266E+01  0.84360208789E+01  0.51100000000E-03 0. -1.
        -11    1    3    3    0    0 -0.23505538852E+02 -0.89047364081E+01  0.27509971894E+02  0.37263967061E+02  0.51100000000E-03 0.  1.
         12    1    3    3    0    0  0.29147814797E+02  0.11681641495E+02 -0.31259020942E+02  0.44307812468E+02  0.00000000000E+00 0. -1.
</event>
<event>
 7    1  0.2084210E-015  0.9000783E+02  0.7816164E-02  0.1186339E+00
        -11   -1    0    0    0    0  0.00000000000E+00  0.00000000000E+00  0.45593999997E+02  0.45594000000E+02  0.51100000000E-03 0.  1.
         11   -1    0    0    0    0 -0.00000000000E+00 -0.00000000000E+00 -0.45593999997E+02  0.45594000000E+02  0.51100000000E-03 0. -1.
    9900012    2    1    2    0    0 -0.11495757154E+01 -0.95435391017E-01 -0.24935428317E+00  0.90007826370E+02  0.90000088878E+02 0.  0.
         12    1    1    2    0    0  0.11495757154E+01  0.95435391017E-01  0.24935428317E+00  0.11801736304E+01  0.00000000000E+00 0. -1.
         11    1    3    3    0    0 -0.40790708257E+01  0.80887680585E+01  0.30540715770E+01  0.95600387532E+01  0.51100000000E-03 0. -1.
        -11    1    3    3    0    0 -0.10175331785E+02  0.25878211403E+02  0.22484534497E+02  0.35759942592E+02  0.51100000000E-03 0.  1.
         12    1    3    3    0    0  0.13104826895E+02 -0.34062414852E+02 -0.25787960358E+02  0.44687845025E+02  0.00000000000E+00 0. -1.
</event>
<event>
 7    1  0.2084210E-015  0.9000779E+02  0.7816164E-02  0.1186339E+00
        -11   -1    0    0    0    0  0.00000000000E+00  0.00000000000E+00  0.45593999997E+02  0.45594000000E+02  0.51100000000E-03 0. -1.
         11   -1    0    0    0    0 -0.00000000000E+00 -0.00000000000E+00 -0.45593999997E+02  0.45594000000E+02  0.51100000000E-03 0.  1.
    9900012    2    1    2    0    0  0.11735772618E+01  0.12098201701E+00  0.31143870107E-01  0.90007792315E+02  0.90000054374E+02 0.  0.
         12    1    1    2    0    0 -0.11735772618E+01 -0.12098201701E+00 -0.31143870107E-01  0.11802076845E+01  0.00000000000E+00 0. -1.
         11    1    3    3    0    0  0.18659659679E+02  0.27980240598E+01  0.13754487144E+02  0.23349470119E+02  0.51100000000E-03 0. -1.
        -11    1    3    3    0    0  0.18063878478E+02 -0.18704981846E+02 -0.82450591702E+01  0.27279315470E+02  0.51100000000E-03 0.  1.
         12    1    3    3    0    0 -0.35549960895E+02  0.16027939804E+02 -0.54782841042E+01  0.39379006726E+02  0.00000000000E+00 0. -1.
</event>
<event>
 7    1  0.2084210E-015  0.9000768E+02  0.7816164E-02  0.1186339E+00
        -11   -1    0    0    0    0  0.00000000000E+00  0.00000000000E+00  0.45593999997E+02  0.45594000000E+02  0.51100000000E-03 0. -1.
         11   -1    0    0    0    0 -0.00000000000E+00 -0.00000000000E+00 -0.45593999997E+02  0.45594000000E+02  0.51100000000E-03 0.  1.
    9900012    2    1    2    0    0  0.63548469634E+00 -0.98938508118E+00 -0.10218077358E+00  0.90007676083E+02  0.89999936607E+02 0.  0.
         12    1    1    2    0    0 -0.63548469634E+00  0.98938508118E+00  0.10218077358E+00  0.11803239168E+01  0.00000000000E+00 0. -1.
         11    1    3    3    0    0 -0.40253844775E+01  0.60508347020E+00  0.38291993918E+02  0.38507747852E+02  0.51100000000E-03 0. -1.
        -11    1    3    3    0    0 -0.83689202798E+01  0.37822852013E+01  0.13936598129E+01  0.92890686255E+01  0.51100000000E-03 0.  1.
        -12    1    3    3    0    0  0.13029789454E+02 -0.53767537527E+01 -0.39787834504E+02  0.42210859606E+02  0.00000000000E+00 0.  1.
</event>
<event>
 7    1  0.2084210E-015  0.9000780E+02  0.7816164E-02  0.1186339E+00
        -11   -1    0    0    0    0  0.00000000000E+00  0.00000000000E+00  0.45593999997E+02  0.45594000000E+02  0.51100000000E-03 0.  1.
         11   -1    0    0    0    0 -0.00000000000E+00 -0.00000000000E+00 -0.45593999997E+02  0.45594000000E+02  0.51100000000E-03 0. -1.
    9900012    2    1    2    0    0 -0.20174722522E+00 -0.87511320310E+00  0.76574030943E+00  0.90007795237E+02  0.90000057334E+02 0.  0.
         12    1    1    2    0    0  0.20174722522E+00  0.87511320310E+00 -0.76574030943E+00  0.11802047630E+01  0.00000000000E+00 0. -1.
         11    1    3    3    0    0  0.31281552527E+02 -0.14873469719E+02 -0.16370380028E+02  0.38311159895E+02  0.51100000000E-03 0. -1.
        -11    1    3    3    0    0  0.75356443686E+00  0.42853579322E+01 -0.83863537985E+01  0.94479141752E+01  0.51100000000E-03 0.  1.
        -12    1    3    3    0    0 -0.32236864189E+02  0.97129985833E+01  0.25522474136E+02  0.42248721167E+02  0.00000000000E+00 0.  1.
</event>
<event>
 7    1  0.2084210E-015  0.9000771E+02  0.7816164E-02  0.1186339E+00
        -11   -1    0    0    0    0  0.00000000000E+00  0.00000000000E+00  0.45593999997E+02  0.45594000000E+02  0.51100000000E-03 0.  1.
         11   -1    0    0    0    0 -0.00000000000E+00 -0.00000000000E+00 -0.45593999997E+02  0.45594000000E+02  0.51100000000E-03 0. -1.
    9900012    2    1    2    0    0 -0.11534154797E+01  0.16338140536E+00  0.18982618461E+00  0.90007705658E+02  0.89999966573E+02 0.  0.
         12    1    1    2    0    0  0.11534154797E+01 -0.16338140536E+00 -0.18982618461E+00  0.11802943416E+01  0.00000000000E+00 0. -1.
         11    1    3    3    0    0 -0.58396460742E+01  0.51767532586E+01  0.59115617428E+01  0.97901380517E+01  0.51100000000E-03 0. -1.
        -11    1    3    3    0    0  0.73239393815E+01  0.32177588486E+02 -0.21866664468E+02  0.39587729211E+02  0.51100000000E-03 0.  1.
         12    1    3    3    0    0 -0.26377087870E+01 -0.37190960339E+02  0.16144928910E+02  0.40629838396E+02  0.00000000000E+00 0. -1.
</event>
<event>
 7    1  0.2084210E-015  0.9000778E+02  0.7816164E-02  0.1186339E+00
        -11   -1    0    0    0    0  0.00000000000E+00  0.00000000000E+00  0.45593999997E+02  0.45594000000E+02  0.51100000000E-03 0. -1.
         11   -1    0    0    0    0 -0.00000000000E+00 -0.00000000000E+00 -0.45593999997E+02  0.45594000000E+02  0.51100000000E-03 0.  1.
    9900012    2    1    2    0    0 -0.18589769970E+00 -0.86500076105E+00 -0.78110949720E+00  0.90007781241E+02  0.90000043154E+02 0.  0.
         12    1    1    2    0    0  0.18589769970E+00  0.86500076105E+00  0.78110949720E+00  0.11802187585E+01  0.00000000000E+00 0. -1.
         11    1    3    3    0    0  0.16643048854E+02 -0.12178680707E+02  0.34658918032E+02  0.40330533574E+02  0.51100000000E-03 0. -1.
        -11    1    3    3    0    0  0.47876053194E+01  0.40888821729E+01  0.13123123976E+01  0.64313518181E+01  0.51100000000E-03 0.  1.
        -12    1    3    3    0    0 -0.21616551873E+02  0.72247977726E+01 -0.36752339927E+02  0.43245895850E+02  0.00000000000E+00 0.  1.
</event>
<event>
 7    1  0.2084210E-015  0.9000766E+02  0.7816164E-02  0.1186339E+00
        -11   -1    0    0    0    0  0.00000000000E+00  0.00000000000E+00  0.45593999997E+02  0.45594000000E+02  0.51100000000E-03 0. -1.
         11   -1    0    0    0    0 -0.00000000000E+00 -0.00000000000E+00 -0.45593999997E+02  0.45594000000E+02  0.51100000000E-03 0.  1.
    9900012    2    1    2    0    0  0.10193472250E+00 -0.99796776615E+00 -0.62199442727E+00  0.90007657924E+02  0.89999918208E+02 0.  0.
         12    1    1    2    0    0 -0.10193472250E+00  0.99796776615E+00  0.62199442727E+00  0.11803420765E+01  0.00000000000E+00 0. -1.
         11    1    3    3    0    0 -0.80898519312E+01 -0.35262919837E+01 -0.69513533799E+01  0.11233955381E+02  0.51100000000E-03 0. -1.
        -11    1    3    3    0    0 -0.32656588364E+02  0.14326316345E+01  0.16568642306E+02  0.36647306929E+02  0.51100000000E-03 0.  1.
         12    1    3    3    0    0  0.40848375018E+02  0.10956925831E+01 -0.10239283354E+02  0.42126395614E+02  0.00000000000E+00 0. -1.
</event>
<event>
 7    1  0.2084210E-015  0.9000774E+02  0.7816164E-02  0.1186339E+00
        -11   -1    0    0    0    0  0.00000000000E+00  0.00000000000E+00  0.45593999997E+02  0.45594000000E+02  0.51100000000E-03 0. -1.
         11   -1    0    0    0    0 -0.00000000000E+00 -0.00000000000E+00 -0.45593999997E+02  0.45594000000E+02  0.51100000000E-03 0.  1.
    9900012    2    1    2    0    0  0.54043603990E+00  0.63073945543E+00 -0.83851399329E+00  0.90007741939E+02  0.90000003332E+02 0.  0.
         12    1    1    2    0    0 -0.54043603990E+00 -0.63073945543E+00  0.83851399329E+00  0.11802580611E+01  0.00000000000E+00 0. -1.
         11    1    3    3    0    0  0.33679401799E+02 -0.72010589358E+01 -0.67422438672E+01  0.35094375732E+02  0.51100000000E-03 0. -1.
        -11    1    3    3    0    0  0.87801503174E+01 -0.57900165759E+01  0.10140133227E+01  0.10566151372E+02  0.51100000000E-03 0.  1.
        -12    1    3    3    0    0 -0.41919116077E+02  0.13621814967E+02  0.48897165512E+01  0.44347214835E+02  0.00000000000E+00 0.  1.
</event>
<event>
 7    1  0.2084210E-015  0.9000761E+02  0.7816164E-02  0.1186339E+00
        -11   -1    0    0    0    0  0.00000000000E+00  0.00000000000E+00  0.45593999997E+02  0.45594000000E+02  0.51100000000E-03 0.  1.
         11   -1    0    0    0    0 -0.00000000000E+00 -0.00000000000E+00 -0.45593999997E+02  0.45594000000E+02  0.51100000000E-03 0. -1.
    9900012    2    1    2    0    0  0.61404323949E+00  0.30300274094E+00  0.96149290026E+00  0.90007606693E+02  0.89999866302E+02 0.  0.
         12    1    1    2    0    0 -0.61404323949E+00 -0.30300274094E+00 -0.96149290026E+00  0.11803933066E+01  0.00000000000E+00 0. -1.
         11    1    3    3    0    0  0.23760176574E+01  0.30918607244E+02 -0.26943217129E+02  0.41079711334E+02  0.51100000000E-03 0. -1.
        -11    1    3    3    0    0 -0.81485578429E+01  0.45181178441E+00  0.83041772104E+01  0.11643130516E+02  0.51100000000E-03 0.  1.
        -12    1    3    3    0    0  0.63865834249E+01 -0.31067416288E+02  0.19600532818E+02  0.37284764843E+02  0.00000000000E+00 0.  1.
</event>
<event>
 7    1  0.2084210E-015  0.9000772E+02  0.7816164E-02  0.1186339E+00
        -11   -1    0    0    0    0  0.00000000000E+00  0.00000000000E+00  0.45593999997E+02  0.45594000000E+02  0.51100000000E-03 0.  1.
         11   -1    0    0    0    0 -0.00000000000E+00 -0.00000000000E+00 -0.45593999997E+02  0.45594000000E+02  0.51100000000E-03 0. -1.
    9900012    2    1    2    0    0  0.64271913114E+00 -0.98027846838E+00  0.13794389174E+00  0.90007719409E+02  0.89999980505E+02 0.  0.
         12    1    1    2    0    0 -0.64271913114E+00  0.98027846838E+00 -0.13794389174E+00  0.11802805914E+01  0.00000000000E+00 0. -1.
         11    1    3    3    0    0 -0.89412555953E+01  0.20662296624E+01 -0.52512865817E+01  0.10573143698E+02  0.51100000000E-03 0. -1.
        -11    1    3    3    0    0 -0.21737285486E+02  0.22955222771E+02  0.18547348089E+02  0.36653184775E+02  0.51100000000E-03 0.  1.
         12    1    3    3    0    0  0.31321260212E+02 -0.26001730902E+02 -0.13158117616E+02  0.42781390935E+02  0.00000000000E+00 0. -1.
</event>
<event>
 7    1  0.2084210E-015  0.9000776E+02  0.7816164E-02  0.1186339E+00
        -11   -1    0    0    0    0  0.00000000000E+00  0.00000000000E+00  0.45593999997E+02  0.45594000000E+02  0.51100000000E-03 0. -1.
         11   -1    0    0    0    0 -0.00000000000E+00 -0.00000000000E+00 -0.45593999997E+02  0.45594000000E+02  0.51100000000E-03 0.  1.
    9900012    2    1    2    0    0  0.26191408328E-01 -0.10043837255E+01 -0.61927598210E+00  0.90007756212E+02  0.90000017794E+02 0.  0.
         12    1    1    2    0    0 -0.26191408328E-01  0.10043837255E+01  0.61927598210E+00  0.11802437883E+01  0.00000000000E+00 0. -1.
         11    1    3    3    0    0 -0.18205979840E+01  0.38041717803E+01 -0.73279556810E+01  0.84548941257E+01  0.51100000000E-03 0. -1.
        -11    1    3    3    0    0 -0.27462445713E+02 -0.91554929419E+01  0.31600031508E+02  0.42855232669E+02  0.51100000000E-03 0.  1.
         12    1    3    3    0    0  0.29309235106E+02  0.43469374362E+01 -0.24891351809E+02  0.38697629416E+02  0.00000000000E+00 0. -1.
</event>
<event>
 7    1  0.2084210E-015  0.9000818E+02  0.7816164E-02  0.1186338E+00
        -11   -1    0    0    0    0  0.00000000000E+00  0.00000000000E+00  0.45593999997E+02  0.45594000000E+02  0.51100000000E-03 0.  1.
         11   -1    0    0    0    0 -0.00000000000E+00 -0.00000000000E+00 -0.45593999997E+02  0.45594000000E+02  0.51100000000E-03 0. -1.
    9900012    2    1    2    0    0 -0.92746502132E+00  0.58699602181E+00  0.43269820437E+00  0.90008176525E+02  0.90000443654E+02 0.  0.
         12    1    1    2    0    0  0.92746502132E+00 -0.58699602181E+00 -0.43269820437E+00  0.11798234747E+01  0.00000000000E+00 0. -1.
         11    1    3    3    0    0 -0.43141698580E+01  0.22116082702E+02  0.60953042780E+01  0.23342791396E+02  0.51100000000E-03 0. -1.
        -11    1    3    3    0    0 -0.69748701707E-01  0.13242866118E+02  0.19523569283E+02  0.23591272236E+02  0.51100000000E-03 0.  1.
         12    1    3    3    0    0  0.34564535383E+01 -0.34771952798E+02 -0.25186175356E+02  0.43074112894E+02  0.00000000000E+00 0. -1.
</event>
<event>
 7    1  0.2084210E-015  0.9000772E+02  0.7816164E-02  0.1186339E+00
        -11   -1    0    0    0    0  0.00000000000E+00  0.00000000000E+00  0.45593999997E+02  0.45594000000E+02  0.51100000000E-03 0.  1.
         11   -1    0    0    0    0 -0.00000000000E+00 -0.00000000000E+00 -0.45593999997E+02  0.45594000000E+02  0.51100000000E-03 0. -1.
    9900012    2    1    2    0    0 -0.37302934827E+00  0.85906326589E+00 -0.71828249567E+00  0.90007715995E+02  0.89999977046E+02 0.  0.
         12    1    1    2    0    0  0.37302934827E+00 -0.85906326589E+00  0.71828249567E+00  0.11802840052E+01  0.00000000000E+00 0. -1.
         11    1    3    3    0    0  0.15621102783E+02  0.17654372729E+02 -0.35932184605E+02  0.42974615988E+02  0.51100000000E-03 0. -1.
        -11    1    3    3    0    0  0.35802950306E+01  0.73653609444E+00  0.98697919195E+01  0.10524912860E+02  0.51100000000E-03 0.  1.
        -12    1    3    3    0    0 -0.19574427162E+02 -0.17531845558E+02  0.25344110190E+02  0.36508187146E+02  0.00000000000E+00 0.  1.
</event>
<event>
 7    1  0.2084210E-015  0.9000774E+02  0.7816164E-02  0.1186339E+00
        -11   -1    0    0    0    0  0.00000000000E+00  0.00000000000E+00  0.45593999997E+02  0.45594000000E+02  0.51100000000E-03 0.  1.
         11   -1    0    0    0    0 -0.00000000000E+00 -0.00000000000E+00 -0.45593999997E+02  0.45594000000E+02  0.51100000000E-03 0. -1.
    9900012    2    1    2    0    0 -0.34115607284E+00  0.96896652684E+00 -0.58113553503E+00  0.90007744898E+02  0.90000006330E+02 0.  0.
         12    1    1    2    0    0  0.34115607284E+00 -0.96896652684E+00  0.58113553503E+00  0.11802551022E+01  0.00000000000E+00 0. -1.
         11    1    3    3    0    0 -0.44221794607E+01  0.78458346377E+01  0.78060825533E+01  0.11918377299E+02  0.51100000000E-03 0. -1.
        -11    1    3    3    0    0  0.57513862796E+01  0.41027798149E+01  0.33766259632E+02  0.34497413471E+02  0.51100000000E-03 0.  1.
         12    1    3    3    0    0 -0.16703628917E+01 -0.10979647926E+02 -0.42153477721E+02  0.43591954128E+02  0.00000000000E+00 0. -1.
</event>
<event>
 7    1  0.2084210E-015  0.9000782E+02  0.7816164E-02  0.1186339E+00
        -11   -1    0    0    0    0  0.00000000000E+00  0.00000000000E+00  0.45593999997E+02  0.45594000000E+02  0.51100000000E-03 0.  1.
         11   -1    0    0    0    0 -0.00000000000E+00 -0.00000000000E+00 -0.45593999997E+02  0.45594000000E+02  0.51100000000E-03 0. -1.
    9900012    2    1    2    0    0  0.60297600829E+00 -0.75979909507E+00  0.67227664936E+00  0.90007817546E+02  0.90000079938E+02 0.  0.
         12    1    1    2    0    0 -0.60297600829E+00  0.75979909507E+00 -0.67227664936E+00  0.11801824540E+01  0.00000000000E+00 0. -1.
         11    1    3    3    0    0 -0.49942381007E+01  0.40627247837E+02 -0.92363677091E+01  0.41962199296E+02  0.51100000000E-03 0. -1.
        -11    1    3    3    0    0 -0.47853278122E+01 -0.56902059397E+01 -0.38903058167E+01  0.83912028646E+01  0.51100000000E-03 0.  1.
        -12    1    3    3    0    0  0.10382541921E+02 -0.35696840993E+02  0.13798950175E+02  0.39654415385E+02  0.00000000000E+00 0.  1.
</event>
<event>
 7    1  0.2084210E-015  0.9000772E+02  0.7816164E-02  0.1186339E+00
        -11   -1    0    0    0    0  0.00000000000E+00  0.00000000000E+00  0.45593999997E+02  0.45594000000E+02  0.51100000000E-03 0. -1.
         11   -1    0    0    0    0 -0.00000000000E+00 -0.00000000000E+00 -0.45593999997E+02  0.45594000000E+02  0.51100000000E-03 0.  1.
    9900012    2    1    2    0    0 -0.97830719649E+00  0.48730927400E+00 -0.44554484741E+00  0.90007718038E+02  0.89999979116E+02 0.  0.
         12    1    1    2    0    0  0.97830719649E+00 -0.48730927400E+00  0.44554484741E+00  0.11802819622E+01  0.00000000000E+00 0. -1.
         11    1    3    3    0    0 -0.16679177206E+01 -0.37467437309E+01  0.85058888477E+01  0.94429965297E+01  0.51100000000E-03 0. -1.
        -11    1    3    3    0    0  0.38603936063E+02  0.56444700482E+00 -0.16060821363E+02  0.41815457227E+02  0.51100000000E-03 0.  1.
         12    1    3    3    0    0 -0.37914325539E+02  0.36696060001E+01  0.71093876683E+01  0.38749264281E+02  0.00000000000E+00 0. -1.
</event>
<event>
 7    1  0.2084210E-015  0.9000782E+02  0.7816164E-02  0.1186339E+00
        -11   -1    0    0    0    0  0.00000000000E+00  0.00000000000E+00  0.45593999997E+02  0.45594000000E+02  0.51100000000E-03 0.  1.
         11   -1    0    0    0    0 -0.00000000000E+00 -0.00000000000E+00 -0.45593999997E+02  0.45594000000E+02  0.51100000000E-03 0. -1.
    9900012    2    1    2    0    0 -0.10485896081E+01  0.46730517201E+00  0.27371018593E+00  0.90007817151E+02  0.90000079538E+02 0.  0.
         12    1    1    2    0    0  0.10485896081E+01 -0.46730517201E+00 -0.27371018593E+00  0.11801828485E+01  0.00000000000E+00 0. -1.
         11    1    3    3    0    0  0.12804588733E+02  0.14966006525E+01  0.76317871654E+00  0.12914323372E+02  0.51100000000E-03 0. -1.
        -11    1    3    3    0    0  0.27562894105E+02 -0.13572539077E+02 -0.10874253557E+02  0.32591046916E+02  0.51100000000E-03 0.  1.
         12    1    3    3    0    0 -0.41416072446E+02  0.12543243597E+02  0.10384785026E+02  0.44502446863E+02  0.00000000000E+00 0. -1.
</event>
<event>
 7    1  0.2084210E-015  0.9000775E+02  0.7816164E-02  0.1186339E+00
        -11   -1    0    0    0    0  0.00000000000E+00  0.00000000000E+00  0.45593999997E+02  0.45594000000E+02  0.51100000000E-03 0. -1.
         11   -1    0    0    0    0 -0.00000000000E+00 -0.00000000000E+00 -0.45593999997E+02  0.45594000000E+02  0.51100000000E-03 0.  1.
    9900012    2    1    2    0    0  0.37812244763E-01 -0.11756528214E+01 -0.96995668533E-01  0.90007746857E+02  0.90000008315E+02 0.  0.
         12    1    1    2    0    0 -0.37812244763E-01  0.11756528214E+01  0.96995668533E-01  0.11802531432E+01  0.00000000000E+00 0. -1.
         11    1    3    3    0    0  0.31115525758E+00 -0.97873082509E+01  0.57648756505E+01  0.11363186697E+02  0.51100000000E-03 0. -1.
        -11    1    3    3    0    0  0.30428508297E+02 -0.18416852838E+02 -0.11438850568E+02  0.37362038063E+02  0.51100000000E-03 0.  1.
         12    1    3    3    0    0 -0.30701851310E+02  0.27028508268E+02  0.55769792492E+01  0.41282522096E+02  0.00000000000E+00 0. -1.
</event>
<event>
 7    1  0.2084210E-015  0.9000770E+02  0.7816164E-02  0.1186339E+00
        -11   -1    0    0    0    0  0.00000000000E+00  0.00000000000E+00  0.45593999997E+02  0.45594000000E+02  0.51100000000E-03 0.  1.
         11   -1    0    0    0    0 -0.00000000000E+00 -0.00000000000E+00 -0.45593999997E+02  0.45594000000E+02  0.51100000000E-03 0. -1.
    9900012    2    1    2    0    0 -0.28835652464E+00 -0.11951691469E+00  0.11382791242E+01  0.90007697860E+02  0.89999958671E+02 0.  0.
         12    1    1    2    0    0  0.28835652464E+00  0.11951691469E+00 -0.11382791242E+01  0.11803021404E+01  0.00000000000E+00 0. -1.
         11    1    3    3    0    0 -0.95513606398E+00 -0.30522012806E+01 -0.97085545848E+01  0.10221753761E+02  0.51100000000E-03 0. -1.
        -11    1    3    3    0    0  0.12848305592E+02 -0.29371265542E+02 -0.16208793085E+02  0.35923184292E+02  0.51100000000E-03 0.  1.
         12    1    3    3    0    0 -0.12181526053E+02  0.32303949908E+02  0.27055626794E+02  0.43862759807E+02  0.00000000000E+00 0. -1.
</event>
<event>
 7    1  0.2084210E-015  0.9000773E+02  0.7816164E-02  0.1186339E+00
        -11   -1    0    0    0    0  0.00000000000E+00  0.00000000000E+00  0.45593999997E+02  0.45594000000E+02  0.51100000000E-03 0.  1.
         11   -1    0    0    0    0 -0.00000000000E+00 -0.00000000000E+00 -0.45593999997E+02  0.45594000000E+02  0.51100000000E-03 0. -1.
    9900012    2    1    2    0    0  0.76824384558E+00  0.78596804552E+00  0.43021076730E+00  0.90007734911E+02  0.89999996212E+02 0.  0.
         12    1    1    2    0    0 -0.76824384558E+00 -0.78596804552E+00 -0.43021076730E+00  0.11802650885E+01  0.00000000000E+00 0. -1.
         11    1    3    3    0    0 -0.30496974621E+02 -0.25092004265E+02 -0.45545871858E+01  0.39754476525E+02  0.51100000000E-03 0. -1.
        -11    1    3    3    0    0 -0.43145716158E+01  0.76246874157E+01  0.53455019699E+01  0.10262834793E+02  0.51100000000E-03 0.  1.
        -12    1    3    3    0    0  0.35579790083E+02  0.18253284895E+02 -0.36070401682E+00  0.39990423593E+02  0.00000000000E+00 0.  1.
</event>
<event>
 7    1  0.2084210E-015  0.9000771E+02  0.7816164E-02  0.1186339E+00
        -11   -1    0    0    0    0  0.00000000000E+00  0.00000000000E+00  0.45593999997E+02  0.45594000000E+02  0.51100000000E-03 0.  1.
         11   -1    0    0    0    0 -0.00000000000E+00 -0.00000000000E+00 -0.45593999997E+02  0.45594000000E+02  0.51100000000E-03 0. -1.
    9900012    2    1    2    0    0  0.22445280509E-01 -0.21384679457E+00  0.11605408348E+01  0.90007707972E+02  0.89999968917E+02 0.  0.
         12    1    1    2    0    0 -0.22445280509E-01  0.21384679457E+00 -0.11605408348E+01  0.11802920280E+01  0.00000000000E+00 0. -1.
         11    1    3    3    0    0 -0.88108112827E+01 -0.42350228498E+01  0.24400701822E+01  0.10075701303E+02  0.51100000000E-03 0. -1.
        -11    1    3    3    0    0 -0.22888019303E+02  0.18268710829E+02  0.23237381321E+02  0.37384262917E+02  0.51100000000E-03 0.  1.
         12    1    3    3    0    0  0.31721275866E+02 -0.14247534773E+02 -0.24516910668E+02  0.42547743752E+02  0.00000000000E+00 0. -1.
</event>
<event>
 7    1  0.2084210E-015  0.9000772E+02  0.7816164E-02  0.1186339E+00
        -11   -1    0    0    0    0  0.00000000000E+00  0.00000000000E+00  0.45593999997E+02  0.45594000000E+02  0.51100000000E-03 0.  1.
         11   -1    0    0    0    0 -0.00000000000E+00 -0.00000000000E+00 -0.45593999997E+02  0.45594000000E+02  0.51100000000E-03 0. -1.
    9900012    2    1    2    0    0 -0.39675733394E-01 -0.22260991732E+00  0.11584216106E+01  0.90007716150E+02  0.89999977203E+02 0.  0.
         12    1    1    2    0    0  0.39675733394E-01  0.22260991732E+00 -0.11584216106E+01  0.11802838502E+01  0.00000000000E+00 0. -1.
         11    1    3    3    0    0 -0.23659299865E+02  0.28939364163E+02 -0.16705997667E+02  0.40943126732E+02  0.51100000000E-03 0. -1.
        -11    1    3    3    0    0  0.26515363216E+01  0.35124856902E+01  0.78026770428E+01  0.89582347527E+01  0.51100000000E-03 0.  1.
        -12    1    3    3    0    0  0.20968087810E+02 -0.32674459770E+02  0.10061742235E+02  0.40106354665E+02  0.00000000000E+00 0.  1.
</event>
<event>
 7    1  0.2084210E-015  0.9000775E+02  0.7816164E-02  0.1186339E+00
        -11   -1    0    0    0    0  0.00000000000E+00  0.00000000000E+00  0.45593999997E+02  0.45594000000E+02  0.51100000000E-03 0.  1.
         11   -1    0    0    0    0 -0.00000000000E+00 -0.00000000000E+00 -0.45593999997E+02  0.45594000000E+02  0.51100000000E-03 0. -1.
    9900012    2    1    2    0    0 -0.35766579433E+00 -0.48193167059E+00  0.10162669052E+01  0.90007753679E+02  0.90000015228E+02 0.  0.
         12    1    1    2    0    0  0.35766579433E+00  0.48193167059E+00 -0.10162669052E+01  0.11802463209E+01  0.00000000000E+00 0. -1.
         11    1    3    3    0    0  0.18568971316E+02 -0.31465626915E+02  0.36364591575E+01  0.36716702035E+02  0.51100000000E-03 0. -1.
        -11    1    3    3    0    0 -0.17503498545E+02 -0.29951902777E+01  0.49810057181E+01  0.18443265555E+02  0.51100000000E-03 0.  1.
        -12    1    3    3    0    0 -0.14231385653E+01  0.33978885522E+02 -0.76011979704E+01  0.34847786089E+02  0.00000000000E+00 0.  1.
</event>
<event>
 7    1  0.2084210E-015  0.9000776E+02  0.7816164E-02  0.1186339E+00
        -11   -1    0    0    0    0  0.00000000000E+00  0.00000000000E+00  0.45593999997E+02  0.45594000000E+02  0.51100000000E-03 0. -1.
         11   -1    0    0    0    0 -0.00000000000E+00 -0.00000000000E+00 -0.45593999997E+02  0.45594000000E+02  0.51100000000E-03 0.  1.
    9900012    2    1    2    0    0 -0.10384015149E+01 -0.12683185326E+00 -0.54645112146E+00  0.90007757291E+02  0.90000018887E+02 0.  0.
         12    1    1    2    0    0  0.10384015149E+01  0.12683185326E+00  0.54645112146E+00  0.11802427095E+01  0.00000000000E+00 0. -1.
         11    1    3    3    0    0  0.21685049495E+00  0.63199871144E+01 -0.27511971129E+01  0.68962560190E+01  0.51100000000E-03 0. -1.
        -11    1    3    3    0    0 -0.18862541444E+02 -0.18168476196E+02 -0.32946065702E+02  0.42087198083E+02  0.51100000000E-03 0.  1.
         12    1    3    3    0    0  0.17607289434E+02  0.11721657228E+02  0.35150811693E+02  0.41024303188E+02  0.00000000000E+00 0. -1.
</event>
<event>
 7    1  0.2084210E-015  0.9000769E+02  0.7816164E-02  0.1186339E+00
        -11   -1    0    0    0    0  0.00000000000E+00  0.00000000000E+00  0.45593999997E+02  0.45594000000E+02  0.51100000000E-03 0.  1.
         11   -1    0    0    0    0 -0.00000000000E+00 -0.00000000000E+00 -0.45593999997E+02  0.45594000000E+02  0.51100000000E-03 0. -1.
    9900012    2    1    2    0    0 -0.11174880098E+01 -0.26343544662E+00  0.27376289927E+00  0.90007693340E+02  0.89999954092E+02 0.  0.
         12    1    1    2    0    0  0.11174880098E+01  0.26343544662E+00 -0.27376289927E+00  0.11803066600E+01  0.00000000000E+00 0. -1.
         11    1    3    3    0    0  0.20094994046E+01 -0.26036217824E+01 -0.34618363586E+02  0.34774243800E+02  0.51100000000E-03 0. -1.
        -11    1    3    3    0    0 -0.68361327632E+00 -0.54394243206E+01 -0.90283241672E+01  0.10562447708E+02  0.51100000000E-03 0.  1.
        -12    1    3    3    0    0 -0.24433741381E+01  0.77796106564E+01  0.43920450653E+02  0.44671001832E+02  0.00000000000E+00 0.  1.
</event>
<event>
 7    1  0.2084210E-015  0.9000781E+02  0.7816164E-02  0.1186339E+00
        -11   -1    0    0    0    0  0.00000000000E+00  0.00000000000E+00  0.45593999997E+02  0.45594000000E+02  0.51100000000E-03 0. -1.
         11   -1    0    0    0    0 -0.00000000000E+00 -0.00000000000E+00 -0.45593999997E+02  0.45594000000E+02  0.51100000000E-03 0.  1.
    9900012    2    1    2    0    0 -0.10402595992E+01  0.16171038399E-01 -0.55718230647E+00  0.90007807787E+02  0.90000070050E+02 0.  0.
         12    1    1    2    0    0  0.10402595992E+01 -0.16171038399E-01  0.55718230647E+00  0.11801922127E+01  0.00000000000E+00 0. -1.
         11    1    3    3    0    0 -0.19022656748E+01 -0.42966808180E+01  0.90593314747E+01  0.10205467543E+02  0.51100000000E-03 0. -1.
        -11    1    3    3    0    0  0.50960900549E+01 -0.36262213162E+02 -0.13022072769E+02  0.38865056499E+02  0.51100000000E-03 0.  1.
         12    1    3    3    0    0 -0.42340839794E+01  0.40575065018E+02  0.34055589883E+01  0.40937283745E+02  0.00000000000E+00 0. -1.
</event>
<event>
 7    1  0.2084210E-015  0.9000679E+02  0.7816164E-02  0.1186341E+00
        -11   -1    0    0    0    0  0.00000000000E+00  0.00000000000E+00  0.45593999997E+02  0.45594000000E+02  0.51100000000E-03 0. -1.
         11   -1    0    0    0    0 -0.00000000000E+00 -0.00000000000E+00 -0.45593999997E+02  0.45594000000E+02  0.51100000000E-03 0.  1.
    9900012    2    1    2    0    0 -0.82358533873E+00  0.56097397468E+00 -0.63424272504E+00  0.90006793649E+02  0.89999042520E+02 0.  0.
         12    1    1    2    0    0  0.82358533873E+00 -0.56097397468E+00  0.63424272504E+00  0.11812063515E+01  0.00000000000E+00 0. -1.
         11    1    3    3    0    0 -0.65173721381E+01  0.33526119219E+01 -0.99879246135E+01  0.12388494042E+02  0.51100000000E-03 0. -1.
        -11    1    3    3    0    0  0.16357787155E+02 -0.15498613508E+02 -0.28474700292E+02  0.36312432833E+02  0.51100000000E-03 0.  1.
         12    1    3    3    0    0 -0.10664000356E+02  0.12706975561E+02  0.37828382180E+02  0.41305866773E+02  0.00000000000E+00 0. -1.
</event>
<event>
 7    1  0.2084210E-015  0.9000773E+02  0.7816164E-02  0.1186339E+00
        -11   -1    0    0    0    0  0.00000000000E+00  0.00000000000E+00  0.45593999997E+02  0.45594000000E+02  0.51100000000E-03 0.  1.
         11   -1    0    0    0    0 -0.00000000000E+00 -0.00000000000E+00 -0.45593999997E+02  0.45594000000E+02  0.51100000000E-03 0. -1.
    9900012    2    1    2    0    0  0.13212452328E+00  0.85269709775E+00  0.80528228185E+00  0.90007733596E+02  0.89999994880E+02 0.  0.
         12    1    1    2    0    0 -0.13212452328E+00 -0.85269709775E+00 -0.80528228185E+00  0.11802664037E+01  0.00000000000E+00 0. -1.
         11    1    3    3    0    0 -0.33386665866E+02 -0.15513780451E+02  0.19902665642E+02  0.41850483169E+02  0.51100000000E-03 0. -1.
        -11    1    3    3    0    0  0.44345372048E+01  0.58717034302E+01  0.50509503110E+01  0.89249157250E+01  0.51100000000E-03 0.  1.
        -12    1    3    3    0    0  0.29084253185E+02  0.10494774119E+02 -0.24148333671E+02  0.39232334702E+02  0.00000000000E+00 0.  1.
</event>
<event>
 7    1  0.2084210E-015  0.9000765E+02  0.7816164E-02  0.1186339E+00
        -11   -1    0    0    0    0  0.00000000000E+00  0.00000000000E+00  0.45593999997E+02  0.45594000000E+02  0.51100000000E-03 0. -1.
         11   -1    0    0    0    0 -0.00000000000E+00 -0.00000000000E+00 -0.45593999997E+02  0.45594000000E+02  0.51100000000E-03 0.  1.
    9900012    2    1    2    0    0  0.11046721481E+01  0.40074537229E+00 -0.11104876759E+00  0.90007648681E+02  0.89999908843E+02 0.  0.
         12    1    1    2    0    0 -0.11046721481E+01 -0.40074537229E+00  0.11104876759E+00  0.11803513193E+01  0.00000000000E+00 0. -1.
         11    1    3    3    0    0 -0.16344107519E+02  0.39736512180E+01  0.33717690886E+02  0.37680265837E+02  0.51100000000E-03 0. -1.
        -11    1    3    3    0    0 -0.71323708183E+01 -0.10702563098E+02 -0.50586849694E+01  0.13820487120E+02  0.51100000000E-03 0.  1.
        -12    1    3    3    0    0  0.24581150486E+02  0.71296572521E+01 -0.28770054684E+02  0.38506895724E+02  0.00000000000E+00 0.  1.
</event>
<event>
 7    1  0.2084210E-015  0.9000756E+02  0.7816164E-02  0.1186339E+00
        -11   -1    0    0    0    0  0.00000000000E+00  0.00000000000E+00  0.45593999997E+02  0.45594000000E+02  0.51100000000E-03 0.  1.
         11   -1    0    0    0    0 -0.00000000000E+00 -0.00000000000E+00 -0.45593999997E+02  0.45594000000E+02  0.51100000000E-03 0. -1.
    9900012    2    1    2    0    0  0.69950056713E+00  0.94952407711E+00 -0.50472987909E-01  0.90007557482E+02  0.89999816440E+02 0.  0.
         12    1    1    2    0    0 -0.69950056713E+00 -0.94952407711E+00  0.50472987909E-01  0.11804425183E+01  0.00000000000E+00 0. -1.
         11    1    3    3    0    0  0.32884994761E+02  0.16478987051E+02 -0.15792306753E+02  0.40029699568E+02  0.51100000000E-03 0. -1.
        -11    1    3    3    0    0 -0.93492035527E+01  0.60525568672E+01 -0.51241147650E+01  0.12259592329E+02  0.51100000000E-03 0.  1.
        -12    1    3    3    0    0 -0.22836290641E+02 -0.21582019841E+02  0.20865948530E+02  0.37718265585E+02  0.00000000000E+00 0.  1.
</event>
<event>
 7    1  0.2084210E-015  0.9000773E+02  0.7816164E-02  0.1186339E+00
        -11   -1    0    0    0    0  0.00000000000E+00  0.00000000000E+00  0.45593999997E+02  0.45594000000E+02  0.51100000000E-03 0. -1.
         11   -1    0    0    0    0 -0.00000000000E+00 -0.00000000000E+00 -0.45593999997E+02  0.45594000000E+02  0.51100000000E-03 0.  1.
    9900012    2    1    2    0    0 -0.64281023718E+00 -0.98925283649E+00  0.34689000646E-01  0.90007733292E+02  0.89999994571E+02 0.  0.
         12    1    1    2    0    0  0.64281023718E+00  0.98925283649E+00 -0.34689000646E-01  0.11802667081E+01  0.00000000000E+00 0. -1.
         11    1    3    3    0    0 -0.33533573995E+02  0.22118599657E+02 -0.64141696261E+01  0.40680150048E+02  0.51100000000E-03 0. -1.
        -11    1    3    3    0    0  0.28455143681E+01  0.62583044127E+01  0.13531063384E+01  0.70067269938E+01  0.51100000000E-03 0.  1.
        -12    1    3    3    0    0  0.30045249390E+02 -0.29366156906E+02  0.50957522884E+01  0.42320856250E+02  0.00000000000E+00 0.  1.
</event>
<event>
 7    1  0.2084210E-015  0.9000774E+02  0.7816164E-02  0.1186339E+00
        -11   -1    0    0    0    0  0.00000000000E+00  0.00000000000E+00  0.45593999997E+02  0.45594000000E+02  0.51100000000E-03 0.  1.
         11   -1    0    0    0    0 -0.00000000000E+00 -0.00000000000E+00 -0.45593999997E+02  0.45594000000E+02  0.51100000000E-03 0. -1.
    9900012    2    1    2    0    0 -0.32941708186E+00  0.84182360552E-01  0.11302243300E+01  0.90007741842E+02  0.90000003234E+02 0.  0.
         12    1    1    2    0    0  0.32941708186E+00 -0.84182360552E-01 -0.11302243300E+01  0.11802581581E+01  0.00000000000E+00 0. -1.
         11    1    3    3    0    0 -0.18729114299E+02 -0.20002867281E+01 -0.17198214037E+02  0.25506066646E+02  0.51100000000E-03 0. -1.
        -11    1    3    3    0    0 -0.78765983583E+00  0.28689788173E+02  0.11928568204E+02  0.31080783341E+02  0.51100000000E-03 0.  1.
        -12    1    3    3    0    0  0.19187357053E+02 -0.26605319084E+02  0.63998701634E+01  0.33420891855E+02  0.00000000000E+00 0.  1.
</event>
<event>
 7    1  0.2084210E-015  0.9000775E+02  0.7816164E-02  0.1186339E+00
        -11   -1    0    0    0    0  0.00000000000E+00  0.00000000000E+00  0.45593999997E+02  0.45594000000E+02  0.51100000000E-03 0.  1.
         11   -1    0    0    0    0 -0.00000000000E+00 -0.00000000000E+00 -0.45593999997E+02  0.45594000000E+02  0.51100000000E-03 0. -1.
    9900012    2    1    2    0    0  0.45223424794E+00  0.10893598971E+01  0.42114199291E-01  0.90007748160E+02  0.90000009636E+02 0.  0.
         12    1    1    2    0    0 -0.45223424794E+00 -0.10893598971E+01 -0.42114199291E-01  0.11802518401E+01  0.00000000000E+00 0. -1.
         11    1    3    3    0    0  0.13278598810E+02  0.13340215119E+02 -0.29987467474E+02  0.35405235934E+02  0.51100000000E-03 0. -1.
        -11    1    3    3    0    0 -0.48048890802E-01 -0.37356621213E+01 -0.10562144795E+02  0.11203409441E+02  0.51100000000E-03 0.  1.
        -12    1    3    3    0    0 -0.12778315671E+02 -0.85151931010E+01  0.40591726467E+02  0.43399102785E+02  0.00000000000E+00 0.  1.
</event>
<event>
 7    1  0.2084210E-015  0.9000776E+02  0.7816164E-02  0.1186339E+00
        -11   -1    0    0    0    0  0.00000000000E+00  0.00000000000E+00  0.45593999997E+02  0.45594000000E+02  0.51100000000E-03 0.  1.
         11   -1    0    0    0    0 -0.00000000000E+00 -0.00000000000E+00 -0.45593999997E+02  0.45594000000E+02  0.51100000000E-03 0. -1.
    9900012    2    1    2    0    0 -0.99028913766E+00  0.61503615935E+00  0.18446930296E+00  0.90007758085E+02  0.90000019692E+02 0.  0.
         12    1    1    2    0    0  0.99028913766E+00 -0.61503615935E+00 -0.18446930296E+00  0.11802419147E+01  0.00000000000E+00 0. -1.
         11    1    3    3    0    0 -0.34347346350E+02 -0.96937153604E+01  0.12202995570E+02  0.37717653956E+02  0.51100000000E-03 0. -1.
        -11    1    3    3    0    0  0.20421452058E+01  0.15390962654E+00  0.11596367547E+02  0.11775813592E+02  0.51100000000E-03 0.  1.
        -12    1    3    3    0    0  0.31314912007E+02  0.10154841893E+02 -0.23614893814E+02  0.40514290537E+02  0.00000000000E+00 0.  1.
</event>
<event>
 7    1  0.2084210E-015  0.9000791E+02  0.7816164E-02  0.1186339E+00
        -11   -1    0    0    0    0  0.00000000000E+00  0.00000000000E+00  0.45593999997E+02  0.45594000000E+02  0.51100000000E-03 0.  1.
         11   -1    0    0    0    0 -0.00000000000E+00 -0.00000000000E+00 -0.45593999997E+02  0.45594000000E+02  0.51100000000E-03 0. -1.
    9900012    2    1    2    0    0 -0.68507912259E+00 -0.29527824200E+00 -0.91437738360E+00  0.90007911595E+02  0.90000175228E+02 0.  0.
         12    1    1    2    0    0  0.68507912259E+00  0.29527824200E+00  0.91437738360E+00  0.11800884052E+01  0.00000000000E+00 0. -1.
         11    1    3    3    0    0 -0.28599955286E+02 -0.15652423861E+02 -0.18067088195E+02  0.37274327508E+02  0.51100000000E-03 0. -1.
        -11    1    3    3    0    0 -0.76958575458E+01  0.41259604984E+00 -0.40185934662E+01  0.86916944593E+01  0.51100000000E-03 0.  1.
        -12    1    3    3    0    0  0.35610733709E+02  0.14944549569E+02  0.21171304278E+02  0.44041889627E+02  0.00000000000E+00 0.  1.
</event>
<event>
 7    1  0.3130364E-015  0.9000776E+02  0.7816164E-02  0.1186339E+00
        -11   -1    0    0    0    0  0.00000000000E+00  0.00000000000E+00  0.45593999997E+02  0.45594000000E+02  0.51100000000E-03 0. -1.
         11   -1    0    0    0    0 -0.00000000000E+00 -0.00000000000E+00 -0.45593999997E+02  0.45594000000E+02  0.51100000000E-03 0.  1.
    9900012    2    1    2    0    0  0.26011059259E+00  0.51588445464E+00 -0.10291583070E+01  0.90007762265E+02  0.90000023927E+02 0.  0.
         12    1    1    2    0    0 -0.26011059259E+00 -0.51588445464E+00  0.10291583070E+01  0.11802377353E+01  0.00000000000E+00 0. -1.
         11    1    3    3    0    0 -0.33305638988E+02 -0.17106075160E+02  0.41417903156E+01  0.37670118437E+02  0.51100000000E-03 0. -1.
        -11    1    3    3    0    0  0.59585379595E+00 -0.68313938571E+01  0.67204284947E+01  0.96014136038E+01  0.51100000000E-03 0.  1.
        -12    1    3    3    0    0  0.32969895784E+02  0.24453353472E+02 -0.11891377117E+02  0.42736230224E+02  0.00000000000E+00 0.  1.
</event>
<event>
 7    1  0.2084210E-015  0.9000772E+02  0.7816164E-02  0.1186339E+00
        -11   -1    0    0    0    0  0.00000000000E+00  0.00000000000E+00  0.45593999997E+02  0.45594000000E+02  0.51100000000E-03 0.  1.
         11   -1    0    0    0    0 -0.00000000000E+00 -0.00000000000E+00 -0.45593999997E+02  0.45594000000E+02  0.51100000000E-03 0. -1.
    9900012    2    1    2    0    0  0.89554040239E+00  0.74877939434E+00 -0.17435717610E+00  0.90007718839E+02  0.89999979928E+02 0.  0.
         12    1    1    2    0    0 -0.89554040239E+00 -0.74877939434E+00  0.17435717610E+00  0.11802811608E+01  0.00000000000E+00 0. -1.
         11    1    3    3    0    0 -0.24131357326E+01 -0.24803645984E+02  0.63697828996E+01  0.25721940296E+02  0.51100000000E-03 0. -1.
        -11    1    3    3    0    0 -0.23257316821E+02 -0.36596732516E+01  0.28010702665E+01  0.23709533714E+02  0.51100000000E-03 0.  1.
         12    1    3    3    0    0  0.26565992956E+02  0.29212098630E+02 -0.93452103422E+01  0.40576244829E+02  0.00000000000E+00 0. -1.
</event>
<event>
 7    1  0.2084210E-015  0.9000770E+02  0.7816164E-02  0.1186339E+00
        -11   -1    0    0    0    0  0.00000000000E+00  0.00000000000E+00  0.45593999997E+02  0.45594000000E+02  0.51100000000E-03 0.  1.
         11   -1    0    0    0    0 -0.00000000000E+00 -0.00000000000E+00 -0.45593999997E+02  0.45594000000E+02  0.51100000000E-03 0. -1.
    9900012    2    1    2    0    0  0.59818740819E+00  0.94580272788E+00  0.37516005691E+00  0.90007696631E+02  0.89999957426E+02 0.  0.
         12    1    1    2    0    0 -0.59818740819E+00 -0.94580272788E+00 -0.37516005691E+00  0.11803033693E+01  0.00000000000E+00 0. -1.
         11    1    3    3    0    0  0.26164366360E+02  0.16894038766E+02 -0.20354978101E+02  0.37206286385E+02  0.51100000000E-03 0. -1.
        -11    1    3    3    0    0  0.10150961319E+02 -0.35917941569E+01  0.46123998706E+01  0.11713976003E+02  0.51100000000E-03 0.  1.
        -12    1    3    3    0    0 -0.35717140271E+02 -0.12356441881E+02  0.16117738288E+02  0.41087434242E+02  0.00000000000E+00 0.  1.
</event>
<event>
 7    1  0.2084210E-015  0.9000772E+02  0.7816164E-02  0.1186339E+00
        -11   -1    0    0    0    0  0.00000000000E+00  0.00000000000E+00  0.45593999997E+02  0.45594000000E+02  0.51100000000E-03 0.  1.
         11   -1    0    0    0    0 -0.00000000000E+00 -0.00000000000E+00 -0.45593999997E+02  0.45594000000E+02  0.51100000000E-03 0. -1.
    9900012    2    1    2    0    0 -0.11789129575E+01  0.54281099486E-01 -0.16374952409E-01  0.90007724465E+02  0.89999985628E+02 0.  0.
         12    1    1    2    0    0  0.11789129575E+01 -0.54281099486E-01  0.16374952409E-01  0.11802755349E+01  0.00000000000E+00 0. -1.
         11    1    3    3    0    0  0.51115286462E+01  0.20726570298E+00 -0.57181135883E+01  0.76725163697E+01  0.51100000000E-03 0. -1.
        -11    1    3    3    0    0  0.27801658178E+02  0.21467748921E+02  0.18868350874E+02  0.39872435418E+02  0.51100000000E-03 0.  1.
         12    1    3    3    0    0 -0.34092099781E+02 -0.21620733525E+02 -0.13166612238E+02  0.42462772678E+02  0.00000000000E+00 0. -1.
</event>
<event>
 7    1  0.2863280E-015  0.9000771E+02  0.7816164E-02  0.1186339E+00
        -11   -1    0    0    0    0  0.00000000000E+00  0.00000000000E+00  0.45593999997E+02  0.45594000000E+02  0.51100000000E-03 0.  1.
         11   -1    0    0    0    0 -0.00000000000E+00 -0.00000000000E+00 -0.45593999997E+02  0.45594000000E+02  0.51100000000E-03 0. -1.
    9900012    2    1    2    0    0 -0.10765625099E+01 -0.21199833989E+00  0.43491968704E+00  0.90007709668E+02  0.89999970635E+02 0.  0.
         12    1    1    2    0    0  0.10765625099E+01  0.21199833989E+00 -0.43491968704E+00  0.11802903321E+01  0.00000000000E+00 0. -1.
         11    1    3    3    0    0  0.16143830240E+02  0.60923575334E+01 -0.32348839239E+02  0.36663162377E+02  0.51100000000E-03 0. -1.
        -11    1    3    3    0    0  0.47128285884E+00  0.73620877271E+01 -0.53693955482E+01  0.91243000854E+01  0.51100000000E-03 0.  1.
        -12    1    3    3    0    0 -0.17691675609E+02 -0.13666443600E+02  0.38153154474E+02  0.44220247205E+02  0.00000000000E+00 0.  1.
</event>
<event>
 7    1  0.2084210E-015  0.9000743E+02  0.7816164E-02  0.1186340E+00
        -11   -1    0    0    0    0  0.00000000000E+00  0.00000000000E+00  0.45593999997E+02  0.45594000000E+02  0.51100000000E-03 0. -1.
         11   -1    0    0    0    0 -0.00000000000E+00 -0.00000000000E+00 -0.45593999997E+02  0.45594000000E+02  0.51100000000E-03 0.  1.
    9900012    2    1    2    0    0 -0.21903913038E+00 -0.11065821796E+01 -0.34818894434E+00  0.90007433271E+02  0.89999690590E+02 0.  0.
         12    1    1    2    0    0  0.21903913038E+00  0.11065821796E+01  0.34818894434E+00  0.11805667291E+01  0.00000000000E+00 0. -1.
         11    1    3    3    0    0  0.37950523017E+02  0.20555484811E+02 -0.99076875296E+01  0.44282416663E+02  0.51100000000E-03 0. -1.
        -11    1    3    3    0    0 -0.92241356409E+01 -0.14216070907E+01  0.29801043471E+01  0.97972785621E+01  0.51100000000E-03 0.  1.
        -12    1    3    3    0    0 -0.28945426506E+02 -0.20240459900E+02  0.65793942382E+01  0.35927738046E+02  0.00000000000E+00 0.  1.
</event>
<event>
 7    1  0.2084210E-015  0.9000782E+02  0.7816164E-02  0.1186339E+00
        -11   -1    0    0    0    0  0.00000000000E+00  0.00000000000E+00  0.45593999997E+02  0.45594000000E+02  0.51100000000E-03 0.  1.
         11   -1    0    0    0    0 -0.00000000000E+00 -0.00000000000E+00 -0.45593999997E+02  0.45594000000E+02  0.51100000000E-03 0. -1.
    9900012    2    1    2    0    0  0.68598491230E+00 -0.52100300474E+00  0.80672479520E+00  0.90007820215E+02  0.90000082641E+02 0.  0.
         12    1    1    2    0    0 -0.68598491230E+00  0.52100300474E+00 -0.80672479520E+00  0.11801797855E+01  0.00000000000E+00 0. -1.
         11    1    3    3    0    0 -0.20844793271E+02 -0.35330087021E+01 -0.28093736325E+02  0.35160284099E+02  0.51100000000E-03 0. -1.
        -11    1    3    3    0    0 -0.63935796136E+01  0.36475344091E+01 -0.64548072281E+01  0.97901432142E+01  0.51100000000E-03 0.  1.
        -12    1    3    3    0    0  0.27924357797E+02 -0.63552871173E+00  0.35355268348E+02  0.45057392901E+02  0.00000000000E+00 0.  1.
</event>
<event>
 7    1  0.2084210E-015  0.9000771E+02  0.7816164E-02  0.1186339E+00
        -11   -1    0    0    0    0  0.00000000000E+00  0.00000000000E+00  0.45593999997E+02  0.45594000000E+02  0.51100000000E-03 0.  1.
         11   -1    0    0    0    0 -0.00000000000E+00 -0.00000000000E+00 -0.45593999997E+02  0.45594000000E+02  0.51100000000E-03 0. -1.
    9900012    2    1    2    0    0 -0.44501600069E+00 -0.10234278447E+01  0.38422835351E+00  0.90007713924E+02  0.89999974948E+02 0.  0.
         12    1    1    2    0    0  0.44501600069E+00  0.10234278447E+01 -0.38422835351E+00  0.11802860762E+01  0.00000000000E+00 0. -1.
         11    1    3    3    0    0 -0.79590842397E+01  0.35913815020E+02  0.63410315732E+01  0.37327708380E+02  0.51100000000E-03 0. -1.
        -11    1    3    3    0    0  0.76778809614E+01  0.57830178063E+01 -0.70758239294E+00  0.96381442254E+01  0.51100000000E-03 0.  1.
        -12    1    3    3    0    0 -0.16381272237E+00 -0.42720260671E+02 -0.52492208268E+01  0.43041861318E+02  0.00000000000E+00 0.  1.
</event>
<event>
 7    1  0.2084210E-015  0.9000797E+02  0.7816164E-02  0.1186339E+00
        -11   -1    0    0    0    0  0.00000000000E+00  0.00000000000E+00  0.45593999997E+02  0.45594000000E+02  0.51100000000E-03 0.  1.
         11   -1    0    0    0    0 -0.00000000000E+00 -0.00000000000E+00 -0.45593999997E+02  0.45594000000E+02  0.51100000000E-03 0. -1.
    9900012    2    1    2    0    0 -0.43036118449E+00 -0.68401048828E+00  0.85987434108E+00  0.90007972467E+02  0.90000236903E+02 0.  0.
         12    1    1    2    0    0  0.43036118449E+00  0.68401048828E+00 -0.85987434108E+00  0.11800275334E+01  0.00000000000E+00 0. -1.
         11    1    3    3    0    0 -0.26569729686E+02  0.28295032961E+01 -0.21595062753E+02  0.34355543367E+02  0.51100000000E-03 0. -1.
        -11    1    3    3    0    0 -0.11289135256E+02  0.39084408819E+01  0.12838196579E+01  0.12015351769E+02  0.51100000000E-03 0.  1.
        -12    1    3    3    0    0  0.37428503757E+02 -0.74219546663E+01  0.21171117436E+02  0.43637077331E+02  0.00000000000E+00 0.  1.
</event>
<event>
 7    1  0.2084210E-015  0.9000804E+02  0.7816164E-02  0.1186338E+00
        -11   -1    0    0    0    0  0.00000000000E+00  0.00000000000E+00  0.45593999997E+02  0.45594000000E+02  0.51100000000E-03 0.  1.
         11   -1    0    0    0    0 -0.00000000000E+00 -0.00000000000E+00 -0.45593999997E+02  0.45594000000E+02  0.51100000000E-03 0. -1.
    9900012    2    1    2    0    0  0.38826614719E+00 -0.21311629926E+00  0.10936804422E+01  0.90008039803E+02  0.90000305127E+02 0.  0.
         12    1    1    2    0    0 -0.38826614719E+00  0.21311629926E+00 -0.10936804422E+01  0.11799601975E+01  0.00000000000E+00 0. -1.
         11    1    3    3    0    0 -0.42639118835E+01 -0.12455229199E+02 -0.51113493554E+01  0.14122307582E+02  0.51100000000E-03 0. -1.
        -11    1    3    3    0    0  0.37339553525E+02  0.19263583563E+02  0.83423094427E+00  0.42024086553E+02  0.51100000000E-03 0.  1.
         12    1    3    3    0    0 -0.32687375494E+02 -0.70214706635E+01  0.53707988533E+01  0.33861645667E+02  0.00000000000E+00 0. -1.
</event>
<event>
 7    1  0.2084210E-015  0.9000778E+02  0.7816164E-02  0.1186339E+00
        -11   -1    0    0    0    0  0.00000000000E+00  0.00000000000E+00  0.45593999997E+02  0.45594000000E+02  0.51100000000E-03 0.  1.
         11   -1    0    0    0    0 -0.00000000000E+00 -0.00000000000E+00 -0.45593999997E+02  0.45594000000E+02  0.51100000000E-03 0. -1.
    9900012    2    1    2    0    0 -0.54619752953E+00 -0.86492647474E+00  0.58863274374E+00  0.90007780506E+02  0.90000042408E+02 0.  0.
         12    1    1    2    0    0  0.54619752953E+00  0.86492647474E+00 -0.58863274374E+00  0.11802194944E+01  0.00000000000E+00 0. -1.
         11    1    3    3    0    0 -0.13171220108E+02 -0.15715397495E+02  0.26812574202E+01  0.20679552683E+02  0.51100000000E-03 0. -1.
        -11    1    3    3    0    0  0.20286571713E+02 -0.14790684261E+02  0.19563056991E+02  0.31828014890E+02  0.51100000000E-03 0.  1.
         12    1    3    3    0    0 -0.76615491341E+01  0.29641155281E+02 -0.21655681667E+02  0.37500212933E+02  0.00000000000E+00 0. -1.
</event>
<event>
 7    1  0.2084210E-015  0.9000775E+02  0.7816164E-02  0.1186339E+00
        -11   -1    0    0    0    0  0.00000000000E+00  0.00000000000E+00  0.45593999997E+02  0.45594000000E+02  0.51100000000E-03 0. -1.
         11   -1    0    0    0    0 -0.00000000000E+00 -0.00000000000E+00 -0.45593999997E+02  0.45594000000E+02  0.51100000000E-03 0.  1.
    9900012    2    1    2    0    0 -0.10720496065E+00 -0.45855535975E+00 -0.10822276109E+01  0.90007753194E+02  0.90000014736E+02 0.  0.
         12    1    1    2    0    0  0.10720496065E+00  0.45855535975E+00  0.10822276109E+01  0.11802468061E+01  0.00000000000E+00 0. -1.
         11    1    3    3    0    0  0.50933250240E+01  0.57951795921E+01  0.53683947972E+01  0.93992408877E+01  0.51100000000E-03 0. -1.
        -11    1    3    3    0    0  0.15809525830E+02  0.32567897657E+02 -0.33703849078E+01  0.36358885564E+02  0.51100000000E-03 0.  1.
         12    1    3    3    0    0 -0.21010055815E+02 -0.38821632609E+02 -0.30802375002E+01  0.44249626742E+02  0.00000000000E+00 0. -1.
</event>
<event>
 7    1  0.2084210E-015  0.9000841E+02  0.7816164E-02  0.1186338E+00
        -11   -1    0    0    0    0  0.00000000000E+00  0.00000000000E+00  0.45593999997E+02  0.45594000000E+02  0.51100000000E-03 0. -1.
         11   -1    0    0    0    0 -0.00000000000E+00 -0.00000000000E+00 -0.45593999997E+02  0.45594000000E+02  0.51100000000E-03 0.  1.
    9900012    2    1    2    0    0  0.95340586052E+00  0.48284327730E+00 -0.49931267353E+00  0.90008409600E+02  0.90000679804E+02 0.  0.
         12    1    1    2    0    0 -0.95340586052E+00 -0.48284327730E+00  0.49931267353E+00  0.11795903998E+01  0.00000000000E+00 0. -1.
         11    1    3    3    0    0  0.28125562583E+02  0.20657491550E+02 -0.35227191397E+01  0.35074047074E+02  0.51100000000E-03 0. -1.
        -11    1    3    3    0    0  0.87010653245E+01  0.26745589819E+01  0.79916338000E+01  0.12113133970E+02  0.51100000000E-03 0.  1.
        -12    1    3    3    0    0 -0.35873222047E+02 -0.22849207254E+02 -0.49682273338E+01  0.42821228556E+02  0.00000000000E+00 0.  1.
</event>
<event>
 7    1  0.2084210E-015  0.9000772E+02  0.7816164E-02  0.1186339E+00
        -11   -1    0    0    0    0  0.00000000000E+00  0.00000000000E+00  0.45593999997E+02  0.45594000000E+02  0.51100000000E-03 0.  1.
         11   -1    0    0    0    0 -0.00000000000E+00 -0.00000000000E+00 -0.45593999997E+02  0.45594000000E+02  0.51100000000E-03 0. -1.
    9900012    2    1    2    0    0 -0.91492591454E-01  0.51218382729E+00  0.10594187423E+01  0.90007715611E+02  0.89999976657E+02 0.  0.
         12    1    1    2    0    0  0.91492591454E-01 -0.51218382729E+00 -0.10594187423E+01  0.11802843889E+01  0.00000000000E+00 0. -1.
         11    1    3    3    0    0 -0.49977584389E+01  0.75157722695E+01 -0.11199967849E+01  0.90949884706E+01  0.51100000000E-03 0. -1.
        -11    1    3    3    0    0 -0.54691622463E+01  0.30022794625E+02 -0.20033743936E+02  0.36505216464E+02  0.51100000000E-03 0.  1.
         12    1    3    3    0    0  0.10375428094E+02 -0.37026383067E+02  0.22213159463E+02  0.44407510676E+02  0.00000000000E+00 0. -1.
</event>
<event>
 7    1  0.2084210E-015  0.9000771E+02  0.7816164E-02  0.1186339E+00
        -11   -1    0    0    0    0  0.00000000000E+00  0.00000000000E+00  0.45593999997E+02  0.45594000000E+02  0.51100000000E-03 0.  1.
         11   -1    0    0    0    0 -0.00000000000E+00 -0.00000000000E+00 -0.45593999997E+02  0.45594000000E+02  0.51100000000E-03 0. -1.
    9900012    2    1    2    0    0 -0.66372020339E+00 -0.48905584663E-02  0.97598291003E+00  0.90007707211E+02  0.89999968147E+02 0.  0.
         12    1    1    2    0    0  0.66372020339E+00  0.48905584663E-02 -0.97598291003E+00  0.11802927885E+01  0.00000000000E+00 0. -1.
         11    1    3    3    0    0  0.25155587361E+02 -0.20998518313E+02 -0.25075548059E+02  0.41261658445E+02  0.51100000000E-03 0. -1.
        -11    1    3    3    0    0 -0.85359769308E+01  0.11250017871E+01 -0.33832810723E+01  0.92506822591E+01  0.51100000000E-03 0.  1.
        -12    1    3    3    0    0 -0.17283330634E+02  0.19868625968E+02  0.29434812042E+02  0.39495366508E+02  0.00000000000E+00 0.  1.
</event>
<event>
 7    1  0.2084210E-015  0.9000739E+02  0.7816164E-02  0.1186340E+00
        -11   -1    0    0    0    0  0.00000000000E+00  0.00000000000E+00  0.45593999997E+02  0.45594000000E+02  0.51100000000E-03 0. -1.
         11   -1    0    0    0    0 -0.00000000000E+00 -0.00000000000E+00 -0.45593999997E+02  0.45594000000E+02  0.51100000000E-03 0.  1.
    9900012    2    1    2    0    0  0.15987128674E+00 -0.98096138303E+00  0.63717164890E+00  0.90007393472E+02  0.89999650265E+02 0.  0.
         12    1    1    2    0    0 -0.15987128674E+00  0.98096138303E+00 -0.63717164890E+00  0.11806065278E+01  0.00000000000E+00 0. -1.
         11    1    3    3    0    0 -0.16463803202E+01  0.32977267230E+02  0.18598492771E+02  0.37896103438E+02  0.51100000000E-03 0. -1.
        -11    1    3    3    0    0 -0.24563704046E+01  0.66046536409E+01 -0.68757896662E+01  0.98453892293E+01  0.51100000000E-03 0.  1.
        -12    1    3    3    0    0  0.42626220116E+01 -0.40562882254E+02 -0.11085531456E+02  0.42265900805E+02  0.00000000000E+00 0.  1.
</event>
<event>
 7    1  0.2084210E-015  0.9000775E+02  0.7816164E-02  0.1186339E+00
        -11   -1    0    0    0    0  0.00000000000E+00  0.00000000000E+00  0.45593999997E+02  0.45594000000E+02  0.51100000000E-03 0. -1.
         11   -1    0    0    0    0 -0.00000000000E+00 -0.00000000000E+00 -0.45593999997E+02  0.45594000000E+02  0.51100000000E-03 0.  1.
    9900012    2    1    2    0    0  0.53336614090E+00  0.21235063656E-01 -0.10526442095E+01  0.90007749942E+02  0.90000011441E+02 0.  0.
         12    1    1    2    0    0 -0.53336614090E+00 -0.21235063656E-01  0.10526442095E+01  0.11802500583E+01  0.00000000000E+00 0. -1.
         11    1    3    3    0    0 -0.21462943204E+02 -0.14576222241E+02  0.28069691005E+02  0.38223444889E+02  0.51100000000E-03 0. -1.
        -11    1    3    3    0    0  0.31522356191E+01 -0.11813858328E+01  0.71883592460E+01  0.79375544594E+01  0.51100000000E-03 0.  1.
        -12    1    3    3    0    0  0.18844073726E+02  0.15778843137E+02 -0.36310694461E+02  0.43846750593E+02  0.00000000000E+00 0.  1.
</event>
<event>
 7    1  0.2084210E-015  0.9000775E+02  0.7816164E-02  0.1186339E+00
        -11   -1    0    0    0    0  0.00000000000E+00  0.00000000000E+00  0.45593999997E+02  0.45594000000E+02  0.51100000000E-03 0. -1.
         11   -1    0    0    0    0 -0.00000000000E+00 -0.00000000000E+00 -0.45593999997E+02  0.45594000000E+02  0.51100000000E-03 0.  1.
    9900012    2    1    2    0    0  0.63594259707E+00  0.41817070106E+00 -0.90205583392E+00  0.90007748141E+02  0.90000009617E+02 0.  0.
         12    1    1    2    0    0 -0.63594259707E+00 -0.41817070106E+00  0.90205583392E+00  0.11802518585E+01  0.00000000000E+00 0. -1.
         11    1    3    3    0    0 -0.11059912658E+02  0.49678745149E+01 -0.91807264574E+01  0.15208128870E+02  0.51100000000E-03 0. -1.
        -11    1    3    3    0    0  0.66249408533E+01 -0.19311592620E+02 -0.28377480597E+02  0.34958673546E+02  0.51100000000E-03 0.  1.
         12    1    3    3    0    0  0.50709144015E+01  0.14761888806E+02  0.36656151220E+02  0.39840945725E+02  0.00000000000E+00 0. -1.
</event>
<event>
 7    1  0.2084210E-015  0.9000768E+02  0.7816164E-02  0.1186339E+00
        -11   -1    0    0    0    0  0.00000000000E+00  0.00000000000E+00  0.45593999997E+02  0.45594000000E+02  0.51100000000E-03 0. -1.
         11   -1    0    0    0    0 -0.00000000000E+00 -0.00000000000E+00 -0.45593999997E+02  0.45594000000E+02  0.51100000000E-03 0.  1.
    9900012    2    1    2    0    0  0.44794983837E+00  0.88571923187E+00 -0.63873988530E+00  0.90007683832E+02  0.89999944459E+02 0.  0.
         12    1    1    2    0    0 -0.44794983837E+00 -0.88571923187E+00  0.63873988530E+00  0.11803161680E+01  0.00000000000E+00 0. -1.
         11    1    3    3    0    0 -0.23998213265E+01 -0.47848766700E+01  0.75744858027E+01  0.92750753410E+01  0.51100000000E-03 0. -1.
        -11    1    3    3    0    0 -0.22952327440E+02 -0.22459362641E+02  0.15643618493E+02  0.35720513784E+02  0.51100000000E-03 0.  1.
         12    1    3    3    0    0  0.25800098605E+02  0.28129958542E+02 -0.23856844181E+02  0.45012094707E+02  0.00000000000E+00 0. -1.
</event>
<event>
 7    1  0.2084210E-015  0.9000796E+02  0.7816164E-02  0.1186339E+00
        -11   -1    0    0    0    0  0.00000000000E+00  0.00000000000E+00  0.45593999997E+02  0.45594000000E+02  0.51100000000E-03 0.  1.
         11   -1    0    0    0    0 -0.00000000000E+00 -0.00000000000E+00 -0.45593999997E+02  0.45594000000E+02  0.51100000000E-03 0. -1.
    9900012    2    1    2    0    0  0.39542557357E+00 -0.11040348692E+01  0.13132705803E+00  0.90007957131E+02  0.90000221365E+02 0.  0.
         12    1    1    2    0    0 -0.39542557357E+00  0.11040348692E+01 -0.13132705803E+00  0.11800428690E+01  0.00000000000E+00 0. -1.
         11    1    3    3    0    0 -0.43138447406E+01 -0.43171312540E+01 -0.76165579797E+01  0.97600632390E+01  0.51100000000E-03 0. -1.
        -11    1    3    3    0    0 -0.37286186765E+02  0.41618318925E+01 -0.84085665748E-01  0.37517830945E+02  0.51100000000E-03 0.  1.
         12    1    3    3    0    0  0.41995457079E+02 -0.94873550771E+00  0.78319707035E+01  0.42730062947E+02  0.00000000000E+00 0. -1.
</event>
<event>
 7    1  0.2084210E-015  0.9000756E+02  0.7816164E-02  0.1186339E+00
        -11   -1    0    0    0    0  0.00000000000E+00  0.00000000000E+00  0.45593999997E+02  0.45594000000E+02  0.51100000000E-03 0.  1.
         11   -1    0    0    0    0 -0.00000000000E+00 -0.00000000000E+00 -0.45593999997E+02  0.45594000000E+02  0.51100000000E-03 0. -1.
    9900012    2    1    2    0    0  0.90327502489E+00 -0.35217511655E+00  0.67343577263E+00  0.90007555667E+02  0.89999814602E+02 0.  0.
         12    1    1    2    0    0 -0.90327502489E+00  0.35217511655E+00 -0.67343577263E+00  0.11804443329E+01  0.00000000000E+00 0. -1.
         11    1    3    3    0    0  0.13719455578E+02 -0.21250692342E+02 -0.19150835819E+02  0.31726485768E+02  0.51100000000E-03 0. -1.
        -11    1    3    3    0    0  0.70633496072E+01 -0.13375655682E+02  0.42916664094E+01  0.15723150875E+02  0.51100000000E-03 0.  1.
        -12    1    3    3    0    0 -0.19879530160E+02  0.34274172908E+02  0.15532605182E+02  0.42557919024E+02  0.00000000000E+00 0.  1.
</event>
<event>
 7    1  0.2084210E-015  0.9000778E+02  0.7816164E-02  0.1186339E+00
        -11   -1    0    0    0    0  0.00000000000E+00  0.00000000000E+00  0.45593999997E+02  0.45594000000E+02  0.51100000000E-03 0. -1.
         11   -1    0    0    0    0 -0.00000000000E+00 -0.00000000000E+00 -0.45593999997E+02  0.45594000000E+02  0.51100000000E-03 0.  1.
    9900012    2    1    2    0    0  0.98697099569E+00 -0.57120931286E+00 -0.30417477396E+00  0.90007782173E+02  0.90000044098E+02 0.  0.
         12    1    1    2    0    0 -0.98697099569E+00  0.57120931286E+00  0.30417477396E+00  0.11802178267E+01  0.00000000000E+00 0. -1.
         11    1    3    3    0    0 -0.46502844107E+01  0.54836122607E+01 -0.10389440225E+02  0.12634698927E+02  0.51100000000E-03 0. -1.
        -11    1    3    3    0    0  0.15015680242E+02  0.26935638323E+02 -0.15566035240E+02  0.34544185015E+02  0.51100000000E-03 0.  1.
         12    1    3    3    0    0 -0.93784248354E+01 -0.32990459896E+02  0.25651300691E+02  0.42828898231E+02  0.00000000000E+00 0. -1.
</event>
<event>
 7    1  0.2084210E-015  0.9000775E+02  0.7816164E-02  0.1186339E+00
        -11   -1    0    0    0    0  0.00000000000E+00  0.00000000000E+00  0.45593999997E+02  0.45594000000E+02  0.51100000000E-03 0. -1.
         11   -1    0    0    0    0 -0.00000000000E+00 -0.00000000000E+00 -0.45593999997E+02  0.45594000000E+02  0.51100000000E-03 0.  1.
    9900012    2    1    2    0    0 -0.11569136353E+01 -0.78561489895E-01 -0.21993183502E+00  0.90007749569E+02  0.90000011064E+02 0.  0.
         12    1    1    2    0    0  0.11569136353E+01  0.78561489895E-01  0.21993183502E+00  0.11802504307E+01  0.00000000000E+00 0. -1.
         11    1    3    3    0    0  0.14095203905E+02 -0.95725954307E+01 -0.56895913019E+00  0.17047963842E+02  0.51100000000E-03 0. -1.
        -11    1    3    3    0    0  0.30751792220E+01  0.38291879067E+02 -0.36644369503E+01  0.38589542990E+02  0.51100000000E-03 0.  1.
         12    1    3    3    0    0 -0.18327296763E+02 -0.28797845126E+02  0.40134642455E+01  0.34370242737E+02  0.00000000000E+00 0. -1.
</event>
<event>
 7    1  0.2084210E-015  0.9000773E+02  0.7816164E-02  0.1186339E+00
        -11   -1    0    0    0    0  0.00000000000E+00  0.00000000000E+00  0.45593999997E+02  0.45594000000E+02  0.51100000000E-03 0. -1.
         11   -1    0    0    0    0 -0.00000000000E+00 -0.00000000000E+00 -0.45593999997E+02  0.45594000000E+02  0.51100000000E-03 0.  1.
    9900012    2    1    2    0    0  0.49423213204E+00  0.29054740212E+00 -0.10316730059E+01  0.90007732071E+02  0.89999993334E+02 0.  0.
         12    1    1    2    0    0 -0.49423213204E+00 -0.29054740212E+00  0.10316730059E+01  0.11802679290E+01  0.00000000000E+00 0. -1.
         11    1    3    3    0    0  0.45384540684E+01  0.48788617340E+01 -0.45884282098E+01  0.80903974469E+01  0.51100000000E-03 0. -1.
        -11    1    3    3    0    0  0.25297023952E+01  0.34277108814E+02 -0.16003479947E+02  0.37913466651E+02  0.51100000000E-03 0.  1.
         12    1    3    3    0    0 -0.65739243316E+01 -0.38865423146E+02  0.19560235151E+02  0.44003867973E+02  0.00000000000E+00 0. -1.
</event>
<event>
 7    1  0.2084210E-015  0.9000808E+02  0.7816164E-02  0.1186338E+00
        -11   -1    0    0    0    0  0.00000000000E+00  0.00000000000E+00  0.45593999997E+02  0.45594000000E+02  0.51100000000E-03 0.  1.
         11   -1    0    0    0    0 -0.00000000000E+00 -0.00000000000E+00 -0.45593999997E+02  0.45594000000E+02  0.51100000000E-03 0. -1.
    9900012    2    1    2    0    0 -0.38125838797E+00 -0.92979637780E+00  0.61833141914E+00  0.90008079237E+02  0.90000345082E+02 0.  0.
         12    1    1    2    0    0  0.38125838797E+00  0.92979637780E+00 -0.61833141914E+00  0.11799207628E+01  0.00000000000E+00 0. -1.
         11    1    3    3    0    0  0.33605448206E+01  0.61824634829E+01 -0.90944878234E+01  0.11498948875E+02  0.51100000000E-03 0. -1.
        -11    1    3    3    0    0 -0.30305977611E+02  0.42032406321E+01  0.30289842385E+02  0.43053386194E+02  0.51100000000E-03 0.  1.
         12    1    3    3    0    0  0.26564174402E+02 -0.11315500493E+02 -0.20577023143E+02  0.35455744168E+02  0.00000000000E+00 0. -1.
</event>
<event>
 7    1  0.2084210E-015  0.9000779E+02  0.7816164E-02  0.1186339E+00
        -11   -1    0    0    0    0  0.00000000000E+00  0.00000000000E+00  0.45593999997E+02  0.45594000000E+02  0.51100000000E-03 0.  1.
         11   -1    0    0    0    0 -0.00000000000E+00 -0.00000000000E+00 -0.45593999997E+02  0.45594000000E+02  0.51100000000E-03 0. -1.
    9900012    2    1    2    0    0  0.80741595730E+00  0.11901005103E+00  0.85252726029E+00  0.90007793810E+02  0.90000055889E+02 0.  0.
         12    1    1    2    0    0 -0.80741595730E+00 -0.11901005103E+00 -0.85252726029E+00  0.11802061896E+01  0.00000000000E+00 0. -1.
         11    1    3    3    0    0  0.73592446349E+01 -0.47980566698E+01 -0.40650090063E+01  0.96800892499E+01  0.51100000000E-03 0. -1.
        -11    1    3    3    0    0  0.20869821787E+02  0.33415205219E+02  0.94664115088E+01  0.40518370504E+02  0.51100000000E-03 0.  1.
         12    1    3    3    0    0 -0.27421650464E+02 -0.28498138498E+02 -0.45488752422E+01  0.39809334056E+02  0.00000000000E+00 0. -1.
</event>
<event>
 7    1  0.2084210E-015  0.9000783E+02  0.7816164E-02  0.1186339E+00
        -11   -1    0    0    0    0  0.00000000000E+00  0.00000000000E+00  0.45593999997E+02  0.45594000000E+02  0.51100000000E-03 0. -1.
         11   -1    0    0    0    0 -0.00000000000E+00 -0.00000000000E+00 -0.45593999997E+02  0.45594000000E+02  0.51100000000E-03 0.  1.
    9900012    2    1    2    0    0  0.65698351412E+00 -0.57203459859E+00 -0.79621243247E+00  0.90007828336E+02  0.90000090870E+02 0.  0.
         12    1    1    2    0    0 -0.65698351412E+00  0.57203459859E+00  0.79621243247E+00  0.11801716644E+01  0.00000000000E+00 0. -1.
         11    1    3    3    0    0  0.86862938679E+01 -0.32616270784E+02 -0.17027392167E+02  0.37804826482E+02  0.51100000000E-03 0. -1.
        -11    1    3    3    0    0  0.47120725950E+01 -0.69715527294E+01  0.43601009844E+01  0.94771650009E+01  0.51100000000E-03 0.  1.
        -12    1    3    3    0    0 -0.12741382949E+02  0.39015788915E+02  0.11871078750E+02  0.42725836853E+02  0.00000000000E+00 0.  1.
</event>
<event>
 7    1  0.2084210E-015  0.9000773E+02  0.7816164E-02  0.1186339E+00
        -11   -1    0    0    0    0  0.00000000000E+00  0.00000000000E+00  0.45593999997E+02  0.45594000000E+02  0.51100000000E-03 0.  1.
         11   -1    0    0    0    0 -0.00000000000E+00 -0.00000000000E+00 -0.45593999997E+02  0.45594000000E+02  0.51100000000E-03 0. -1.
    9900012    2    1    2    0    0  0.90013364471E+00  0.11822698901E+00  0.75420081779E+00  0.90007730085E+02  0.89999991322E+02 0.  0.
         12    1    1    2    0    0 -0.90013364471E+00 -0.11822698901E+00 -0.75420081779E+00  0.11802699152E+01  0.00000000000E+00 0. -1.
         11    1    3    3    0    0  0.48726310323E+01 -0.10899209822E+02 -0.10207531982E+02  0.15707610173E+02  0.51100000000E-03 0. -1.
        -11    1    3    3    0    0  0.29073565319E+02  0.19935213826E+01  0.23893171661E+02  0.37684611981E+02  0.51100000000E-03 0.  1.
         12    1    3    3    0    0 -0.33046062706E+02  0.90239154280E+01 -0.12931438862E+02  0.36615507931E+02  0.00000000000E+00 0. -1.
</event>
<event>
 7    1  0.2084210E-015  0.9000775E+02  0.7816164E-02  0.1186339E+00
        -11   -1    0    0    0    0  0.00000000000E+00  0.00000000000E+00  0.45593999997E+02  0.45594000000E+02  0.51100000000E-03 0. -1.
         11   -1    0    0    0    0 -0.00000000000E+00 -0.00000000000E+00 -0.45593999997E+02  0.45594000000E+02  0.51100000000E-03 0.  1.
    9900012    2    1    2    0    0  0.64367338379E+00 -0.75698384416E-01 -0.98638141827E+00  0.90007748343E+02  0.90000009822E+02 0.  0.
         12    1    1    2    0    0 -0.64367338379E+00  0.75698384416E-01  0.98638141827E+00  0.11802516565E+01  0.00000000000E+00 0. -1.
         11    1    3    3    0    0  0.30980953687E+01 -0.52227008017E-01 -0.92972825689E+01  0.98000196939E+01  0.51100000000E-03 0. -1.
        -11    1    3    3    0    0  0.39700695730E+00  0.39168774720E+02  0.11385165783E+02  0.40791819373E+02  0.51100000000E-03 0.  1.
         12    1    3    3    0    0 -0.28514289422E+01 -0.39192246096E+02 -0.30742646320E+01  0.39415909277E+02  0.00000000000E+00 0. -1.
</event>
<event>
 7    1  0.2084210E-015  0.9000771E+02  0.7816164E-02  0.1186339E+00
        -11   -1    0    0    0    0  0.00000000000E+00  0.00000000000E+00  0.45593999997E+02  0.45594000000E+02  0.51100000000E-03 0.  1.
         11   -1    0    0    0    0 -0.00000000000E+00 -0.00000000000E+00 -0.45593999997E+02  0.45594000000E+02  0.51100000000E-03 0. -1.
    9900012    2    1    2    0    0  0.59836986798E+00 -0.63530141869E+00  0.79462519786E+00  0.90007710376E+02  0.89999971353E+02 0.  0.
         12    1    1    2    0    0 -0.59836986798E+00  0.63530141869E+00 -0.79462519786E+00  0.11802896240E+01  0.00000000000E+00 0. -1.
         11    1    3    3    0    0 -0.11382318451E+02  0.33341973073E+02  0.14289891872E+02  0.38019013029E+02  0.51100000000E-03 0. -1.
        -11    1    3    3    0    0 -0.59596564952E+01  0.42419634725E+01 -0.51636126911E+01  0.89540301501E+01  0.51100000000E-03 0.  1.
        -12    1    3    3    0    0  0.17940344815E+02 -0.38219237964E+02 -0.83316539829E+01  0.43034667197E+02  0.00000000000E+00 0.  1.
</event>
<event>
 7    1  0.2084210E-015  0.9000769E+02  0.7816164E-02  0.1186339E+00
        -11   -1    0    0    0    0  0.00000000000E+00  0.00000000000E+00  0.45593999997E+02  0.45594000000E+02  0.51100000000E-03 0.  1.
         11   -1    0    0    0    0 -0.00000000000E+00 -0.00000000000E+00 -0.45593999997E+02  0.45594000000E+02  0.51100000000E-03 0. -1.
    9900012    2    1    2    0    0  0.27223127305E+00  0.10569442342E+01 -0.44932677690E+00  0.90007688375E+02  0.89999949061E+02 0.  0.
         12    1    1    2    0    0 -0.27223127305E+00 -0.10569442342E+01  0.44932677690E+00  0.11803116253E+01  0.00000000000E+00 0. -1.
         11    1    3    3    0    0 -0.90793230892E+01  0.37976283192E+01  0.29511190016E+01  0.10274492310E+02  0.51100000000E-03 0. -1.
        -11    1    3    3    0    0 -0.31678287441E+02  0.12176522833E+02  0.74535411710E+01  0.34746753514E+02  0.51100000000E-03 0.  1.
         12    1    3    3    0    0  0.41029841803E+02 -0.14917206918E+02 -0.10853986950E+02  0.44986442551E+02  0.00000000000E+00 0. -1.
</event>
<event>
 7    1  0.2084210E-015  0.9000765E+02  0.7816164E-02  0.1186339E+00
        -11   -1    0    0    0    0  0.00000000000E+00  0.00000000000E+00  0.45593999997E+02  0.45594000000E+02  0.51100000000E-03 0.  1.
         11   -1    0    0    0    0 -0.00000000000E+00 -0.00000000000E+00 -0.45593999997E+02  0.45594000000E+02  0.51100000000E-03 0. -1.
    9900012    2    1    2    0    0  0.27546746609E+00 -0.38866278882E+00 -0.10799476354E+01  0.90007649212E+02  0.89999909381E+02 0.  0.
         12    1    1    2    0    0 -0.27546746609E+00  0.38866278882E+00  0.10799476354E+01  0.11803507883E+01  0.00000000000E+00 0. -1.
         11    1    3    3    0    0 -0.10944799847E+02  0.19642999812E+02 -0.32558467633E+02  0.39568799579E+02  0.51100000000E-03 0. -1.
        -11    1    3    3    0    0  0.11534973415E+02  0.26619548524E+01  0.25837189512E+00  0.11840961600E+02  0.51100000000E-03 0.  1.
         12    1    3    3    0    0 -0.31470610134E+00 -0.22693617453E+02  0.31220148102E+02  0.38597888032E+02  0.00000000000E+00 0. -1.
</event>
<event>
 7    1  0.2084210E-015  0.9000770E+02  0.7816164E-02  0.1186339E+00
        -11   -1    0    0    0    0  0.00000000000E+00  0.00000000000E+00  0.45593999997E+02  0.45594000000E+02  0.51100000000E-03 0.  1.
         11   -1    0    0    0    0 -0.00000000000E+00 -0.00000000000E+00 -0.45593999997E+02  0.45594000000E+02  0.51100000000E-03 0. -1.
    9900012    2    1    2    0    0  0.20885476379E+00  0.99185535605E+00 -0.60473569533E+00  0.90007702317E+02  0.89999963187E+02 0.  0.
         12    1    1    2    0    0 -0.20885476379E+00 -0.99185535605E+00  0.60473569533E+00  0.11802976832E+01  0.00000000000E+00 0. -1.
         11    1    3    3    0    0  0.27074188573E+02 -0.19223200203E+02  0.20074151898E+02  0.38800962457E+02  0.51100000000E-03 0. -1.
        -11    1    3    3    0    0 -0.40462232710E+01  0.51927589060E+01  0.88163115559E+01  0.11002909503E+02  0.51100000000E-03 0.  1.
        -12    1    3    3    0    0 -0.22819110538E+02  0.15022296653E+02 -0.29495199149E+02  0.40203830357E+02  0.00000000000E+00 0.  1.
</event>
<event>
 7    1  0.2084210E-015  0.9000781E+02  0.7816164E-02  0.1186339E+00
        -11   -1    0    0    0    0  0.00000000000E+00  0.00000000000E+00  0.45593999997E+02  0.45594000000E+02  0.51100000000E-03 0.  1.
         11   -1    0    0    0    0 -0.00000000000E+00 -0.00000000000E+00 -0.45593999997E+02  0.45594000000E+02  0.51100000000E-03 0. -1.
    9900012    2    1    2    0    0  0.87071598757E+00 -0.44201590689E+00  0.66281644877E+00  0.90007809321E+02  0.90000071604E+02 0.  0.
         12    1    1    2    0    0 -0.87071598757E+00  0.44201590689E+00 -0.66281644877E+00  0.11801906785E+01  0.00000000000E+00 0. -1.
         11    1    3    3    0    0 -0.13046528764E+02 -0.38884896880E+02  0.58531848032E+01  0.41430748132E+02  0.51100000000E-03 0. -1.
        -11    1    3    3    0    0  0.97254062263E+01  0.76998196424E+00  0.20941224643E+01  0.99780633215E+01  0.51100000000E-03 0.  1.
        -12    1    3    3    0    0  0.41918385253E+01  0.37672899009E+02 -0.72844908187E+01  0.38598997868E+02  0.00000000000E+00 0.  1.
</event>
<event>
 7    1  0.2084210E-015  0.9000776E+02  0.7816164E-02  0.1186339E+00
        -11   -1    0    0    0    0  0.00000000000E+00  0.00000000000E+00  0.45593999997E+02  0.45594000000E+02  0.51100000000E-03 0. -1.
         11   -1    0    0    0    0 -0.00000000000E+00 -0.00000000000E+00 -0.45593999997E+02  0.45594000000E+02  0.51100000000E-03 0.  1.
    9900012    2    1    2    0    0 -0.51405654080E+00  0.27416815216E+00 -0.10264216405E+01  0.90007761174E+02  0.90000022821E+02 0.  0.
         12    1    1    2    0    0  0.51405654080E+00 -0.27416815216E+00  0.10264216405E+01  0.11802388262E+01  0.00000000000E+00 0. -1.
         11    1    3    3    0    0  0.31835700555E+02  0.61116047523E+00  0.28146001522E+01  0.31965721034E+02  0.51100000000E-03 0. -1.
        -11    1    3    3    0    0 -0.58707100750E+01 -0.22172716341E+02 -0.58209837841E+01  0.23663863573E+02  0.51100000000E-03 0.  1.
        -12    1    3    3    0    0 -0.26479047021E+02  0.21835724018E+02  0.19799619914E+01  0.34378176566E+02  0.00000000000E+00 0.  1.
</event>
<event>
 7    1  0.2084210E-015  0.9000776E+02  0.7816164E-02  0.1186339E+00
        -11   -1    0    0    0    0  0.00000000000E+00  0.00000000000E+00  0.45593999997E+02  0.45594000000E+02  0.51100000000E-03 0.  1.
         11   -1    0    0    0    0 -0.00000000000E+00 -0.00000000000E+00 -0.45593999997E+02  0.45594000000E+02  0.51100000000E-03 0. -1.
    9900012    2    1    2    0    0 -0.54353103545E+00  0.38322554353E+00  0.97502959819E+00  0.90007758279E+02  0.90000019888E+02 0.  0.
         12    1    1    2    0    0  0.54353103545E+00 -0.38322554353E+00 -0.97502959819E+00  0.11802417215E+01  0.00000000000E+00 0. -1.
         11    1    3    3    0    0  0.61552620238E+01  0.70853263072E+01  0.10891600466E+01  0.94485644057E+01  0.51100000000E-03 0. -1.
        -11    1    3    3    0    0  0.31112995987E+02 -0.41680308939E+01  0.20428566739E+02  0.37452868249E+02  0.51100000000E-03 0.  1.
         12    1    3    3    0    0 -0.37811789047E+02 -0.25340698697E+01 -0.20542697187E+02  0.43106325623E+02  0.00000000000E+00 0. -1.
</event>
<event>
 7    1  0.2084210E-015  0.9000775E+02  0.7816164E-02  0.1186339E+00
        -11   -1    0    0    0    0  0.00000000000E+00  0.00000000000E+00  0.45593999997E+02  0.45594000000E+02  0.51100000000E-03 0.  1.
         11   -1    0    0    0    0 -0.00000000000E+00 -0.00000000000E+00 -0.45593999997E+02  0.45594000000E+02  0.51100000000E-03 0. -1.
    9900012    2    1    2    0    0  0.11512255671E+01  0.24520409872E+00 -0.86853181738E-01  0.90007750521E+02  0.90000012028E+02 0.  0.
         12    1    1    2    0    0 -0.11512255671E+01 -0.24520409872E+00  0.86853181738E-01  0.11802494786E+01  0.00000000000E+00 0. -1.
         11    1    3    3    0    0  0.18682080106E+02  0.17336537552E+02 -0.28596521156E+02  0.38305830808E+02  0.51100000000E-03 0. -1.
        -11    1    3    3    0    0 -0.10518355660E+02 -0.16280136042E+01 -0.67246379239E+01  0.12589955900E+02  0.51100000000E-03 0.  1.
        -12    1    3    3    0    0 -0.70124988783E+01 -0.15463319849E+02  0.35234305898E+02  0.39111963814E+02  0.00000000000E+00 0.  1.
</event>
<event>
 7    1  0.2084210E-015  0.9000765E+02  0.7816164E-02  0.1186339E+00
        -11   -1    0    0    0    0  0.00000000000E+00  0.00000000000E+00  0.45593999997E+02  0.45594000000E+02  0.51100000000E-03 0. -1.
         11   -1    0    0    0    0 -0.00000000000E+00 -0.00000000000E+00 -0.45593999997E+02  0.45594000000E+02  0.51100000000E-03 0.  1.
    9900012    2    1    2    0    0  0.92451358499E+00 -0.73282040441E+00  0.38483700692E-01  0.90007647464E+02  0.89999907611E+02 0.  0.
         12    1    1    2    0    0 -0.92451358499E+00  0.73282040441E+00 -0.38483700692E-01  0.11803525360E+01  0.00000000000E+00 0. -1.
         11    1    3    3    0    0 -0.47577466260E+01  0.41973386058E+02  0.50829286519E+01  0.42546885363E+02  0.51100000000E-03 0. -1.
        -11    1    3    3    0    0  0.21929068782E+01 -0.58602004557E+01 -0.82011739193E+01  0.10315524411E+02  0.51100000000E-03 0.  1.
        -12    1    3    3    0    0  0.34893533328E+01 -0.36846006006E+02  0.31567289681E+01  0.37145237691E+02  0.00000000000E+00 0.  1.
</event>
<event>
 7    1  0.2084210E-015  0.9000769E+02  0.7816164E-02  0.1186339E+00
        -11   -1    0    0    0    0  0.00000000000E+00  0.00000000000E+00  0.45593999997E+02  0.45594000000E+02  0.51100000000E-03 0.  1.
         11   -1    0    0    0    0 -0.00000000000E+00 -0.00000000000E+00 -0.45593999997E+02  0.45594000000E+02  0.51100000000E-03 0. -1.
    9900012    2    1    2    0    0 -0.85091705411E+00 -0.57116204775E+00  0.58553909075E+00  0.90007685659E+02  0.89999946309E+02 0.  0.
         12    1    1    2    0    0  0.85091705411E+00  0.57116204775E+00 -0.58553909075E+00  0.11803143414E+01  0.00000000000E+00 0. -1.
         11    1    3    3    0    0 -0.32444902301E+01  0.97975872777E+01 -0.17888103999E+01  0.10474696951E+02  0.51100000000E-03 0. -1.
        -11    1    3    3    0    0  0.60250187140E+01 -0.58014073552E+01  0.40301159263E+02  0.41159939456E+02  0.51100000000E-03 0.  1.
         12    1    3    3    0    0 -0.36314455381E+01 -0.45673419703E+01 -0.37926809772E+02  0.38373049252E+02  0.00000000000E+00 0. -1.
</event>
<event>
 7    1  0.2084210E-015  0.9000776E+02  0.7816164E-02  0.1186339E+00
        -11   -1    0    0    0    0  0.00000000000E+00  0.00000000000E+00  0.45593999997E+02  0.45594000000E+02  0.51100000000E-03 0.  1.
         11   -1    0    0    0    0 -0.00000000000E+00 -0.00000000000E+00 -0.45593999997E+02  0.45594000000E+02  0.51100000000E-03 0. -1.
    9900012    2    1    2    0    0 -0.53727336748E-01 -0.11358443016E+01  0.31614612019E+00  0.90007755418E+02  0.90000016989E+02 0.  0.
         12    1    1    2    0    0  0.53727336748E-01  0.11358443016E+01 -0.31614612019E+00  0.11802445821E+01  0.00000000000E+00 0. -1.
         11    1    3    3    0    0 -0.37224672681E+01  0.89735040372E+01  0.16436163409E+01  0.98530204610E+01  0.51100000000E-03 0. -1.
        -11    1    3    3    0    0 -0.36669737779E+01 -0.25549365101E+02  0.32947255290E+02  0.41853773846E+02  0.51100000000E-03 0.  1.
         12    1    3    3    0    0  0.73357137093E+01  0.15440016762E+02 -0.34274725510E+02  0.38300961111E+02  0.00000000000E+00 0. -1.
</event>
<event>
 7    1  0.2084210E-015  0.9000779E+02  0.7816164E-02  0.1186339E+00
        -11   -1    0    0    0    0  0.00000000000E+00  0.00000000000E+00  0.45593999997E+02  0.45594000000E+02  0.51100000000E-03 0.  1.
         11   -1    0    0    0    0 -0.00000000000E+00 -0.00000000000E+00 -0.45593999997E+02  0.45594000000E+02  0.51100000000E-03 0. -1.
    9900012    2    1    2    0    0 -0.72820277675E-01 -0.87586131089E-01  0.11746983971E+01  0.90007792202E+02  0.90000054259E+02 0.  0.
         12    1    1    2    0    0  0.72820277675E-01  0.87586131089E-01 -0.11746983971E+01  0.11802077984E+01  0.00000000000E+00 0. -1.
         11    1    3    3    0    0  0.63473051147E+01  0.72069820527E+01  0.91156559822E+00  0.96467520249E+01  0.51100000000E-03 0. -1.
        -11    1    3    3    0    0 -0.15803040001E+02  0.18305275219E+02 -0.30715389602E+02  0.39092893635E+02  0.51100000000E-03 0.  1.
         12    1    3    3    0    0  0.93829146087E+01 -0.25599843403E+02  0.30978522401E+02  0.41268146541E+02  0.00000000000E+00 0. -1.
</event>
<event>
 7    1  0.2084210E-015  0.9000775E+02  0.7816164E-02  0.1186339E+00
        -11   -1    0    0    0    0  0.00000000000E+00  0.00000000000E+00  0.45593999997E+02  0.45594000000E+02  0.51100000000E-03 0.  1.
         11   -1    0    0    0    0 -0.00000000000E+00 -0.00000000000E+00 -0.45593999997E+02  0.45594000000E+02  0.51100000000E-03 0. -1.
    9900012    2    1    2    0    0 -0.38251275005E+00  0.11101130709E+01  0.11972577515E+00  0.90007745241E+02  0.90000006679E+02 0.  0.
         12    1    1    2    0    0  0.38251275005E+00 -0.11101130709E+01 -0.11972577515E+00  0.11802547586E+01  0.00000000000E+00 0. -1.
         11    1    3    3    0    0  0.30129504978E+02 -0.29235949617E+01 -0.25000025302E+02  0.39259848995E+02  0.51100000000E-03 0. -1.
        -11    1    3    3    0    0  0.58998042905E+01  0.18409197079E+01  0.88786986844E+01  0.10817946507E+02  0.51100000000E-03 0.  1.
        -12    1    3    3    0    0 -0.36411822019E+02  0.21927883247E+01  0.16241052393E+02  0.39929949739E+02  0.00000000000E+00 0.  1.
</event>
<event>
 7    1  0.2084210E-015  0.9000741E+02  0.7816164E-02  0.1186340E+00
        -11   -1    0    0    0    0  0.00000000000E+00  0.00000000000E+00  0.45593999997E+02  0.45594000000E+02  0.51100000000E-03 0. -1.
         11   -1    0    0    0    0 -0.00000000000E+00 -0.00000000000E+00 -0.45593999997E+02  0.45594000000E+02  0.51100000000E-03 0.  1.
    9900012    2    1    2    0    0 -0.10678481499E+00 -0.10018428121E+01 -0.61538961499E+00  0.90007408455E+02  0.89999665446E+02 0.  0.
         12    1    1    2    0    0  0.10678481499E+00  0.10018428121E+01  0.61538961499E+00  0.11805915446E+01  0.00000000000E+00 0. -1.
         11    1    3    3    0    0  0.29845433062E+02  0.20087493402E+02 -0.94301379711E+01  0.37191192079E+02  0.51100000000E-03 0. -1.
        -11    1    3    3    0    0  0.62383903943E+01 -0.59730167329E+01 -0.63980907178E+01  0.10748488670E+02  0.51100000000E-03 0.  1.
        -12    1    3    3    0    0 -0.36190608271E+02 -0.15116319481E+02  0.15212839074E+02  0.42067727706E+02  0.00000000000E+00 0.  1.
</event>
<event>
 7    1  0.2084210E-015  0.9000766E+02  0.7816164E-02  0.1186339E+00
        -11   -1    0    0    0    0  0.00000000000E+00  0.00000000000E+00  0.45593999997E+02  0.45594000000E+02  0.51100000000E-03 0.  1.
         11   -1    0    0    0    0 -0.00000000000E+00 -0.00000000000E+00 -0.45593999997E+02  0.45594000000E+02  0.51100000000E-03 0. -1.
    9900012    2    1    2    0    0 -0.97472769462E+00 -0.66457944826E+00 -0.37978039397E-01  0.90007660111E+02  0.89999920425E+02 0.  0.
         12    1    1    2    0    0  0.97472769462E+00  0.66457944826E+00  0.37978039397E-01  0.11803398888E+01  0.00000000000E+00 0. -1.
         11    1    3    3    0    0 -0.56226527075E+01 -0.11718731713E+02  0.34989779715E+01  0.13460525381E+02  0.51100000000E-03 0. -1.
        -11    1    3    3    0    0 -0.21676872372E+02 -0.77996594130E+01  0.24561980038E+02  0.33675099799E+02  0.51100000000E-03 0.  1.
         12    1    3    3    0    0  0.26324797385E+02  0.18853811677E+02 -0.28098936049E+02  0.42872034932E+02  0.00000000000E+00 0. -1.
</event>
<event>
 7    1  0.2084210E-015  0.9000776E+02  0.7816164E-02  0.1186339E+00
        -11   -1    0    0    0    0  0.00000000000E+00  0.00000000000E+00  0.45593999997E+02  0.45594000000E+02  0.51100000000E-03 0.  1.
         11   -1    0    0    0    0 -0.00000000000E+00 -0.00000000000E+00 -0.45593999997E+02  0.45594000000E+02  0.51100000000E-03 0. -1.
    9900012    2    1    2    0    0 -0.11081842327E+01  0.26806413104E+00 -0.30501397990E+00  0.90007760956E+02  0.90000022601E+02 0.  0.
         12    1    1    2    0    0  0.11081842327E+01 -0.26806413104E+00  0.30501397990E+00  0.11802390435E+01  0.00000000000E+00 0. -1.
         11    1    3    3    0    0  0.18692209223E+02 -0.36253940092E+02  0.37933768920E+01  0.40965065194E+02  0.51100000000E-03 0. -1.
        -11    1    3    3    0    0 -0.89151966017E+01 -0.17464292508E+01 -0.72972997022E+00  0.91139043042E+01  0.51100000000E-03 0.  1.
        -12    1    3    3    0    0 -0.10885196854E+02  0.38268433473E+02 -0.33686609017E+01  0.39928791459E+02  0.00000000000E+00 0.  1.
</event>
<event>
 7    1  0.2084210E-015  0.9000774E+02  0.7816164E-02  0.1186339E+00
        -11   -1    0    0    0    0  0.00000000000E+00  0.00000000000E+00  0.45593999997E+02  0.45594000000E+02  0.51100000000E-03 0.  1.
         11   -1    0    0    0    0 -0.00000000000E+00 -0.00000000000E+00 -0.45593999997E+02  0.45594000000E+02  0.51100000000E-03 0. -1.
    9900012    2    1    2    0    0 -0.10530646532E+00  0.93809946418E+00  0.70844608021E+00  0.90007739052E+02  0.90000000408E+02 0.  0.
         12    1    1    2    0    0  0.10530646532E+00 -0.93809946418E+00 -0.70844608021E+00  0.11802609478E+01  0.00000000000E+00 0. -1.
         11    1    3    3    0    0  0.26537534066E+02 -0.12806864232E+02  0.30048178861E+02  0.42085027490E+02  0.51100000000E-03 0. -1.
        -11    1    3    3    0    0 -0.24673928262E+00  0.10905709715E+02 -0.11980508405E+02  0.16202714790E+02  0.51100000000E-03 0.  1.
        -12    1    3    3    0    0 -0.26396101248E+02  0.28392539816E+01 -0.17359224376E+02  0.31719996772E+02  0.00000000000E+00 0.  1.
</event>
<event>
 7    1  0.2084210E-015  0.9000769E+02  0.7816164E-02  0.1186339E+00
        -11   -1    0    0    0    0  0.00000000000E+00  0.00000000000E+00  0.45593999997E+02  0.45594000000E+02  0.51100000000E-03 0.  1.
         11   -1    0    0    0    0 -0.00000000000E+00 -0.00000000000E+00 -0.45593999997E+02  0.45594000000E+02  0.51100000000E-03 0. -1.
    9900012    2    1    2    0    0 -0.10760875826E+01  0.40876216183E-01  0.48320440637E+00  0.90007694172E+02  0.89999954935E+02 0.  0.
         12    1    1    2    0    0  0.10760875826E+01 -0.40876216183E-01 -0.48320440637E+00  0.11803058285E+01  0.00000000000E+00 0. -1.
         11    1    3    3    0    0  0.41650607741E+01 -0.17413671096E+01  0.79173679925E+01  0.91139896232E+01  0.51100000000E-03 0. -1.
        -11    1    3    3    0    0  0.26947294635E+02  0.43398368654E+00  0.23848939925E+02  0.35987733547E+02  0.51100000000E-03 0.  1.
         12    1    3    3    0    0 -0.32188442992E+02  0.13482596393E+01 -0.31283103511E+02  0.44905971002E+02  0.00000000000E+00 0. -1.
</event>
<event>
 7    1  0.2193960E-015  0.9000780E+02  0.7816164E-02  0.1186339E+00
        -11   -1    0    0    0    0  0.00000000000E+00  0.00000000000E+00  0.45593999997E+02  0.45594000000E+02  0.51100000000E-03 0.  1.
         11   -1    0    0    0    0 -0.00000000000E+00 -0.00000000000E+00 -0.45593999997E+02  0.45594000000E+02  0.51100000000E-03 0. -1.
    9900012    2    1    2    0    0 -0.78724822530E-01  0.11251295685E+01  0.34749640545E+00  0.90007801756E+02  0.90000063939E+02 0.  0.
         12    1    1    2    0    0  0.78724822530E-01 -0.11251295685E+01 -0.34749640545E+00  0.11801982441E+01  0.00000000000E+00 0. -1.
         11    1    3    3    0    0 -0.51477962629E+01 -0.32894436158E+02 -0.18233369409E+02  0.37960499164E+02  0.51100000000E-03 0. -1.
        -11    1    3    3    0    0  0.64097652682E+01 -0.11412113710E+01 -0.62158452484E+01  0.90013435997E+01  0.51100000000E-03 0.  1.
        -12    1    3    3    0    0 -0.13406938278E+01  0.35160777097E+02  0.24796711063E+02  0.43045958992E+02  0.00000000000E+00 0.  1.
</event>
<event>
 7    1  0.2084210E-015  0.9000758E+02  0.7816164E-02  0.1186339E+00
        -11   -1    0    0    0    0  0.00000000000E+00  0.00000000000E+00  0.45593999997E+02  0.45594000000E+02  0.51100000000E-03 0.  1.
         11   -1    0    0    0    0 -0.00000000000E+00 -0.00000000000E+00 -0.45593999997E+02  0.45594000000E+02  0.51100000000E-03 0. -1.
    9900012    2    1    2    0    0 -0.20208655148E+00  0.59659050575E+00  0.99830889683E+00  0.90007584878E+02  0.89999844199E+02 0.  0.
         12    1    1    2    0    0  0.20208655148E+00 -0.59659050575E+00 -0.99830889683E+00  0.11804151216E+01  0.00000000000E+00 0. -1.
         11    1    3    3    0    0  0.35504052724E+02  0.76845996166E+01 -0.15360425954E+02  0.39440252494E+02  0.51100000000E-03 0. -1.
        -11    1    3    3    0    0 -0.65065860992E-01  0.75229462164E+01  0.83214265402E+01  0.11218069944E+02  0.51100000000E-03 0.  1.
        -12    1    3    3    0    0 -0.35641073414E+02 -0.14610955327E+02  0.80373083102E+01  0.39349262440E+02  0.00000000000E+00 0.  1.
</event>
<event>
 7    1  0.2084210E-015  0.9000856E+02  0.7816164E-02  0.1186337E+00
        -11   -1    0    0    0    0  0.00000000000E+00  0.00000000000E+00  0.45593999997E+02  0.45594000000E+02  0.51100000000E-03 0. -1.
         11   -1    0    0    0    0 -0.00000000000E+00 -0.00000000000E+00 -0.45593999997E+02  0.45594000000E+02  0.51100000000E-03 0.  1.
    9900012    2    1    2    0    0  0.11521485678E+01  0.62737664866E-01 -0.24434227455E+00  0.90008557130E+02  0.90000829280E+02 0.  0.
         12    1    1    2    0    0 -0.11521485678E+01 -0.62737664866E-01  0.24434227455E+00  0.11794428701E+01  0.00000000000E+00 0. -1.
         11    1    3    3    0    0  0.25405256952E+02  0.27207568959E+02 -0.12210391624E+02  0.39176173286E+02  0.51100000000E-03 0. -1.
        -11    1    3    3    0    0  0.66698027670E+01 -0.30639028790E+01  0.88756200532E+01  0.11517395599E+02  0.51100000000E-03 0.  1.
        -12    1    3    3    0    0 -0.30922911151E+02 -0.24080928415E+02  0.30904292965E+01  0.39314988244E+02  0.00000000000E+00 0.  1.
</event>
<event>
 7    1  0.2084210E-015  0.9000769E+02  0.7816164E-02  0.1186339E+00
        -11   -1    0    0    0    0  0.00000000000E+00  0.00000000000E+00  0.45593999997E+02  0.45594000000E+02  0.51100000000E-03 0.  1.
         11   -1    0    0    0    0 -0.00000000000E+00 -0.00000000000E+00 -0.45593999997E+02  0.45594000000E+02  0.51100000000E-03 0. -1.
    9900012    2    1    2    0    0 -0.71731734270E-01 -0.74524186540E+00  0.91246813251E+00  0.90007691154E+02  0.89999951877E+02 0.  0.
         12    1    1    2    0    0  0.71731734270E-01  0.74524186540E+00 -0.91246813251E+00  0.11803088462E+01  0.00000000000E+00 0. -1.
         11    1    3    3    0    0 -0.69981296612E+01 -0.42200304295E+01  0.26260966214E+01  0.85836390480E+01  0.51100000000E-03 0. -1.
        -11    1    3    3    0    0  0.34625408656E+02 -0.21883672782E+02  0.98526949310E+01  0.42129439311E+02  0.51100000000E-03 0.  1.
         12    1    3    3    0    0 -0.27699010729E+02  0.25358461346E+02 -0.11566323420E+02  0.39294612794E+02  0.00000000000E+00 0. -1.
</event>
<event>
 7    1  0.2084210E-015  0.9000771E+02  0.7816164E-02  0.1186339E+00
        -11   -1    0    0    0    0  0.00000000000E+00  0.00000000000E+00  0.45593999997E+02  0.45594000000E+02  0.51100000000E-03 0.  1.
         11   -1    0    0    0    0 -0.00000000000E+00 -0.00000000000E+00 -0.45593999997E+02  0.45594000000E+02  0.51100000000E-03 0. -1.
    9900012    2    1    2    0    0  0.25053950067E+00 -0.10304169839E+00 -0.11487781512E+01  0.90007712377E+02  0.89999973380E+02 0.  0.
         12    1    1    2    0    0 -0.25053950067E+00  0.10304169839E+00  0.11487781512E+01  0.11802876233E+01  0.00000000000E+00 0. -1.
         11    1    3    3    0    0  0.75997185513E+01 -0.68981672562E+01  0.19030661645E+01  0.10438491014E+02  0.51100000000E-03 0. -1.
        -11    1    3    3    0    0  0.94049431114E+00  0.47598982539E+01  0.37660458073E+02  0.37971716625E+02  0.51100000000E-03 0.  1.
         12    1    3    3    0    0 -0.82896733618E+01  0.20352273039E+01 -0.40712302389E+02  0.41597504738E+02  0.00000000000E+00 0. -1.
</event>
<event>
 7    1  0.2084210E-015  0.9000773E+02  0.7816164E-02  0.1186339E+00
        -11   -1    0    0    0    0  0.00000000000E+00  0.00000000000E+00  0.45593999997E+02  0.45594000000E+02  0.51100000000E-03 0.  1.
         11   -1    0    0    0    0 -0.00000000000E+00 -0.00000000000E+00 -0.45593999997E+02  0.45594000000E+02  0.51100000000E-03 0. -1.
    9900012    2    1    2    0    0 -0.20164505252E-01  0.95797554454E+00 -0.68913739279E+00  0.90007731345E+02  0.89999992599E+02 0.  0.
         12    1    1    2    0    0  0.20164505252E-01 -0.95797554454E+00  0.68913739279E+00  0.11802686547E+01  0.00000000000E+00 0. -1.
         11    1    3    3    0    0 -0.68908402886E+01  0.49992826103E+01  0.14479876424E+01  0.86355761229E+01  0.51100000000E-03 0. -1.
        -11    1    3    3    0    0 -0.35130074423E+02 -0.14480702406E+02  0.65892532253E+00  0.38003250572E+02  0.51100000000E-03 0.  1.
         12    1    3    3    0    0  0.42000750207E+02  0.10439395340E+02 -0.27960503577E+01  0.43368904651E+02  0.00000000000E+00 0. -1.
</event>
<event>
 7    1  0.2084210E-015  0.9000776E+02  0.7816164E-02  0.1186339E+00
        -11   -1    0    0    0    0  0.00000000000E+00  0.00000000000E+00  0.45593999997E+02  0.45594000000E+02  0.51100000000E-03 0. -1.
         11   -1    0    0    0    0 -0.00000000000E+00 -0.00000000000E+00 -0.45593999997E+02  0.45594000000E+02  0.51100000000E-03 0.  1.
    9900012    2    1    2    0    0 -0.10131328220E+00  0.11744945625E+01 -0.57224029423E-01  0.90007755768E+02  0.90000017344E+02 0.  0.
         12    1    1    2    0    0  0.10131328220E+00 -0.11744945625E+01  0.57224029423E-01  0.11802442324E+01  0.00000000000E+00 0. -1.
         11    1    3    3    0    0 -0.33270359686E+01 -0.46710815074E+01 -0.83765143372E+01  0.10151559658E+02  0.51100000000E-03 0. -1.
        -11    1    3    3    0    0 -0.23488869272E+02  0.30035523948E+02 -0.10013033568E+02  0.39422335293E+02  0.51100000000E-03 0.  1.
         12    1    3    3    0    0  0.26714591958E+02 -0.24189947878E+02  0.18332323876E+02  0.40433860816E+02  0.00000000000E+00 0. -1.
</event>
<event>
 7    1  0.2084210E-015  0.9000826E+02  0.7816164E-02  0.1186338E+00
        -11   -1    0    0    0    0  0.00000000000E+00  0.00000000000E+00  0.45593999997E+02  0.45594000000E+02  0.51100000000E-03 0.  1.
         11   -1    0    0    0    0 -0.00000000000E+00 -0.00000000000E+00 -0.45593999997E+02  0.45594000000E+02  0.51100000000E-03 0. -1.
    9900012    2    1    2    0    0  0.11165914588E+01  0.10587202438E+00  0.36580275086E+00  0.90008255526E+02  0.90000523697E+02 0.  0.
         12    1    1    2    0    0 -0.11165914588E+01 -0.10587202438E+00 -0.36580275086E+00  0.11797444740E+01  0.00000000000E+00 0. -1.
         11    1    3    3    0    0  0.31547589038E+02  0.25407458209E+01 -0.24617685259E+02  0.40096585780E+02  0.51100000000E-03 0. -1.
        -11    1    3    3    0    0 -0.47282089115E+01  0.35990085698E+01 -0.65110246108E+01  0.88148887650E+01  0.51100000000E-03 0.  1.
        -12    1    3    3    0    0 -0.25702788668E+02 -0.60338823663E+01  0.31494512621E+02  0.41096780981E+02  0.00000000000E+00 0.  1.
</event>
<event>
 7    1  0.2084210E-015  0.9000795E+02  0.7816164E-02  0.1186339E+00
        -11   -1    0    0    0    0  0.00000000000E+00  0.00000000000E+00  0.45593999997E+02  0.45594000000E+02  0.51100000000E-03 0.  1.
         11   -1    0    0    0    0 -0.00000000000E+00 -0.00000000000E+00 -0.45593999997E+02  0.45594000000E+02  0.51100000000E-03 0. -1.
    9900012    2    1    2    0    0 -0.11213789444E+00  0.11629363913E+01  0.16591015082E+00  0.90007948249E+02  0.90000212365E+02 0.  0.
         12    1    1    2    0    0  0.11213789444E+00 -0.11629363913E+01 -0.16591015082E+00  0.11800517513E+01  0.00000000000E+00 0. -1.
         11    1    3    3    0    0  0.31054559501E+02 -0.26327223741E+02 -0.11558961787E+01  0.40728914446E+02  0.51100000000E-03 0. -1.
        -11    1    3    3    0    0 -0.87138228664E+01 -0.41071695485E+01  0.39856761858E+01  0.10425217771E+02  0.51100000000E-03 0.  1.
        -12    1    3    3    0    0 -0.22452874530E+02  0.31597329681E+02 -0.26638698562E+01  0.38853816032E+02  0.00000000000E+00 0.  1.
</event>
<event>
 7    1  0.2084210E-015  0.9000774E+02  0.7816164E-02  0.1186339E+00
        -11   -1    0    0    0    0  0.00000000000E+00  0.00000000000E+00  0.45593999997E+02  0.45594000000E+02  0.51100000000E-03 0.  1.
         11   -1    0    0    0    0 -0.00000000000E+00 -0.00000000000E+00 -0.45593999997E+02  0.45594000000E+02  0.51100000000E-03 0. -1.
    9900012    2    1    2    0    0 -0.54443921089E+00 -0.10457875234E+01  0.54091152766E-01  0.90007740939E+02  0.90000002319E+02 0.  0.
         12    1    1    2    0    0  0.54443921089E+00  0.10457875234E+01 -0.54091152766E-01  0.11802590610E+01  0.00000000000E+00 0. -1.
         11    1    3    3    0    0  0.65434094915E+01 -0.27384898049E+02 -0.94527724702E+01  0.29700231591E+02  0.51100000000E-03 0. -1.
        -11    1    3    3    0    0 -0.20274068674E+01  0.36546973929E+01  0.29411583137E+02  0.29707043181E+02  0.51100000000E-03 0.  1.
         12    1    3    3    0    0 -0.50604418350E+01  0.22684413132E+02 -0.19904719514E+02  0.30600466167E+02  0.00000000000E+00 0. -1.
</event>
<event>
 7    1  0.2084210E-015  0.9000757E+02  0.7816164E-02  0.1186339E+00
        -11   -1    0    0    0    0  0.00000000000E+00  0.00000000000E+00  0.45593999997E+02  0.45594000000E+02  0.51100000000E-03 0. -1.
         11   -1    0    0    0    0 -0.00000000000E+00 -0.00000000000E+00 -0.45593999997E+02  0.45594000000E+02  0.51100000000E-03 0.  1.
    9900012    2    1    2    0    0  0.11577104895E+01 -0.83240448515E-01  0.21493015490E+00  0.90007568926E+02  0.89999828035E+02 0.  0.
         12    1    1    2    0    0 -0.11577104895E+01  0.83240448515E-01 -0.21493015490E+00  0.11804310743E+01  0.00000000000E+00 0. -1.
         11    1    3    3    0    0 -0.92689514118E+01 -0.91678982059E+01  0.21874585182E+02  0.25464903199E+02  0.51100000000E-03 0. -1.
        -11    1    3    3    0    0 -0.11268642048E+02  0.25088292296E+02  0.34286398847E+01  0.27715704495E+02  0.51100000000E-03 0.  1.
        -12    1    3    3    0    0  0.21695303950E+02 -0.16003634539E+02 -0.25088294912E+02  0.36826961231E+02  0.00000000000E+00 0.  1.
</event>
<event>
 7    1  0.2084210E-015  0.9000775E+02  0.7816164E-02  0.1186339E+00
        -11   -1    0    0    0    0  0.00000000000E+00  0.00000000000E+00  0.45593999997E+02  0.45594000000E+02  0.51100000000E-03 0.  1.
         11   -1    0    0    0    0 -0.00000000000E+00 -0.00000000000E+00 -0.45593999997E+02  0.45594000000E+02  0.51100000000E-03 0. -1.
    9900012    2    1    2    0    0 -0.37316043973E+00  0.72457249446E+00  0.85365468713E+00  0.90007754120E+02  0.90000015674E+02 0.  0.
         12    1    1    2    0    0  0.37316043973E+00 -0.72457249446E+00 -0.85365468713E+00  0.11802458805E+01  0.00000000000E+00 0. -1.
         11    1    3    3    0    0  0.81720707537E+01 -0.29506322385E+02 -0.27832617213E+02  0.41377051397E+02  0.51100000000E-03 0. -1.
        -11    1    3    3    0    0 -0.79106148636E+01 -0.91014000785E+00  0.41472222359E+01  0.89780640947E+01  0.51100000000E-03 0.  1.
        -12    1    3    3    0    0 -0.63461632987E+00  0.31141034887E+02  0.24539049664E+02  0.39652638628E+02  0.00000000000E+00 0.  1.
</event>
<event>
 7    1  0.2084210E-015  0.9000771E+02  0.7816164E-02  0.1186339E+00
        -11   -1    0    0    0    0  0.00000000000E+00  0.00000000000E+00  0.45593999997E+02  0.45594000000E+02  0.51100000000E-03 0. -1.
         11   -1    0    0    0    0 -0.00000000000E+00 -0.00000000000E+00 -0.45593999997E+02  0.45594000000E+02  0.51100000000E-03 0.  1.
    9900012    2    1    2    0    0  0.10960713830E+01  0.13037016369E+00 -0.41799320834E+00  0.90007708859E+02  0.89999969816E+02 0.  0.
         12    1    1    2    0    0 -0.10960713830E+01 -0.13037016369E+00  0.41799320834E+00  0.11802911414E+01  0.00000000000E+00 0. -1.
         11    1    3    3    0    0 -0.18142908356E+01  0.44035037378E+01 -0.86336406798E+01  0.98601342817E+01  0.51100000000E-03 0. -1.
        -11    1    3    3    0    0  0.24671570646E+02 -0.30923499025E+02 -0.10569581050E+02  0.40947102876E+02  0.51100000000E-03 0.  1.
         12    1    3    3    0    0 -0.21761208428E+02  0.26650365451E+02  0.18785228522E+02  0.39200471700E+02  0.00000000000E+00 0. -1.
</event>
<event>
 7    1  0.2084210E-015  0.9000778E+02  0.7816164E-02  0.1186339E+00
        -11   -1    0    0    0    0  0.00000000000E+00  0.00000000000E+00  0.45593999997E+02  0.45594000000E+02  0.51100000000E-03 0.  1.
         11   -1    0    0    0    0 -0.00000000000E+00 -0.00000000000E+00 -0.45593999997E+02  0.45594000000E+02  0.51100000000E-03 0. -1.
    9900012    2    1    2    0    0  0.86682522850E+00  0.37331062409E+00 -0.70863937687E+00  0.90007781137E+02  0.90000043048E+02 0.  0.
         12    1    1    2    0    0 -0.86682522850E+00 -0.37331062409E+00  0.70863937687E+00  0.11802188633E+01  0.00000000000E+00 0. -1.
         11    1    3    3    0    0  0.45616083611E+01 -0.74690521505E+01  0.35170030404E+01  0.94320899866E+01  0.51100000000E-03 0. -1.
        -11    1    3    3    0    0 -0.60396122818E+01  0.32215134995E+02  0.25885734496E+02  0.41765573023E+02  0.51100000000E-03 0.  1.
         12    1    3    3    0    0  0.23448291492E+01 -0.24372772221E+02 -0.30111376913E+02  0.38810118127E+02  0.00000000000E+00 0. -1.
</event>
<event>
 7    1  0.2084210E-015  0.9000767E+02  0.7816164E-02  0.1186339E+00
        -11   -1    0    0    0    0  0.00000000000E+00  0.00000000000E+00  0.45593999997E+02  0.45594000000E+02  0.51100000000E-03 0. -1.
         11   -1    0    0    0    0 -0.00000000000E+00 -0.00000000000E+00 -0.45593999997E+02  0.45594000000E+02  0.51100000000E-03 0.  1.
    9900012    2    1    2    0    0 -0.68432183023E+00  0.95013784886E+00  0.14872237751E+00  0.90007670959E+02  0.89999931416E+02 0.  0.
         12    1    1    2    0    0  0.68432183023E+00 -0.95013784886E+00 -0.14872237751E+00  0.11803290409E+01  0.00000000000E+00 0. -1.
         11    1    3    3    0    0  0.52362557985E+01 -0.42215614642E+01 -0.56921171355E+01  0.88113650321E+01  0.51100000000E-03 0. -1.
        -11    1    3    3    0    0  0.10344369583E+02 -0.20319276255E+02 -0.27805723255E+02  0.35958826672E+02  0.51100000000E-03 0.  1.
         12    1    3    3    0    0 -0.16264947212E+02  0.25490975568E+02  0.33646562768E+02  0.45237479255E+02  0.00000000000E+00 0. -1.
</event>
<event>
 7    1  0.2084210E-015  0.9000784E+02  0.7816164E-02  0.1186339E+00
        -11   -1    0    0    0    0  0.00000000000E+00  0.00000000000E+00  0.45593999997E+02  0.45594000000E+02  0.51100000000E-03 0. -1.
         11   -1    0    0    0    0 -0.00000000000E+00 -0.00000000000E+00 -0.45593999997E+02  0.45594000000E+02  0.51100000000E-03 0.  1.
    9900012    2    1    2    0    0  0.13404286077E+00  0.75968840246E+00 -0.89313558889E+00  0.90007836817E+02  0.90000099463E+02 0.  0.
         12    1    1    2    0    0 -0.13404286077E+00 -0.75968840246E+00  0.89313558889E+00  0.11801631826E+01  0.00000000000E+00 0. -1.
         11    1    3    3    0    0  0.28776982112E+02 -0.20614582762E+02  0.75211522192E+01  0.36188996296E+02  0.51100000000E-03 0. -1.
        -11    1    3    3    0    0  0.80743831376E+01 -0.35057457306E+01 -0.15453155531E+01  0.89372208544E+01  0.51100000000E-03 0.  1.
        -12    1    3    3    0    0 -0.36717322389E+02  0.24880016895E+02 -0.68689722550E+01  0.44881619667E+02  0.00000000000E+00 0.  1.
</event>
<event>
 7    1  0.2084210E-015  0.9000769E+02  0.7816164E-02  0.1186339E+00
        -11   -1    0    0    0    0  0.00000000000E+00  0.00000000000E+00  0.45593999997E+02  0.45594000000E+02  0.51100000000E-03 0.  1.
         11   -1    0    0    0    0 -0.00000000000E+00 -0.00000000000E+00 -0.45593999997E+02  0.45594000000E+02  0.51100000000E-03 0. -1.
    9900012    2    1    2    0    0  0.20942060731E-01 -0.11463661620E+01  0.28025532144E+00  0.90007687756E+02  0.89999948435E+02 0.  0.
         12    1    1    2    0    0 -0.20942060731E-01  0.11463661620E+01 -0.28025532144E+00  0.11803122436E+01  0.00000000000E+00 0. -1.
         11    1    3    3    0    0 -0.86736493173E+01 -0.18359805357E+02 -0.35952482284E+02  0.41290381784E+02  0.51100000000E-03 0. -1.
        -11    1    3    3    0    0 -0.67353916153E+01 -0.27400314242E+01  0.94967265495E+01  0.11960814681E+02  0.51100000000E-03 0.  1.
        -12    1    3    3    0    0  0.15429982993E+02  0.19953470619E+02  0.26736011056E+02  0.36756491292E+02  0.00000000000E+00 0.  1.
</event>
<event>
 7    1  0.2084210E-015  0.9000769E+02  0.7816164E-02  0.1186339E+00
        -11   -1    0    0    0    0  0.00000000000E+00  0.00000000000E+00  0.45593999997E+02  0.45594000000E+02  0.51100000000E-03 0.  1.
         11   -1    0    0    0    0 -0.00000000000E+00 -0.00000000000E+00 -0.45593999997E+02  0.45594000000E+02  0.51100000000E-03 0. -1.
    9900012    2    1    2    0    0 -0.40493479435E+00  0.10925681679E+01 -0.18832081900E+00  0.90007685584E+02  0.89999946234E+02 0.  0.
         12    1    1    2    0    0  0.40493479435E+00 -0.10925681679E+01  0.18832081900E+00  0.11803144157E+01  0.00000000000E+00 0. -1.
         11    1    3    3    0    0 -0.30694930483E+01  0.66084594094E+01 -0.73750059257E+01  0.10367460441E+02  0.51100000000E-03 0. -1.
        -11    1    3    3    0    0 -0.15747631586E+02  0.29895741051E+02 -0.11334307672E+02  0.35640002304E+02  0.51100000000E-03 0.  1.
         12    1    3    3    0    0  0.18412189840E+02 -0.35411632293E+02  0.18520992779E+02  0.44000222839E+02  0.00000000000E+00 0. -1.
</event>
<event>
 7    1  0.2084210E-015  0.9000767E+02  0.7816164E-02  0.1186339E+00
        -11   -1    0    0    0    0  0.00000000000E+00  0.00000000000E+00  0.45593999997E+02  0.45594000000E+02  0.51100000000E-03 0. -1.
         11   -1    0    0    0    0 -0.00000000000E+00 -0.00000000000E+00 -0.45593999997E+02  0.45594000000E+02  0.51100000000E-03 0.  1.
    9900012    2    1    2    0    0 -0.10833579689E+00 -0.34411098287E-01 -0.11748424998E+01  0.90007671373E+02  0.89999931835E+02 0.  0.
         12    1    1    2    0    0  0.10833579689E+00  0.34411098287E-01  0.11748424998E+01  0.11803286271E+01  0.00000000000E+00 0. -1.
         11    1    3    3    0    0 -0.43081805441E+01  0.74749643540E+01  0.58900803478E+01  0.10446461528E+02  0.51100000000E-03 0. -1.
        -11    1    3    3    0    0  0.16064630120E+02  0.32998894095E+02  0.35883677891E+00  0.36703243950E+02  0.51100000000E-03 0.  1.
         12    1    3    3    0    0 -0.11864785373E+02 -0.40508269547E+02 -0.74237596265E+01  0.42857965895E+02  0.00000000000E+00 0. -1.
</event>
<event>
 7    1  0.2084210E-015  0.9000778E+02  0.7816164E-02  0.1186339E+00
        -11   -1    0    0    0    0  0.00000000000E+00  0.00000000000E+00  0.45593999997E+02  0.45594000000E+02  0.51100000000E-03 0. -1.
         11   -1    0    0    0    0 -0.00000000000E+00 -0.00000000000E+00 -0.45593999997E+02  0.45594000000E+02  0.51100000000E-03 0.  1.
    9900012    2    1    2    0    0  0.49264320433E+00 -0.78889452437E+00 -0.72653856188E+00  0.90007783842E+02  0.90000045789E+02 0.  0.
         12    1    1    2    0    0 -0.49264320433E+00  0.78889452437E+00  0.72653856188E+00  0.11802161578E+01  0.00000000000E+00 0. -1.
         11    1    3    3    0    0  0.35559225783E+01 -0.82163236577E+01 -0.57492083094E+01  0.10639828771E+02  0.51100000000E-03 0. -1.
        -11    1    3    3    0    0 -0.12278177794E+02 -0.14161115384E+02 -0.31086712576E+02  0.36299787023E+02  0.51100000000E-03 0.  1.
         12    1    3    3    0    0  0.92148984204E+01  0.21588544518E+02  0.36109382323E+02  0.43068168048E+02  0.00000000000E+00 0. -1.
</event>
<event>
 7    1  0.2084210E-015  0.9000772E+02  0.7816164E-02  0.1186339E+00
        -11   -1    0    0    0    0  0.00000000000E+00  0.00000000000E+00  0.45593999997E+02  0.45594000000E+02  0.51100000000E-03 0. -1.
         11   -1    0    0    0    0 -0.00000000000E+00 -0.00000000000E+00 -0.45593999997E+02  0.45594000000E+02  0.51100000000E-03 0.  1.
    9900012    2    1    2    0    0  0.36663756352E+00  0.11189553670E+01  0.81039473430E-01  0.90007723925E+02  0.89999985081E+02 0.  0.
         12    1    1    2    0    0 -0.36663756352E+00 -0.11189553670E+01 -0.81039473430E-01  0.11802760748E+01  0.00000000000E+00 0. -1.
         11    1    3    3    0    0 -0.51284966065E+01  0.74096636265E+01  0.27176500784E+02  0.28631569773E+02  0.51100000000E-03 0. -1.
        -11    1    3    3    0    0  0.15112338748E+02  0.20707577673E+02 -0.76890992129E+01  0.26763945944E+02  0.51100000000E-03 0.  1.
         12    1    3    3    0    0 -0.96172045780E+01 -0.26998285933E+02 -0.19406362098E+02  0.34612208209E+02  0.00000000000E+00 0. -1.
</event>
<event>
 7    1  0.2084210E-015  0.9000761E+02  0.7816164E-02  0.1186339E+00
        -11   -1    0    0    0    0  0.00000000000E+00  0.00000000000E+00  0.45593999997E+02  0.45594000000E+02  0.51100000000E-03 0.  1.
         11   -1    0    0    0    0 -0.00000000000E+00 -0.00000000000E+00 -0.45593999997E+02  0.45594000000E+02  0.51100000000E-03 0. -1.
    9900012    2    1    2    0    0  0.14666112933E-01 -0.53905044915E+00  0.10500162815E+01  0.90007608254E+02  0.89999867883E+02 0.  0.
         12    1    1    2    0    0 -0.14666112933E-01  0.53905044915E+00 -0.10500162815E+01  0.11803917455E+01  0.00000000000E+00 0. -1.
         11    1    3    3    0    0 -0.38758439883E+01  0.67866129139E+01  0.48555700600E+01  0.92009152986E+01  0.51100000000E-03 0. -1.
        -11    1    3    3    0    0 -0.30312910970E+02  0.17691809655E+02  0.95527267687E+01  0.36374816691E+02  0.51100000000E-03 0.  1.
         12    1    3    3    0    0  0.34203421072E+02 -0.25017473018E+02 -0.13358280547E+02  0.44431876264E+02  0.00000000000E+00 0. -1.
</event>
<event>
 7    1  0.2084210E-015  0.9000773E+02  0.7816164E-02  0.1186339E+00
        -11   -1    0    0    0    0  0.00000000000E+00  0.00000000000E+00  0.45593999997E+02  0.45594000000E+02  0.51100000000E-03 0. -1.
         11   -1    0    0    0    0 -0.00000000000E+00 -0.00000000000E+00 -0.45593999997E+02  0.45594000000E+02  0.51100000000E-03 0.  1.
    9900012    2    1    2    0    0 -0.11578715369E+00 -0.91535570576E-01 -0.11710008974E+01  0.90007733705E+02  0.89999994990E+02 0.  0.
         12    1    1    2    0    0  0.11578715369E+00  0.91535570576E-01  0.11710008974E+01  0.11802662951E+01  0.00000000000E+00 0. -1.
         11    1    3    3    0    0  0.10833714581E+02 -0.25718965749E+02  0.26342241114E+02  0.38376402097E+02  0.51100000000E-03 0. -1.
        -11    1    3    3    0    0 -0.50494350196E+01 -0.80382656553E+01 -0.53664102926E+01  0.10904534307E+02  0.51100000000E-03 0.  1.
        -12    1    3    3    0    0 -0.59000667147E+01  0.33665695833E+02 -0.22146831718E+02  0.40726797300E+02  0.00000000000E+00 0.  1.
</event>
<event>
 7    1  0.2084210E-015  0.9000775E+02  0.7816164E-02  0.1186339E+00
        -11   -1    0    0    0    0  0.00000000000E+00  0.00000000000E+00  0.45593999997E+02  0.45594000000E+02  0.51100000000E-03 0. -1.
         11   -1    0    0    0    0 -0.00000000000E+00 -0.00000000000E+00 -0.45593999997E+02  0.45594000000E+02  0.51100000000E-03 0.  1.
    9900012    2    1    2    0    0  0.56192542844E+00  0.10295763653E+01  0.13116712085E+00  0.90007748970E+02  0.90000010457E+02 0.  0.
         12    1    1    2    0    0 -0.56192542844E+00 -0.10295763653E+01 -0.13116712085E+00  0.11802510295E+01  0.00000000000E+00 0. -1.
         11    1    3    3    0    0  0.29422018725E+02 -0.32760598432E+01  0.18253335093E+02  0.34778901596E+02  0.51100000000E-03 0. -1.
        -11    1    3    3    0    0  0.10107632361E+02  0.52962323251E+00  0.32428887991E+01  0.10628314106E+02  0.51100000000E-03 0.  1.
        -12    1    3    3    0    0 -0.38967725658E+02  0.37760129760E+01 -0.21365056771E+02  0.44600533268E+02  0.00000000000E+00 0.  1.
</event>
<event>
 7    1  0.2084210E-015  0.9000774E+02  0.7816164E-02  0.1186339E+00
        -11   -1    0    0    0    0  0.00000000000E+00  0.00000000000E+00  0.45593999997E+02  0.45594000000E+02  0.51100000000E-03 0. -1.
         11   -1    0    0    0    0 -0.00000000000E+00 -0.00000000000E+00 -0.45593999997E+02  0.45594000000E+02  0.51100000000E-03 0.  1.
    9900012    2    1    2    0    0 -0.14932718108E+00 -0.24145581397E+00 -0.11456070328E+01  0.90007739440E+02  0.90000000800E+02 0.  0.
         12    1    1    2    0    0  0.14932718108E+00  0.24145581397E+00  0.11456070328E+01  0.11802605605E+01  0.00000000000E+00 0. -1.
         11    1    3    3    0    0 -0.95354483415E+01 -0.62339153501E+01  0.29638410223E+02  0.31752509137E+02  0.51100000000E-03 0. -1.
        -11    1    3    3    0    0 -0.87213458727E+01 -0.17473460876E+02 -0.91902124595E+01  0.21583412940E+02  0.51100000000E-03 0.  1.
        -12    1    3    3    0    0  0.18107467033E+02  0.23465920412E+02 -0.21593804796E+02  0.36671817363E+02  0.00000000000E+00 0.  1.
</event>
<event>
 7    1  0.2084210E-015  0.9000774E+02  0.7816164E-02  0.1186339E+00
        -11   -1    0    0    0    0  0.00000000000E+00  0.00000000000E+00  0.45593999997E+02  0.45594000000E+02  0.51100000000E-03 0.  1.
         11   -1    0    0    0    0 -0.00000000000E+00 -0.00000000000E+00 -0.45593999997E+02  0.45594000000E+02  0.51100000000E-03 0. -1.
    9900012    2    1    2    0    0  0.56120708025E+00 -0.56102027508E+00  0.87367574387E+00  0.90007743061E+02  0.90000004470E+02 0.  0.
         12    1    1    2    0    0 -0.56120708025E+00  0.56102027508E+00 -0.87367574387E+00  0.11802569387E+01  0.00000000000E+00 0. -1.
         11    1    3    3    0    0  0.49067621042E+01 -0.82702296114E+01  0.24573270279E+01  0.99252943813E+01  0.51100000000E-03 0. -1.
        -11    1    3    3    0    0 -0.42013988150E+02  0.44400145179E+01 -0.14288154798E+01  0.42272100056E+02  0.51100000000E-03 0.  1.
         12    1    3    3    0    0  0.37668433126E+02  0.32691948184E+01 -0.15483580429E+00  0.37810348624E+02  0.00000000000E+00 0. -1.
</event>
<event>
 7    1  0.2084210E-015  0.9000778E+02  0.7816164E-02  0.1186339E+00
        -11   -1    0    0    0    0  0.00000000000E+00  0.00000000000E+00  0.45593999997E+02  0.45594000000E+02  0.51100000000E-03 0.  1.
         11   -1    0    0    0    0 -0.00000000000E+00 -0.00000000000E+00 -0.45593999997E+02  0.45594000000E+02  0.51100000000E-03 0. -1.
    9900012    2    1    2    0    0  0.27296648496E+00 -0.10165111525E+01  0.53395602897E+00  0.90007781941E+02  0.90000043863E+02 0.  0.
         12    1    1    2    0    0 -0.27296648496E+00  0.10165111525E+01 -0.53395602897E+00  0.11802180586E+01  0.00000000000E+00 0. -1.
         11    1    3    3    0    0  0.67922373454E+01  0.40815098221E+00 -0.30741458512E+01  0.74666892500E+01  0.51100000000E-03 0. -1.
        -11    1    3    3    0    0  0.21008611266E+02  0.30207669426E+02 -0.10558049721E+02  0.38279726405E+02  0.51100000000E-03 0.  1.
         12    1    3    3    0    0 -0.27527882126E+02 -0.31632331561E+02  0.14166151601E+02  0.44261366286E+02  0.00000000000E+00 0. -1.
</event>
<event>
 7    1  0.2084210E-015  0.9000772E+02  0.7816164E-02  0.1186339E+00
        -11   -1    0    0    0    0  0.00000000000E+00  0.00000000000E+00  0.45593999997E+02  0.45594000000E+02  0.51100000000E-03 0.  1.
         11   -1    0    0    0    0 -0.00000000000E+00 -0.00000000000E+00 -0.45593999997E+02  0.45594000000E+02  0.51100000000E-03 0. -1.
    9900012    2    1    2    0    0  0.15979154078E+00 -0.10619208833E+01  0.48973822620E+00  0.90007723410E+02  0.89999984559E+02 0.  0.
         12    1    1    2    0    0 -0.15979154078E+00  0.10619208833E+01 -0.48973822620E+00  0.11802765901E+01  0.00000000000E+00 0. -1.
         11    1    3    3    0    0  0.30749038422E+02  0.11041487359E+02  0.20279183912E+02  0.38453388763E+02  0.51100000000E-03 0. -1.
        -11    1    3    3    0    0  0.75146028202E+01 -0.43200181329E+01 -0.44978596290E+01  0.97653752472E+01  0.51100000000E-03 0.  1.
        -12    1    3    3    0    0 -0.38103849701E+02 -0.77833901089E+01 -0.15291586057E+02  0.41788959400E+02  0.00000000000E+00 0.  1.
</event>
<event>
 7    1  0.2084210E-015  0.9000785E+02  0.7816164E-02  0.1186339E+00
        -11   -1    0    0    0    0  0.00000000000E+00  0.00000000000E+00  0.45593999997E+02  0.45594000000E+02  0.51100000000E-03 0.  1.
         11   -1    0    0    0    0 -0.00000000000E+00 -0.00000000000E+00 -0.45593999997E+02  0.45594000000E+02  0.51100000000E-03 0. -1.
    9900012    2    1    2    0    0  0.71001703058E+00  0.87600637315E+00  0.34820221918E+00  0.90007849105E+02  0.90000111913E+02 0.  0.
         12    1    1    2    0    0 -0.71001703058E+00 -0.87600637315E+00 -0.34820221918E+00  0.11801508950E+01  0.00000000000E+00 0. -1.
         11    1    3    3    0    0  0.82763567705E+01 -0.14227760050E+01  0.19905855361E+01  0.86304579248E+01  0.51100000000E-03 0. -1.
        -11    1    3    3    0    0  0.20656653468E+02 -0.21046453793E+02  0.22858073699E+02  0.37311420279E+02  0.51100000000E-03 0.  1.
         12    1    3    3    0    0 -0.28222993208E+02  0.23345236171E+02 -0.24500457016E+02  0.44065970901E+02  0.00000000000E+00 0. -1.
</event>
<event>
 7    1  0.2084210E-015  0.9000770E+02  0.7816164E-02  0.1186339E+00
        -11   -1    0    0    0    0  0.00000000000E+00  0.00000000000E+00  0.45593999997E+02  0.45594000000E+02  0.51100000000E-03 0. -1.
         11   -1    0    0    0    0 -0.00000000000E+00 -0.00000000000E+00 -0.45593999997E+02  0.45594000000E+02  0.51100000000E-03 0.  1.
    9900012    2    1    2    0    0  0.57473152874E+00  0.98642551366E+00 -0.29960820285E+00  0.90007696353E+02  0.89999957145E+02 0.  0.
         12    1    1    2    0    0 -0.57473152874E+00 -0.98642551366E+00  0.29960820285E+00  0.11803036471E+01  0.00000000000E+00 0. -1.
         11    1    3    3    0    0 -0.14122619898E+01  0.92656671040E+01  0.47997352794E+01  0.10530172355E+02  0.51100000000E-03 0. -1.
        -11    1    3    3    0    0 -0.34016734559E+02 -0.20722002820E+02  0.47986670606E+01  0.40119407234E+02  0.51100000000E-03 0.  1.
         12    1    3    3    0    0  0.36003728078E+02  0.12442761230E+02 -0.98980105428E+01  0.39358116764E+02  0.00000000000E+00 0. -1.
</event>
<event>
 7    1  0.2084210E-015  0.9000796E+02  0.7816164E-02  0.1186339E+00
        -11   -1    0    0    0    0  0.00000000000E+00  0.00000000000E+00  0.45593999997E+02  0.45594000000E+02  0.51100000000E-03 0. -1.
         11   -1    0    0    0    0 -0.00000000000E+00 -0.00000000000E+00 -0.45593999997E+02  0.45594000000E+02  0.51100000000E-03 0.  1.
    9900012    2    1    2    0    0  0.49651212500E+00  0.99104662229E+00  0.40472294821E+00  0.90007958322E+02  0.90000222571E+02 0.  0.
         12    1    1    2    0    0 -0.49651212500E+00 -0.99104662229E+00 -0.40472294821E+00  0.11800416783E+01  0.00000000000E+00 0. -1.
         11    1    3    3    0    0 -0.21395493435E+00  0.88970227555E+01 -0.46866077189E+01  0.10058184866E+02  0.51100000000E-03 0. -1.
        -11    1    3    3    0    0 -0.34716048520E+02  0.14463073801E+02  0.57597296030E+01  0.38046800312E+02  0.51100000000E-03 0.  1.
         12    1    3    3    0    0  0.35426515580E+02 -0.22369049935E+02 -0.66839893581E+00  0.41902973143E+02  0.00000000000E+00 0. -1.
</event>
<event>
 7    1  0.2084210E-015  0.9000771E+02  0.7816164E-02  0.1186339E+00
        -11   -1    0    0    0    0  0.00000000000E+00  0.00000000000E+00  0.45593999997E+02  0.45594000000E+02  0.51100000000E-03 0.  1.
         11   -1    0    0    0    0 -0.00000000000E+00 -0.00000000000E+00 -0.45593999997E+02  0.45594000000E+02  0.51100000000E-03 0. -1.
    9900012    2    1    2    0    0 -0.58104432144E+00 -0.35633256862E+00  0.96358131065E+00  0.90007714295E+02  0.89999975324E+02 0.  0.
         12    1    1    2    0    0  0.58104432144E+00  0.35633256862E+00 -0.96358131065E+00  0.11802857049E+01  0.00000000000E+00 0. -1.
         11    1    3    3    0    0  0.31518769718E+01 -0.78058521609E+01  0.34516601862E+01  0.90983303251E+01  0.51100000000E-03 0. -1.
        -11    1    3    3    0    0  0.19076656615E+02  0.13102105900E+02  0.31807145935E+02  0.39335461601E+02  0.51100000000E-03 0.  1.
         12    1    3    3    0    0 -0.22809577908E+02 -0.56525863081E+01 -0.34295224810E+02  0.41573922369E+02  0.00000000000E+00 0. -1.
</event>
<event>
 7    1  0.2084210E-015  0.9000763E+02  0.7816164E-02  0.1186339E+00
        -11   -1    0    0    0    0  0.00000000000E+00  0.00000000000E+00  0.45593999997E+02  0.45594000000E+02  0.51100000000E-03 0.  1.
         11   -1    0    0    0    0 -0.00000000000E+00 -0.00000000000E+00 -0.45593999997E+02  0.45594000000E+02  0.51100000000E-03 0. -1.
    9900012    2    1    2    0    0 -0.41352544178E+00  0.10399534234E+01 -0.37518421040E+00  0.90007631581E+02  0.89999891517E+02 0.  0.
         12    1    1    2    0    0  0.41352544178E+00 -0.10399534234E+01  0.37518421040E+00  0.11803684194E+01  0.00000000000E+00 0. -1.
         11    1    3    3    0    0 -0.67496130927E+01 -0.19440585434E+01  0.54682986178E+01  0.89016251638E+01  0.51100000000E-03 0. -1.
        -11    1    3    3    0    0 -0.29935706047E+02 -0.13969694926E+02  0.14638498170E+02  0.36132872869E+02  0.51100000000E-03 0.  1.
         12    1    3    3    0    0  0.36271793698E+02  0.16953706893E+02 -0.20481980998E+02  0.44973133547E+02  0.00000000000E+00 0. -1.
</event>
<event>
 7    1  0.2084210E-015  0.9000782E+02  0.7816164E-02  0.1186339E+00
        -11   -1    0    0    0    0  0.00000000000E+00  0.00000000000E+00  0.45593999997E+02  0.45594000000E+02  0.51100000000E-03 0. -1.
         11   -1    0    0    0    0 -0.00000000000E+00 -0.00000000000E+00 -0.45593999997E+02  0.45594000000E+02  0.51100000000E-03 0.  1.
    9900012    2    1    2    0    0  0.93673967909E+00 -0.71281860720E+00  0.85030371627E-01  0.90007821303E+02  0.90000083744E+02 0.  0.
         12    1    1    2    0    0 -0.93673967909E+00  0.71281860720E+00 -0.85030371627E-01  0.11801786972E+01  0.00000000000E+00 0. -1.
         11    1    3    3    0    0 -0.20525600831E+02 -0.23464317228E+02  0.30373374705E+02  0.43524893609E+02  0.51100000000E-03 0. -1.
        -11    1    3    3    0    0 -0.11993237967E+01  0.28227792672E+01 -0.91175327766E+01  0.96195563595E+01  0.51100000000E-03 0.  1.
        -12    1    3    3    0    0  0.22661664307E+02  0.19928719353E+02 -0.21170811557E+02  0.36863371335E+02  0.00000000000E+00 0.  1.
</event>
<event>
 7    1  0.2084210E-015  0.9000779E+02  0.7816164E-02  0.1186339E+00
        -11   -1    0    0    0    0  0.00000000000E+00  0.00000000000E+00  0.45593999997E+02  0.45594000000E+02  0.51100000000E-03 0.  1.
         11   -1    0    0    0    0 -0.00000000000E+00 -0.00000000000E+00 -0.45593999997E+02  0.45594000000E+02  0.51100000000E-03 0. -1.
    9900012    2    1    2    0    0 -0.67859811465E+00  0.20892915864E+00  0.94273422447E+00  0.90007790437E+02  0.90000052471E+02 0.  0.
         12    1    1    2    0    0  0.67859811465E+00 -0.20892915864E+00 -0.94273422447E+00  0.11802095630E+01  0.00000000000E+00 0. -1.
         11    1    3    3    0    0 -0.19514333794E+02  0.28240938130E+02  0.22640819761E+02  0.41121363421E+02  0.51100000000E-03 0. -1.
        -11    1    3    3    0    0  0.83246246415E+01  0.39399489787E+01 -0.74168348620E+00  0.92397331147E+01  0.51100000000E-03 0.  1.
        -12    1    3    3    0    0  0.10511111038E+02 -0.31971957950E+02 -0.20956402050E+02  0.39646693901E+02  0.00000000000E+00 0.  1.
</event>
<event>
 7    1  0.2084210E-015  0.9000852E+02  0.7816164E-02  0.1186337E+00
        -11   -1    0    0    0    0  0.00000000000E+00  0.00000000000E+00  0.45593999997E+02  0.45594000000E+02  0.51100000000E-03 0. -1.
         11   -1    0    0    0    0 -0.00000000000E+00 -0.00000000000E+00 -0.45593999997E+02  0.45594000000E+02  0.51100000000E-03 0.  1.
    9900012    2    1    2    0    0 -0.81295850644E+00  0.30731510355E+00 -0.79739081555E+00  0.90008518665E+02  0.90000790308E+02 0.  0.
         12    1    1    2    0    0  0.81295850644E+00 -0.30731510355E+00  0.79739081555E+00  0.11794813347E+01  0.00000000000E+00 0. -1.
         11    1    3    3    0    0 -0.29032082436E+01 -0.79361299419E+01  0.38069679287E+01  0.92684292969E+01  0.51100000000E-03 0. -1.
        -11    1    3    3    0    0  0.22459127691E+02 -0.29877731247E+02 -0.15232515046E+01  0.37408709367E+02  0.51100000000E-03 0.  1.
         12    1    3    3    0    0 -0.20368877954E+02  0.38121176292E+02 -0.30811072397E+01  0.43331380001E+02  0.00000000000E+00 0. -1.
</event>
<event>
 7    1  0.2084210E-015  0.9000783E+02  0.7816164E-02  0.1186339E+00
        -11   -1    0    0    0    0  0.00000000000E+00  0.00000000000E+00  0.45593999997E+02  0.45594000000E+02  0.51100000000E-03 0.  1.
         11   -1    0    0    0    0 -0.00000000000E+00 -0.00000000000E+00 -0.45593999997E+02  0.45594000000E+02  0.51100000000E-03 0. -1.
    9900012    2    1    2    0    0 -0.47839507457E+00 -0.45062074907E+00 -0.98024395121E+00  0.90007830897E+02  0.90000093465E+02 0.  0.
         12    1    1    2    0    0  0.47839507457E+00  0.45062074907E+00  0.98024395121E+00  0.11801691026E+01  0.00000000000E+00 0. -1.
         11    1    3    3    0    0  0.30513846048E+02 -0.16047957381E+02 -0.62007098137E+01  0.35029709379E+02  0.51100000000E-03 0. -1.
        -11    1    3    3    0    0  0.89045579085E+01 -0.43848542354E+01  0.26979940953E+01  0.10285780020E+02  0.51100000000E-03 0.  1.
        -12    1    3    3    0    0 -0.39896799031E+02  0.19982190868E+02  0.25224717672E+01  0.44692341498E+02  0.00000000000E+00 0.  1.
</event>
<event>
 7    1  0.2084210E-015  0.9000774E+02  0.7816164E-02  0.1186339E+00
        -11   -1    0    0    0    0  0.00000000000E+00  0.00000000000E+00  0.45593999997E+02  0.45594000000E+02  0.51100000000E-03 0.  1.
         11   -1    0    0    0    0 -0.00000000000E+00 -0.00000000000E+00 -0.45593999997E+02  0.45594000000E+02  0.51100000000E-03 0. -1.
    9900012    2    1    2    0    0  0.63174338005E+00 -0.85032570895E+00  0.52044248090E+00  0.90007739908E+02  0.90000001274E+02 0.  0.
         12    1    1    2    0    0 -0.63174338005E+00  0.85032570895E+00 -0.52044248090E+00  0.11802600923E+01  0.00000000000E+00 0. -1.
         11    1    3    3    0    0 -0.13678461801E+02 -0.16395645418E+02  0.32940034042E+02  0.39255106022E+02  0.51100000000E-03 0. -1.
        -11    1    3    3    0    0 -0.97891448354E+01  0.37670602339E+01 -0.29340625025E+01  0.10891594119E+02  0.51100000000E-03 0.  1.
        -12    1    3    3    0    0  0.24099350016E+02  0.11778259475E+02 -0.29485529058E+02  0.39861039767E+02  0.00000000000E+00 0.  1.
</event>
<event>
 7    1  0.2084210E-015  0.9000768E+02  0.7816164E-02  0.1186339E+00
        -11   -1    0    0    0    0  0.00000000000E+00  0.00000000000E+00  0.45593999997E+02  0.45594000000E+02  0.51100000000E-03 0.  1.
         11   -1    0    0    0    0 -0.00000000000E+00 -0.00000000000E+00 -0.45593999997E+02  0.45594000000E+02  0.51100000000E-03 0. -1.
    9900012    2    1    2    0    0  0.89794705092E+00  0.64033108487E+00  0.42050984164E+00  0.90007677446E+02  0.89999937988E+02 0.  0.
         12    1    1    2    0    0 -0.89794705092E+00 -0.64033108487E+00 -0.42050984164E+00  0.11803225540E+01  0.00000000000E+00 0. -1.
         11    1    3    3    0    0 -0.17961261106E+01  0.29526689890E+00  0.77766291773E+01  0.79868149577E+01  0.51100000000E-03 0. -1.
        -11    1    3    3    0    0 -0.33366337900E+02 -0.20002242719E+02  0.39433552962E+01  0.39101819266E+02  0.51100000000E-03 0.  1.
         12    1    3    3    0    0  0.36060411061E+02  0.20347306905E+02 -0.11299474632E+02  0.42919043223E+02  0.00000000000E+00 0. -1.
</event>
<event>
 7    1  0.2084210E-015  0.9000777E+02  0.7816164E-02  0.1186339E+00
        -11   -1    0    0    0    0  0.00000000000E+00  0.00000000000E+00  0.45593999997E+02  0.45594000000E+02  0.51100000000E-03 0. -1.
         11   -1    0    0    0    0 -0.00000000000E+00 -0.00000000000E+00 -0.45593999997E+02  0.45594000000E+02  0.51100000000E-03 0.  1.
    9900012    2    1    2    0    0  0.10220960213E+01 -0.50783053899E+00 -0.30060093797E+00  0.90007774150E+02  0.90000035969E+02 0.  0.
         12    1    1    2    0    0 -0.10220960213E+01  0.50783053899E+00  0.30060093797E+00  0.11802258500E+01  0.00000000000E+00 0. -1.
         11    1    3    3    0    0  0.11566964444E+02  0.70252932784E+01  0.75467895348E+01  0.15495271687E+02  0.51100000000E-03 0. -1.
        -11    1    3    3    0    0  0.89037636235E+01  0.27106084342E+02 -0.17710324322E+02  0.33580833862E+02  0.51100000000E-03 0.  1.
         12    1    3    3    0    0 -0.19448632046E+02 -0.34639208159E+02  0.98629338489E+01  0.40931668601E+02  0.00000000000E+00 0. -1.
</event>
<event>
 7    1  0.2084210E-015  0.9000765E+02  0.7816164E-02  0.1186339E+00
        -11   -1    0    0    0    0  0.00000000000E+00  0.00000000000E+00  0.45593999997E+02  0.45594000000E+02  0.51100000000E-03 0. -1.
         11   -1    0    0    0    0 -0.00000000000E+00 -0.00000000000E+00 -0.45593999997E+02  0.45594000000E+02  0.51100000000E-03 0.  1.
    9900012    2    1    2    0    0 -0.10006037717E+01  0.60004142409E+00  0.17881252302E+00  0.90007647706E+02  0.89999907856E+02 0.  0.
         12    1    1    2    0    0  0.10006037717E+01 -0.60004142409E+00 -0.17881252302E+00  0.11803522936E+01  0.00000000000E+00 0. -1.
         11    1    3    3    0    0 -0.41322243150E+01 -0.81804546168E+01 -0.25919987675E+01  0.95243673490E+01  0.51100000000E-03 0. -1.
        -11    1    3    3    0    0  0.31881079209E+02 -0.14241524364E+02 -0.16829332373E+02  0.38761458385E+02  0.51100000000E-03 0.  1.
         12    1    3    3    0    0 -0.28749458666E+02  0.23022020404E+02  0.19600143664E+02  0.41721821973E+02  0.00000000000E+00 0. -1.
</event>
<event>
 7    1  0.2084210E-015  0.9000779E+02  0.7816164E-02  0.1186339E+00
        -11   -1    0    0    0    0  0.00000000000E+00  0.00000000000E+00  0.45593999997E+02  0.45594000000E+02  0.51100000000E-03 0.  1.
         11   -1    0    0    0    0 -0.00000000000E+00 -0.00000000000E+00 -0.45593999997E+02  0.45594000000E+02  0.51100000000E-03 0. -1.
    9900012    2    1    2    0    0  0.33192511052E+00  0.48112867932E+00  0.10252949253E+01  0.90007792913E+02  0.90000054979E+02 0.  0.
         12    1    1    2    0    0 -0.33192511052E+00 -0.48112867932E+00 -0.10252949253E+01  0.11802070873E+01  0.00000000000E+00 0. -1.
         11    1    3    3    0    0 -0.16578770794E+02 -0.96390348891E+00 -0.32165194890E+02  0.36199233604E+02  0.51100000000E-03 0. -1.
        -11    1    3    3    0    0  0.51229462682E+01 -0.22465210643E+01 -0.85841729737E+01  0.10245948529E+02  0.51100000000E-03 0.  1.
        -12    1    3    3    0    0  0.11787749636E+02  0.36915532325E+01  0.41774662789E+02  0.43562610779E+02  0.00000000000E+00 0.  1.
</event>
<event>
 7    1  0.2084210E-015  0.9000756E+02  0.7816164E-02  0.1186339E+00
        -11   -1    0    0    0    0  0.00000000000E+00  0.00000000000E+00  0.45593999997E+02  0.45594000000E+02  0.51100000000E-03 0.  1.
         11   -1    0    0    0    0 -0.00000000000E+00 -0.00000000000E+00 -0.45593999997E+02  0.45594000000E+02  0.51100000000E-03 0. -1.
    9900012    2    1    2    0    0  0.41544099077E+00  0.84916802650E+00  0.70694183395E+00  0.90007557578E+02  0.89999816538E+02 0.  0.
         12    1    1    2    0    0 -0.41544099077E+00 -0.84916802650E+00 -0.70694183395E+00  0.11804424216E+01  0.00000000000E+00 0. -1.
         11    1    3    3    0    0  0.50747712347E+01  0.26988606220E+01 -0.34944357722E+02  0.35413913772E+02  0.51100000000E-03 0. -1.
        -11    1    3    3    0    0  0.20246796591E+01 -0.27497786265E+01 -0.89011113482E+01  0.95336453527E+01  0.51100000000E-03 0.  1.
        -12    1    3    3    0    0 -0.66840099031E+01  0.90008603106E+00  0.44552410905E+02  0.45059998454E+02  0.00000000000E+00 0.  1.
</event>
<event>
 7    1  0.2084210E-015  0.9000774E+02  0.7816164E-02  0.1186339E+00
        -11   -1    0    0    0    0  0.00000000000E+00  0.00000000000E+00  0.45593999997E+02  0.45594000000E+02  0.51100000000E-03 0. -1.
         11   -1    0    0    0    0 -0.00000000000E+00 -0.00000000000E+00 -0.45593999997E+02  0.45594000000E+02  0.51100000000E-03 0.  1.
    9900012    2    1    2    0    0 -0.82781993941E+00  0.66782306849E+00 -0.51161274922E+00  0.90007736848E+02  0.89999998174E+02 0.  0.
         12    1    1    2    0    0  0.82781993941E+00 -0.66782306849E+00  0.51161274922E+00  0.11802631520E+01  0.00000000000E+00 0. -1.
         11    1    3    3    0    0 -0.63931428257E+01  0.67036723617E+01 -0.63218381131E+01  0.11215040602E+02  0.51100000000E-03 0. -1.
        -11    1    3    3    0    0  0.82523287289E+00 -0.15145556233E+02 -0.34238745081E+02  0.37448104730E+02  0.51100000000E-03 0.  1.
         12    1    3    3    0    0  0.47400900134E+01  0.91097069396E+01  0.40048970445E+02  0.41344591515E+02  0.00000000000E+00 0. -1.
</event>
<event>
 7    1  0.2084210E-015  0.9000775E+02  0.7816164E-02  0.1186339E+00
        -11   -1    0    0    0    0  0.00000000000E+00  0.00000000000E+00  0.45593999997E+02  0.45594000000E+02  0.51100000000E-03 0.  1.
         11   -1    0    0    0    0 -0.00000000000E+00 -0.00000000000E+00 -0.45593999997E+02  0.45594000000E+02  0.51100000000E-03 0. -1.
    9900012    2    1    2    0    0 -0.91889667679E+00  0.22360800740E+00  0.70612673272E+00  0.90007751464E+02  0.90000012984E+02 0.  0.
         12    1    1    2    0    0  0.91889667679E+00 -0.22360800740E+00 -0.70612673272E+00  0.11802485358E+01  0.00000000000E+00 0. -1.
         11    1    3    3    0    0 -0.90949671242E+01 -0.94535907284E+00  0.71673999978E+01  0.11618250891E+02  0.51100000000E-03 0. -1.
        -11    1    3    3    0    0 -0.21641773246E+02  0.16451970378E+01  0.26292447842E+02  0.34093486714E+02  0.51100000000E-03 0.  1.
         12    1    3    3    0    0  0.29817843694E+02 -0.47622995758E+00 -0.32753721107E+02  0.44296013860E+02  0.00000000000E+00 0. -1.
</event>
<event>
 7    1  0.2084210E-015  0.9000773E+02  0.7816164E-02  0.1186339E+00
        -11   -1    0    0    0    0  0.00000000000E+00  0.00000000000E+00  0.45593999997E+02  0.45594000000E+02  0.51100000000E-03 0.  1.
         11   -1    0    0    0    0 -0.00000000000E+00 -0.00000000000E+00 -0.45593999997E+02  0.45594000000E+02  0.51100000000E-03 0. -1.
    9900012    2    1    2    0    0  0.97065504892E+00  0.41549095455E+00 -0.52748118465E+00  0.90007728693E+02  0.89999989912E+02 0.  0.
         12    1    1    2    0    0 -0.97065504892E+00 -0.41549095455E+00  0.52748118465E+00  0.11802713067E+01  0.00000000000E+00 0. -1.
         11    1    3    3    0    0  0.30783081239E+02 -0.38285864484E+01 -0.26401570243E+02  0.40734494919E+02  0.51100000000E-03 0. -1.
        -11    1    3    3    0    0  0.29389856312E+01  0.67921442321E+01 -0.89601270150E-01  0.74012761371E+01  0.51100000000E-03 0.  1.
        -12    1    3    3    0    0 -0.32751411821E+02 -0.25480668291E+01  0.25963690329E+02  0.41871957637E+02  0.00000000000E+00 0.  1.
</event>
<event>
 7    1  0.2084210E-015  0.9000776E+02  0.7816164E-02  0.1186339E+00
        -11   -1    0    0    0    0  0.00000000000E+00  0.00000000000E+00  0.45593999997E+02  0.45594000000E+02  0.51100000000E-03 0. -1.
         11   -1    0    0    0    0 -0.00000000000E+00 -0.00000000000E+00 -0.45593999997E+02  0.45594000000E+02  0.51100000000E-03 0.  1.
    9900012    2    1    2    0    0 -0.51959873163E+00 -0.17273658951E+00 -0.10455396844E+01  0.90007756803E+02  0.90000018393E+02 0.  0.
         12    1    1    2    0    0  0.51959873163E+00  0.17273658951E+00  0.10455396844E+01  0.11802431965E+01  0.00000000000E+00 0. -1.
         11    1    3    3    0    0 -0.77029286987E+01  0.43801070342E+00  0.34752808801E+01  0.84619466655E+01  0.51100000000E-03 0. -1.
        -11    1    3    3    0    0  0.21161851969E+02  0.35055992145E+02 -0.11664919688E+02  0.42577187737E+02  0.51100000000E-03 0.  1.
         12    1    3    3    0    0 -0.13978522002E+02 -0.35666739438E+02  0.71440991240E+01  0.38968622400E+02  0.00000000000E+00 0. -1.
</event>
<event>
 7    1  0.2084210E-015  0.9000772E+02  0.7816164E-02  0.1186339E+00
        -11   -1    0    0    0    0  0.00000000000E+00  0.00000000000E+00  0.45593999997E+02  0.45594000000E+02  0.51100000000E-03 0.  1.
         11   -1    0    0    0    0 -0.00000000000E+00 -0.00000000000E+00 -0.45593999997E+02  0.45594000000E+02  0.51100000000E-03 0. -1.
    9900012    2    1    2    0    0  0.28426028948E+00  0.10576349392E+01  0.44006811378E+00  0.90007722269E+02  0.89999983403E+02 0.  0.
         12    1    1    2    0    0 -0.28426028948E+00 -0.10576349392E+01 -0.44006811378E+00  0.11802777307E+01  0.00000000000E+00 0. -1.
         11    1    3    3    0    0 -0.61335694867E+00  0.11678101534E+02  0.30514706776E+01  0.12085765832E+02  0.51100000000E-03 0. -1.
        -11    1    3    3    0    0  0.37389408494E+02 -0.75765084083E+01  0.95683934225E+01  0.39330973801E+02  0.51100000000E-03 0.  1.
         12    1    3    3    0    0 -0.36491791256E+02 -0.30439581869E+01 -0.12179795986E+02  0.38590982636E+02  0.00000000000E+00 0. -1.
</event>
<event>
 7    1  0.2084210E-015  0.9000782E+02  0.7816164E-02  0.1186339E+00
        -11   -1    0    0    0    0  0.00000000000E+00  0.00000000000E+00  0.45593999997E+02  0.45594000000E+02  0.51100000000E-03 0. -1.
         11   -1    0    0    0    0 -0.00000000000E+00 -0.00000000000E+00 -0.45593999997E+02  0.45594000000E+02  0.51100000000E-03 0.  1.
    9900012    2    1    2    0    0  0.10893677138E+01 -0.40315245219E+00 -0.20875836230E+00  0.90007816129E+02  0.90000078502E+02 0.  0.
         12    1    1    2    0    0 -0.10893677138E+01  0.40315245219E+00  0.20875836230E+00  0.11801838710E+01  0.00000000000E+00 0. -1.
         11    1    3    3    0    0 -0.73878589518E+01  0.93256716704E+00  0.37506104328E+01  0.83376987408E+01  0.51100000000E-03 0. -1.
        -11    1    3    3    0    0 -0.26235610099E+02 -0.24820870269E+02 -0.13725286523E+02  0.38636334306E+02  0.51100000000E-03 0.  1.
         12    1    3    3    0    0  0.34712836765E+02  0.23485150650E+02  0.97659177282E+01  0.43033783082E+02  0.00000000000E+00 0. -1.
</event>
<event>
 7    1  0.2084210E-015  0.9000828E+02  0.7816164E-02  0.1186338E+00
        -11   -1    0    0    0    0  0.00000000000E+00  0.00000000000E+00  0.45593999997E+02  0.45594000000E+02  0.51100000000E-03 0. -1.
         11   -1    0    0    0    0 -0.00000000000E+00 -0.00000000000E+00 -0.45593999997E+02  0.45594000000E+02  0.51100000000E-03 0.  1.
    9900012    2    1    2    0    0 -0.63841250749E+00  0.95793531932E+00 -0.25793423785E+00  0.90008279407E+02  0.90000547894E+02 0.  0.
         12    1    1    2    0    0  0.63841250749E+00 -0.95793531932E+00  0.25793423785E+00  0.11797205927E+01  0.00000000000E+00 0. -1.
         11    1    3    3    0    0  0.18897211109E+01  0.64042029144E+01  0.25761117938E+01  0.71568996836E+01  0.51100000000E-03 0. -1.
        -11    1    3    3    0    0 -0.82988984313E+01  0.37161431915E+02  0.70727324854E+01  0.38728120045E+02  0.51100000000E-03 0.  1.
         12    1    3    3    0    0  0.57707648129E+01 -0.42607699510E+02 -0.99067785171E+01  0.44123259679E+02  0.00000000000E+00 0. -1.
</event>
<event>
 7    1  0.2084210E-015  0.9000772E+02  0.7816164E-02  0.1186339E+00
        -11   -1    0    0    0    0  0.00000000000E+00  0.00000000000E+00  0.45593999997E+02  0.45594000000E+02  0.51100000000E-03 0.  1.
         11   -1    0    0    0    0 -0.00000000000E+00 -0.00000000000E+00 -0.45593999997E+02  0.45594000000E+02  0.51100000000E-03 0. -1.
    9900012    2    1    2    0    0 -0.39328550093E+00  0.10489483928E+01  0.37161822101E+00  0.90007717696E+02  0.89999978769E+02 0.  0.
         12    1    1    2    0    0  0.39328550093E+00 -0.10489483928E+01 -0.37161822101E+00  0.11802823045E+01  0.00000000000E+00 0. -1.
         11    1    3    3    0    0 -0.57033777236E+01 -0.26325460040E+02 -0.24226306527E+02  0.36228059456E+02  0.51100000000E-03 0. -1.
        -11    1    3    3    0    0 -0.15079356911E+00 -0.27643860256E+01 -0.83480587287E+01  0.87951494358E+01  0.51100000000E-03 0.  1.
        -12    1    3    3    0    0  0.54608857918E+01  0.30138794459E+02  0.32945983476E+02  0.44984508803E+02  0.00000000000E+00 0.  1.
</event>
<event>
 7    1  0.2084210E-015  0.9000830E+02  0.7816164E-02  0.1186338E+00
        -11   -1    0    0    0    0  0.00000000000E+00  0.00000000000E+00  0.45593999997E+02  0.45594000000E+02  0.51100000000E-03 0.  1.
         11   -1    0    0    0    0 -0.00000000000E+00 -0.00000000000E+00 -0.45593999997E+02  0.45594000000E+02  0.51100000000E-03 0. -1.
    9900012    2    1    2    0    0  0.73397395833E+00  0.90395924197E+00  0.18932395620E+00  0.90008295103E+02  0.90000563797E+02 0.  0.
         12    1    1    2    0    0 -0.73397395833E+00 -0.90395924197E+00 -0.18932395620E+00  0.11797048966E+01  0.00000000000E+00 0. -1.
         11    1    3    3    0    0 -0.61923676880E+01 -0.30979021719E+02  0.13751258498E+02  0.34454931647E+02  0.51100000000E-03 0. -1.
        -11    1    3    3    0    0 -0.40547319395E+01 -0.96790757193E+01 -0.58704248234E-01  0.10494227191E+02  0.51100000000E-03 0.  1.
        -12    1    3    3    0    0  0.10981073586E+02  0.41562056681E+02 -0.13503230294E+02  0.45059136265E+02  0.00000000000E+00 0.  1.
</event>
<event>
 7    1  0.2084210E-015  0.9000762E+02  0.7816164E-02  0.1186339E+00
        -11   -1    0    0    0    0  0.00000000000E+00  0.00000000000E+00  0.45593999997E+02  0.45594000000E+02  0.51100000000E-03 0. -1.
         11   -1    0    0    0    0 -0.00000000000E+00 -0.00000000000E+00 -0.45593999997E+02  0.45594000000E+02  0.51100000000E-03 0.  1.
    9900012    2    1    2    0    0  0.51424331936E+00 -0.10525841749E+01 -0.14466345271E+00  0.90007615676E+02  0.89999875403E+02 0.  0.
         12    1    1    2    0    0 -0.51424331936E+00  0.10525841749E+01  0.14466345271E+00  0.11803843236E+01  0.00000000000E+00 0. -1.
         11    1    3    3    0    0  0.22606530301E+02 -0.30673194290E+02  0.16794845808E+02  0.41640928258E+02  0.51100000000E-03 0. -1.
        -11    1    3    3    0    0  0.15024383775E+01  0.50534807670E+01 -0.13059969395E+02  0.14083955048E+02  0.51100000000E-03 0.  1.
        -12    1    3    3    0    0 -0.23594725359E+02  0.24567129348E+02 -0.38795398660E+01  0.34282732370E+02  0.00000000000E+00 0.  1.
</event>
<event>
 7    1  0.2084210E-015  0.9000773E+02  0.7816164E-02  0.1186339E+00
        -11   -1    0    0    0    0  0.00000000000E+00  0.00000000000E+00  0.45593999997E+02  0.45594000000E+02  0.51100000000E-03 0.  1.
         11   -1    0    0    0    0 -0.00000000000E+00 -0.00000000000E+00 -0.45593999997E+02  0.45594000000E+02  0.51100000000E-03 0. -1.
    9900012    2    1    2    0    0 -0.74795545778E+00 -0.13877140559E+00  0.90240317184E+00  0.90007734625E+02  0.89999995922E+02 0.  0.
         12    1    1    2    0    0  0.74795545778E+00  0.13877140559E+00 -0.90240317184E+00  0.11802653746E+01  0.00000000000E+00 0. -1.
         11    1    3    3    0    0  0.24221384290E+01 -0.59377263548E+01  0.79894722319E+01  0.10244755519E+02  0.51100000000E-03 0. -1.
        -11    1    3    3    0    0  0.22443811705E+02 -0.85464862650E+01  0.26090894872E+02  0.35461273339E+02  0.51100000000E-03 0.  1.
         12    1    3    3    0    0 -0.25613905592E+02  0.14345441214E+02 -0.33177963932E+02  0.44301705768E+02  0.00000000000E+00 0. -1.
</event>
<event>
 7    1  0.2084210E-015  0.9000775E+02  0.7816164E-02  0.1186339E+00
        -11   -1    0    0    0    0  0.00000000000E+00  0.00000000000E+00  0.45593999997E+02  0.45594000000E+02  0.51100000000E-03 0. -1.
         11   -1    0    0    0    0 -0.00000000000E+00 -0.00000000000E+00 -0.45593999997E+02  0.45594000000E+02  0.51100000000E-03 0.  1.
    9900012    2    1    2    0    0 -0.37964082150E+00  0.95778118107E-01 -0.11134121737E+01  0.90007751183E+02  0.90000012699E+02 0.  0.
         12    1    1    2    0    0  0.37964082150E+00 -0.95778118107E-01  0.11134121737E+01  0.11802488169E+01  0.00000000000E+00 0. -1.
         11    1    3    3    0    0 -0.37266902864E+02  0.18482712733E+02 -0.75636622882E+00  0.41605345921E+02  0.51100000000E-03 0. -1.
        -11    1    3    3    0    0  0.57763576200E+01  0.58231061048E+01 -0.33677787951E+01  0.88666118859E+01  0.51100000000E-03 0.  1.
        -12    1    3    3    0    0  0.31110904422E+02 -0.24210040720E+02  0.30107328502E+01  0.39535793377E+02  0.00000000000E+00 0.  1.
</event>
<event>
 7    1  0.2084210E-015  0.9000781E+02  0.7816164E-02  0.1186339E+00
        -11   -1    0    0    0    0  0.00000000000E+00  0.00000000000E+00  0.45593999997E+02  0.45594000000E+02  0.51100000000E-03 0. -1.
         11   -1    0    0    0    0 -0.00000000000E+00 -0.00000000000E+00 -0.45593999997E+02  0.45594000000E+02  0.51100000000E-03 0.  1.
    9900012    2    1    2    0    0 -0.77833657382E+00 -0.84474490435E+00 -0.27102692687E+00  0.90007806215E+02  0.90000068457E+02 0.  0.
         12    1    1    2    0    0  0.77833657382E+00  0.84474490435E+00  0.27102692687E+00  0.11801937852E+01  0.00000000000E+00 0. -1.
         11    1    3    3    0    0  0.83566951203E+01  0.31405703985E+01  0.39969871450E+01  0.97812801954E+01  0.51100000000E-03 0. -1.
        -11    1    3    3    0    0 -0.63853644315E+01  0.34591200457E+02 -0.17581516452E+02  0.39324721855E+02  0.51100000000E-03 0.  1.
         12    1    3    3    0    0 -0.27496672627E+01 -0.38576515760E+02  0.13313502380E+02  0.40901804164E+02  0.00000000000E+00 0. -1.
</event>
<event>
 7    1  0.2084210E-015  0.9000773E+02  0.7816164E-02  0.1186339E+00
        -11   -1    0    0    0    0  0.00000000000E+00  0.00000000000E+00  0.45593999997E+02  0.45594000000E+02  0.51100000000E-03 0. -1.
         11   -1    0    0    0    0 -0.00000000000E+00 -0.00000000000E+00 -0.45593999997E+02  0.45594000000E+02  0.51100000000E-03 0.  1.
    9900012    2    1    2    0    0 -0.80802751211E+00 -0.64391743420E+00 -0.57053255707E+00  0.90007726506E+02  0.89999987696E+02 0.  0.
         12    1    1    2    0    0  0.80802751211E+00  0.64391743420E+00  0.57053255707E+00  0.11802734942E+01  0.00000000000E+00 0. -1.
         11    1    3    3    0    0  0.36207388354E+01 -0.19350118502E+02 -0.22910339845E+02  0.30206299142E+02  0.51100000000E-03 0. -1.
        -11    1    3    3    0    0  0.10455889168E+02 -0.97828813252E+01 -0.73053866482E+01  0.16074795789E+02  0.51100000000E-03 0.  1.
        -12    1    3    3    0    0 -0.14884655516E+02  0.28489082393E+02  0.29645193936E+02  0.43726631575E+02  0.00000000000E+00 0.  1.
</event>
<event>
 7    1  0.2084210E-015  0.9000732E+02  0.7816164E-02  0.1186340E+00
        -11   -1    0    0    0    0  0.00000000000E+00  0.00000000000E+00  0.45593999997E+02  0.45594000000E+02  0.51100000000E-03 0.  1.
         11   -1    0    0    0    0 -0.00000000000E+00 -0.00000000000E+00 -0.45593999997E+02  0.45594000000E+02  0.51100000000E-03 0. -1.
    9900012    2    1    2    0    0 -0.10279168631E+01 -0.45568844714E+00  0.36018776518E+00  0.90007322117E+02  0.89999577967E+02 0.  0.
         12    1    1    2    0    0  0.10279168631E+01  0.45568844714E+00 -0.36018776518E+00  0.11806778835E+01  0.00000000000E+00 0. -1.
         11    1    3    3    0    0 -0.84771273361E+01  0.47967386462E+01 -0.93769910615E+00  0.97851760019E+01  0.51100000000E-03 0. -1.
        -11    1    3    3    0    0  0.81412061429E+01 -0.17095133552E+02  0.37563332205E+02  0.42065743251E+02  0.51100000000E-03 0.  1.
         12    1    3    3    0    0 -0.69199566995E+00  0.11842706459E+02 -0.36265445334E+02  0.38156402864E+02  0.00000000000E+00 0. -1.
</event>
<event>
 7    1  0.2084210E-015  0.9000769E+02  0.7816164E-02  0.1186339E+00
        -11   -1    0    0    0    0  0.00000000000E+00  0.00000000000E+00  0.45593999997E+02  0.45594000000E+02  0.51100000000E-03 0.  1.
         11   -1    0    0    0    0 -0.00000000000E+00 -0.00000000000E+00 -0.45593999997E+02  0.45594000000E+02  0.51100000000E-03 0. -1.
    9900012    2    1    2    0    0 -0.69065099372E+00  0.87967190102E+00  0.37724952048E+00  0.90007687055E+02  0.89999947724E+02 0.  0.
         12    1    1    2    0    0  0.69065099372E+00 -0.87967190102E+00 -0.37724952048E+00  0.11803129455E+01  0.00000000000E+00 0. -1.
         11    1    3    3    0    0  0.20946377726E+02 -0.13495585333E+02 -0.30955426492E+02  0.39738142796E+02  0.51100000000E-03 0. -1.
        -11    1    3    3    0    0  0.46316448981E+01  0.11831979454E+02  0.77953340165E+01  0.14906881127E+02  0.51100000000E-03 0.  1.
        -12    1    3    3    0    0 -0.26268673618E+02  0.25432777803E+01  0.23537341996E+02  0.35362663131E+02  0.00000000000E+00 0.  1.
</event>
<event>
 7    1  0.2084210E-015  0.9000775E+02  0.7816164E-02  0.1186339E+00
        -11   -1    0    0    0    0  0.00000000000E+00  0.00000000000E+00  0.45593999997E+02  0.45594000000E+02  0.51100000000E-03 0.  1.
         11   -1    0    0    0    0 -0.00000000000E+00 -0.00000000000E+00 -0.45593999997E+02  0.45594000000E+02  0.51100000000E-03 0. -1.
    9900012    2    1    2    0    0 -0.54157400861E+00 -0.10359701998E+01  0.16267231350E+00  0.90007746238E+02  0.90000007688E+02 0.  0.
         12    1    1    2    0    0  0.54157400861E+00  0.10359701998E+01 -0.16267231350E+00  0.11802537623E+01  0.00000000000E+00 0. -1.
         11    1    3    3    0    0  0.19851989701E+02  0.17858249889E+02 -0.26661158394E+02  0.37733750825E+02  0.51100000000E-03 0. -1.
        -11    1    3    3    0    0 -0.84540287214E+01  0.97268400393E+01  0.31707452161E+01  0.13271610462E+02  0.51100000000E-03 0.  1.
        -12    1    3    3    0    0 -0.11939534988E+02 -0.28621060128E+02  0.23653085491E+02  0.39002384950E+02  0.00000000000E+00 0.  1.
</event>
<event>
 7    1  0.2084210E-015  0.9000748E+02  0.7816164E-02  0.1186340E+00
        -11   -1    0    0    0    0  0.00000000000E+00  0.00000000000E+00  0.45593999997E+02  0.45594000000E+02  0.51100000000E-03 0. -1.
         11   -1    0    0    0    0 -0.00000000000E+00 -0.00000000000E+00 -0.45593999997E+02  0.45594000000E+02  0.51100000000E-03 0.  1.
    9900012    2    1    2    0    0  0.10607629848E+01  0.40474204969E+00 -0.32339891791E+00  0.90007482700E+02  0.89999740671E+02 0.  0.
         12    1    1    2    0    0 -0.10607629848E+01 -0.40474204969E+00  0.32339891791E+00  0.11805173005E+01  0.00000000000E+00 0. -1.
         11    1    3    3    0    0  0.15743106097E+02  0.17530982396E+02  0.11491559269E+02  0.26215199180E+02  0.51100000000E-03 0. -1.
        -11    1    3    3    0    0  0.17175586160E+02 -0.15990404346E+02  0.96366619374E+01  0.25368465556E+02  0.51100000000E-03 0.  1.
         12    1    3    3    0    0 -0.31857929272E+02 -0.11358360002E+01 -0.21451620124E+02  0.38423817964E+02  0.00000000000E+00 0. -1.
</event>
<event>
 7    1  0.2084210E-015  0.9000791E+02  0.7816164E-02  0.1186339E+00
        -11   -1    0    0    0    0  0.00000000000E+00  0.00000000000E+00  0.45593999997E+02  0.45594000000E+02  0.51100000000E-03 0.  1.
         11   -1    0    0    0    0 -0.00000000000E+00 -0.00000000000E+00 -0.45593999997E+02  0.45594000000E+02  0.51100000000E-03 0. -1.
    9900012    2    1    2    0    0  0.68177245355E+00 -0.57850721080E+00  0.77015317241E+00  0.90007906707E+02  0.90000170275E+02 0.  0.
         12    1    1    2    0    0 -0.68177245355E+00  0.57850721080E+00 -0.77015317241E+00  0.11800932931E+01  0.00000000000E+00 0. -1.
         11    1    3    3    0    0 -0.44145861889E+01  0.66507154848E+01  0.45687733829E+01  0.91975147820E+01  0.51100000000E-03 0. -1.
        -11    1    3    3    0    0 -0.12720568556E+01 -0.41536589634E+02  0.10877641593E+02  0.42956134532E+02  0.51100000000E-03 0.  1.
         12    1    3    3    0    0  0.63684154980E+01  0.34307366939E+02 -0.14676261803E+02  0.37854257392E+02  0.00000000000E+00 0. -1.
</event>
<event>
 7    1  0.2084210E-015  0.9000761E+02  0.7816164E-02  0.1186339E+00
        -11   -1    0    0    0    0  0.00000000000E+00  0.00000000000E+00  0.45593999997E+02  0.45594000000E+02  0.51100000000E-03 0.  1.
         11   -1    0    0    0    0 -0.00000000000E+00 -0.00000000000E+00 -0.45593999997E+02  0.45594000000E+02  0.51100000000E-03 0. -1.
    9900012    2    1    2    0    0  0.47081883288E-01  0.11727232650E+01  0.12575070531E+00  0.90007614555E+02  0.89999874267E+02 0.  0.
         12    1    1    2    0    0 -0.47081883288E-01 -0.11727232650E+01 -0.12575070531E+00  0.11803854454E+01  0.00000000000E+00 0. -1.
         11    1    3    3    0    0  0.61321712756E+01  0.16153535715E+02 -0.31108691590E+01  0.17556131346E+02  0.51100000000E-03 0. -1.
        -11    1    3    3    0    0 -0.10404751626E+02  0.17901532632E+02 -0.22421798277E+02  0.30519842156E+02  0.51100000000E-03 0.  1.
         12    1    3    3    0    0  0.43196622340E+01 -0.32882345081E+02  0.25658418142E+02  0.41931641053E+02  0.00000000000E+00 0. -1.
</event>
<event>
 7    1  0.2084210E-015  0.9000772E+02  0.7816164E-02  0.1186339E+00
        -11   -1    0    0    0    0  0.00000000000E+00  0.00000000000E+00  0.45593999997E+02  0.45594000000E+02  0.51100000000E-03 0. -1.
         11   -1    0    0    0    0 -0.00000000000E+00 -0.00000000000E+00 -0.45593999997E+02  0.45594000000E+02  0.51100000000E-03 0.  1.
    9900012    2    1    2    0    0  0.99192149186E+00  0.50768057985E+00 -0.38913014436E+00  0.90007716099E+02  0.89999977152E+02 0.  0.
         12    1    1    2    0    0 -0.99192149186E+00 -0.50768057985E+00  0.38913014436E+00  0.11802839008E+01  0.00000000000E+00 0. -1.
         11    1    3    3    0    0  0.32987386057E+01 -0.53202381471E+01 -0.70950409617E+01  0.94618294658E+01  0.51100000000E-03 0. -1.
        -11    1    3    3    0    0 -0.38682973903E+01  0.33350536706E+02 -0.22475460850E+02  0.40402578680E+02  0.51100000000E-03 0.  1.
         12    1    3    3    0    0  0.15614802765E+01 -0.27522617979E+02  0.29181371667E+02  0.40143307954E+02  0.00000000000E+00 0. -1.
</event>
<event>
 7    1  0.2084210E-015  0.9000789E+02  0.7816164E-02  0.1186339E+00
        -11   -1    0    0    0    0  0.00000000000E+00  0.00000000000E+00  0.45593999997E+02  0.45594000000E+02  0.51100000000E-03 0.  1.
         11   -1    0    0    0    0 -0.00000000000E+00 -0.00000000000E+00 -0.45593999997E+02  0.45594000000E+02  0.51100000000E-03 0. -1.
    9900012    2    1    2    0    0 -0.55248939429E+00  0.33045642701E+00  0.98904586397E+00  0.90007890809E+02  0.90000154168E+02 0.  0.
         12    1    1    2    0    0  0.55248939429E+00 -0.33045642701E+00 -0.98904586397E+00  0.11801091907E+01  0.00000000000E+00 0. -1.
         11    1    3    3    0    0 -0.34058458161E+01  0.64008236777E+01  0.82519971137E+01  0.10984797954E+02  0.51100000000E-03 0. -1.
        -11    1    3    3    0    0  0.37605675878E+02  0.10675102107E+02  0.26885341432E+01  0.39183834414E+02  0.51100000000E-03 0.  1.
         12    1    3    3    0    0 -0.34752319457E+02 -0.16745469357E+02 -0.99514853929E+01  0.39839258441E+02  0.00000000000E+00 0. -1.
</event>
<event>
 7    1  0.2084210E-015  0.9000769E+02  0.7816164E-02  0.1186339E+00
        -11   -1    0    0    0    0  0.00000000000E+00  0.00000000000E+00  0.45593999997E+02  0.45594000000E+02  0.51100000000E-03 0. -1.
         11   -1    0    0    0    0 -0.00000000000E+00 -0.00000000000E+00 -0.45593999997E+02  0.45594000000E+02  0.51100000000E-03 0.  1.
    9900012    2    1    2    0    0  0.30257902170E+00 -0.26888217546E+00 -0.11087273260E+01  0.90007691578E+02  0.89999952306E+02 0.  0.
         12    1    1    2    0    0 -0.30257902170E+00  0.26888217546E+00  0.11087273260E+01  0.11803084225E+01  0.00000000000E+00 0. -1.
         11    1    3    3    0    0 -0.20895343873E+02  0.12940256189E+02  0.34620608797E+02  0.42457651602E+02  0.51100000000E-03 0. -1.
        -11    1    3    3    0    0  0.13351753259E+01  0.44314021589E+01 -0.72744445217E+01  0.86219233124E+01  0.51100000000E-03 0.  1.
        -12    1    3    3    0    0  0.19862747568E+02 -0.17640540524E+02 -0.28454891601E+02  0.38928116664E+02  0.00000000000E+00 0.  1.
</event>
<event>
 7    1  0.2084210E-015  0.9000776E+02  0.7816164E-02  0.1186339E+00
        -11   -1    0    0    0    0  0.00000000000E+00  0.00000000000E+00  0.45593999997E+02  0.45594000000E+02  0.51100000000E-03 0.  1.
         11   -1    0    0    0    0 -0.00000000000E+00 -0.00000000000E+00 -0.45593999997E+02  0.45594000000E+02  0.51100000000E-03 0. -1.
    9900012    2    1    2    0    0  0.22435062137E+00  0.11542898760E+01  0.10121557511E+00  0.90007761502E+02  0.90000023154E+02 0.  0.
         12    1    1    2    0    0 -0.22435062137E+00 -0.11542898760E+01 -0.10121557511E+00  0.11802384978E+01  0.00000000000E+00 0. -1.
         11    1    3    3    0    0 -0.63224281793E+01  0.37934213422E+00  0.52663742867E+01  0.82372141484E+01  0.51100000000E-03 0. -1.
        -11    1    3    3    0    0 -0.34793303556E+02  0.24878926440E+01  0.12122563140E+02  0.36928581336E+02  0.51100000000E-03 0.  1.
         12    1    3    3    0    0  0.41340082357E+02 -0.17129449022E+01 -0.17287721851E+02  0.44841966018E+02  0.00000000000E+00 0. -1.
</event>
<event>
 7    1  0.2084210E-015  0.9000771E+02  0.7816164E-02  0.1186339E+00
        -11   -1    0    0    0    0  0.00000000000E+00  0.00000000000E+00  0.45593999997E+02  0.45594000000E+02  0.51100000000E-03 0.  1.
         11   -1    0    0    0    0 -0.00000000000E+00 -0.00000000000E+00 -0.45593999997E+02  0.45594000000E+02  0.51100000000E-03 0. -1.
    9900012    2    1    2    0    0  0.26055246957E+00 -0.63531266125E+00  0.95999089768E+00  0.90007706693E+02  0.89999967621E+02 0.  0.
         12    1    1    2    0    0 -0.26055246957E+00  0.63531266125E+00 -0.95999089768E+00  0.11802933070E+01  0.00000000000E+00 0. -1.
         11    1    3    3    0    0 -0.20159990888E+02 -0.28402418055E+02 -0.23955088060E+02  0.42272554078E+02  0.51100000000E-03 0. -1.
        -11    1    3    3    0    0  0.83621359911E+01  0.39285501293E+01 -0.23816279241E+01  0.95410154744E+01  0.51100000000E-03 0.  1.
        -12    1    3    3    0    0  0.12058407367E+02  0.23838555265E+02  0.27296706882E+02  0.38194137141E+02  0.00000000000E+00 0.  1.
</event>
<event>
 7    1  0.2084210E-015  0.9000778E+02  0.7816164E-02  0.1186339E+00
        -11   -1    0    0    0    0  0.00000000000E+00  0.00000000000E+00  0.45593999997E+02  0.45594000000E+02  0.51100000000E-03 0.  1.
         11   -1    0    0    0    0 -0.00000000000E+00 -0.00000000000E+00 -0.45593999997E+02  0.45594000000E+02  0.51100000000E-03 0. -1.
    9900012    2    1    2    0    0  0.10343286470E+01 -0.57932726775E-01  0.56544464268E+00  0.90007779853E+02  0.90000041747E+02 0.  0.
         12    1    1    2    0    0 -0.10343286470E+01  0.57932726775E-01 -0.56544464268E+00  0.11802201467E+01  0.00000000000E+00 0. -1.
         11    1    3    3    0    0 -0.83372102342E+01 -0.31300924504E+01  0.21354178221E+01  0.91578688991E+01  0.51100000000E-03 0. -1.
        -11    1    3    3    0    0  0.39717962272E+02 -0.78330466507E+01  0.16694562771E+02  0.43790199512E+02  0.51100000000E-03 0.  1.
         12    1    3    3    0    0 -0.30346423391E+02  0.10905206374E+02 -0.18264535951E+02  0.37059711442E+02  0.00000000000E+00 0. -1.
</event>
<event>
 7    1  0.2084210E-015  0.9000776E+02  0.7816164E-02  0.1186339E+00
        -11   -1    0    0    0    0  0.00000000000E+00  0.00000000000E+00  0.45593999997E+02  0.45594000000E+02  0.51100000000E-03 0.  1.
         11   -1    0    0    0    0 -0.00000000000E+00 -0.00000000000E+00 -0.45593999997E+02  0.45594000000E+02  0.51100000000E-03 0. -1.
    9900012    2    1    2    0    0  0.49550519088E+00  0.81817597773E+00  0.69139542232E+00  0.90007760637E+02  0.90000022277E+02 0.  0.
         12    1    1    2    0    0 -0.49550519088E+00 -0.81817597773E+00 -0.69139542232E+00  0.11802393633E+01  0.00000000000E+00 0. -1.
         11    1    3    3    0    0  0.37941579650E+01  0.28462634291E+01 -0.69897265650E+01  0.84470780680E+01  0.51100000000E-03 0. -1.
        -11    1    3    3    0    0  0.19574777550E+02 -0.35527427541E+02  0.55515313294E+01  0.40941293631E+02  0.51100000000E-03 0.  1.
         12    1    3    3    0    0 -0.22873430324E+02  0.33499340090E+02  0.21295906579E+01  0.40619388937E+02  0.00000000000E+00 0. -1.
</event>
<event>
 7    1  0.2084210E-015  0.9000766E+02  0.7816164E-02  0.1186339E+00
        -11   -1    0    0    0    0  0.00000000000E+00  0.00000000000E+00  0.45593999997E+02  0.45594000000E+02  0.51100000000E-03 0.  1.
         11   -1    0    0    0    0 -0.00000000000E+00 -0.00000000000E+00 -0.45593999997E+02  0.45594000000E+02  0.51100000000E-03 0. -1.
    9900012    2    1    2    0    0  0.54554996135E+00 -0.93169369317E+00  0.47698995313E+00  0.90007662204E+02  0.89999922545E+02 0.  0.
         12    1    1    2    0    0 -0.54554996135E+00  0.93169369317E+00 -0.47698995313E+00  0.11803377964E+01  0.00000000000E+00 0. -1.
         11    1    3    3    0    0  0.74305793403E+01  0.36737037202E+01 -0.35980133957E+01  0.90363327193E+01  0.51100000000E-03 0. -1.
        -11    1    3    3    0    0  0.31080524247E+02  0.75353441578E+01 -0.16639390845E+02  0.36050655015E+02  0.51100000000E-03 0.  1.
         12    1    3    3    0    0 -0.37965553626E+02 -0.12140741571E+02  0.20714394194E+02  0.44920674470E+02  0.00000000000E+00 0. -1.
</event>
<event>
 7    1  0.2084210E-015  0.9000772E+02  0.7816164E-02  0.1186339E+00
        -11   -1    0    0    0    0  0.00000000000E+00  0.00000000000E+00  0.45593999997E+02  0.45594000000E+02  0.51100000000E-03 0. -1.
         11   -1    0    0    0    0 -0.00000000000E+00 -0.00000000000E+00 -0.45593999997E+02  0.45594000000E+02  0.51100000000E-03 0.  1.
    9900012    2    1    2    0    0  0.10615802680E+01  0.45619850693E+00 -0.24079852891E+00  0.90007723052E+02  0.89999984196E+02 0.  0.
         12    1    1    2    0    0 -0.10615802680E+01 -0.45619850693E+00  0.24079852891E+00  0.11802769483E+01  0.00000000000E+00 0. -1.
         11    1    3    3    0    0  0.85186243855E+01  0.33487348936E+00  0.15864625435E+01  0.86715607211E+01  0.51100000000E-03 0. -1.
        -11    1    3    3    0    0  0.17678297824E+02  0.10856279947E+02 -0.33560633712E+02  0.39455001757E+02  0.51100000000E-03 0.  1.
         12    1    3    3    0    0 -0.25135341941E+02 -0.10734954929E+02  0.31733372640E+02  0.41881160573E+02  0.00000000000E+00 0. -1.
</event>
<event>
 7    1  0.2084210E-015  0.9000790E+02  0.7816164E-02  0.1186339E+00
        -11   -1    0    0    0    0  0.00000000000E+00  0.00000000000E+00  0.45593999997E+02  0.45594000000E+02  0.51100000000E-03 0.  1.
         11   -1    0    0    0    0 -0.00000000000E+00 -0.00000000000E+00 -0.45593999997E+02  0.45594000000E+02  0.51100000000E-03 0. -1.
    9900012    2    1    2    0    0 -0.56034063797E+00 -0.78318301935E+00 -0.68211846425E+00  0.90007897093E+02  0.90000160534E+02 0.  0.
         12    1    1    2    0    0  0.56034063797E+00  0.78318301935E+00  0.68211846425E+00  0.11801029072E+01  0.00000000000E+00 0. -1.
         11    1    3    3    0    0 -0.29564342548E+02  0.16240043493E+01 -0.19192633198E+02  0.35285193917E+02  0.51100000000E-03 0. -1.
        -11    1    3    3    0    0 -0.71366159736E+01  0.45467251299E+01 -0.61152501892E+01  0.10440320019E+02  0.51100000000E-03 0.  1.
        -12    1    3    3    0    0  0.36140617884E+02 -0.69539124985E+01  0.24625764923E+02  0.44282383157E+02  0.00000000000E+00 0.  1.
</event>
<event>
 7    1  0.2084210E-015  0.9000770E+02  0.7816164E-02  0.1186339E+00
        -11   -1    0    0    0    0  0.00000000000E+00  0.00000000000E+00  0.45593999997E+02  0.45594000000E+02  0.51100000000E-03 0.  1.
         11   -1    0    0    0    0 -0.00000000000E+00 -0.00000000000E+00 -0.45593999997E+02  0.45594000000E+02  0.51100000000E-03 0. -1.
    9900012    2    1    2    0    0  0.70382899895E+00  0.88670580309E+00  0.33388227387E+00  0.90007703506E+02  0.89999964392E+02 0.  0.
         12    1    1    2    0    0 -0.70382899895E+00 -0.88670580309E+00 -0.33388227387E+00  0.11802964940E+01  0.00000000000E+00 0. -1.
         11    1    3    3    0    0 -0.23218547840E+00 -0.77802325751E+01  0.12652575718E+01  0.78858611453E+01  0.51100000000E-03 0. -1.
        -11    1    3    3    0    0 -0.26214510495E+01 -0.22529684525E+01  0.39724677137E+02  0.39874777069E+02  0.51100000000E-03 0.  1.
         12    1    3    3    0    0  0.35574655268E+01  0.10919906831E+02 -0.40656052435E+02  0.42247065291E+02  0.00000000000E+00 0. -1.
</event>
<event>
 7    1  0.2084210E-015  0.9000784E+02  0.7816164E-02  0.1186339E+00
        -11   -1    0    0    0    0  0.00000000000E+00  0.00000000000E+00  0.45593999997E+02  0.45594000000E+02  0.51100000000E-03 0. -1.
         11   -1    0    0    0    0 -0.00000000000E+00 -0.00000000000E+00 -0.45593999997E+02  0.45594000000E+02  0.51100000000E-03 0.  1.
    9900012    2    1    2    0    0  0.14300524041E+00 -0.80767163833E+00 -0.84852858611E+00  0.90007836988E+02  0.90000099636E+02 0.  0.
         12    1    1    2    0    0 -0.14300524041E+00  0.80767163833E+00  0.84852858611E+00  0.11801630123E+01  0.00000000000E+00 0. -1.
         11    1    3    3    0    0  0.72608398774E+01  0.18908025930E+01 -0.52745295752E+01  0.91714553192E+01  0.51100000000E-03 0. -1.
        -11    1    3    3    0    0 -0.12612717734E+02  0.28176008253E+02 -0.23537526128E+02  0.38819881841E+02  0.51100000000E-03 0.  1.
         12    1    3    3    0    0  0.54948830970E+01 -0.30874482484E+02  0.27963527117E+02  0.42016499827E+02  0.00000000000E+00 0. -1.
</event>
<event>
 7    1  0.2084210E-015  0.9000778E+02  0.7816164E-02  0.1186339E+00
        -11   -1    0    0    0    0  0.00000000000E+00  0.00000000000E+00  0.45593999997E+02  0.45594000000E+02  0.51100000000E-03 0. -1.
         11   -1    0    0    0    0 -0.00000000000E+00 -0.00000000000E+00 -0.45593999997E+02  0.45594000000E+02  0.51100000000E-03 0.  1.
    9900012    2    1    2    0    0 -0.98756914981E+00 -0.41117931105E+00  0.49854651296E+00  0.90007783970E+02  0.90000045919E+02 0.  0.
         12    1    1    2    0    0  0.98756914981E+00  0.41117931105E+00 -0.49854651296E+00  0.11802160298E+01  0.00000000000E+00 0. -1.
         11    1    3    3    0    0  0.36825759094E+02  0.36987977664E+01  0.60908337520E+01  0.37508877533E+02  0.51100000000E-03 0. -1.
        -11    1    3    3    0    0  0.12611191590E+01 -0.12215020611E+02 -0.79974160081E+00  0.12305963471E+02  0.51100000000E-03 0.  1.
        -12    1    3    3    0    0 -0.39074447403E+02  0.81050435339E+01 -0.47925456383E+01  0.40192942965E+02  0.00000000000E+00 0.  1.
</event>
<event>
 7    1  0.2084210E-015  0.9000774E+02  0.7816164E-02  0.1186339E+00
        -11   -1    0    0    0    0  0.00000000000E+00  0.00000000000E+00  0.45593999997E+02  0.45594000000E+02  0.51100000000E-03 0.  1.
         11   -1    0    0    0    0 -0.00000000000E+00 -0.00000000000E+00 -0.45593999997E+02  0.45594000000E+02  0.51100000000E-03 0. -1.
    9900012    2    1    2    0    0  0.31657658130E+00  0.18774939967E+00  0.11214055602E+01  0.90007736894E+02  0.89999998221E+02 0.  0.
         12    1    1    2    0    0 -0.31657658130E+00 -0.18774939967E+00 -0.11214055602E+01  0.11802631059E+01  0.00000000000E+00 0. -1.
         11    1    3    3    0    0  0.12579373999E+01 -0.81591977139E+01  0.39729295493E+01  0.91618275088E+01  0.51100000000E-03 0. -1.
        -11    1    3    3    0    0 -0.11054589347E+02  0.30835705301E+01  0.37342480574E+02  0.39066266888E+02  0.51100000000E-03 0.  1.
         12    1    3    3    0    0  0.10113228529E+02  0.52633765834E+01 -0.40194004564E+02  0.41779642497E+02  0.00000000000E+00 0. -1.
</event>
<event>
 7    1  0.2084210E-015  0.9000778E+02  0.7816164E-02  0.1186339E+00
        -11   -1    0    0    0    0  0.00000000000E+00  0.00000000000E+00  0.45593999997E+02  0.45594000000E+02  0.51100000000E-03 0.  1.
         11   -1    0    0    0    0 -0.00000000000E+00 -0.00000000000E+00 -0.45593999997E+02  0.45594000000E+02  0.51100000000E-03 0. -1.
    9900012    2    1    2    0    0  0.45936590563E+00 -0.89163349288E+00  0.62200832998E+00  0.90007778968E+02  0.90000040851E+02 0.  0.
         12    1    1    2    0    0 -0.45936590563E+00  0.89163349288E+00 -0.62200832998E+00  0.11802210316E+01  0.00000000000E+00 0. -1.
         11    1    3    3    0    0 -0.35375631814E+01 -0.88915365805E+01 -0.27073527085E+01  0.99450256397E+01  0.51100000000E-03 0. -1.
        -11    1    3    3    0    0  0.27076807173E+02  0.17204212597E+01  0.32502111665E+02  0.42337933334E+02  0.51100000000E-03 0.  1.
         12    1    3    3    0    0 -0.23079878086E+02  0.62794818279E+01 -0.29172750627E+02  0.37724819995E+02  0.00000000000E+00 0. -1.
</event>
<event>
 7    1  0.2084210E-015  0.9000771E+02  0.7816164E-02  0.1186339E+00
        -11   -1    0    0    0    0  0.00000000000E+00  0.00000000000E+00  0.45593999997E+02  0.45594000000E+02  0.51100000000E-03 0. -1.
         11   -1    0    0    0    0 -0.00000000000E+00 -0.00000000000E+00 -0.45593999997E+02  0.45594000000E+02  0.51100000000E-03 0.  1.
    9900012    2    1    2    0    0 -0.38985967884E+00 -0.96769746182E+00 -0.55195504259E+00  0.90007710495E+02  0.89999971473E+02 0.  0.
         12    1    1    2    0    0  0.38985967884E+00  0.96769746182E+00  0.55195504259E+00  0.11802895051E+01  0.00000000000E+00 0. -1.
         11    1    3    3    0    0 -0.85129182948E+01 -0.33700867857E+01 -0.63968614144E+01  0.11169024087E+02  0.51100000000E-03 0. -1.
        -11    1    3    3    0    0 -0.29490619243E+02 -0.13971263235E+02 -0.11078625217E+02  0.34461990028E+02  0.51100000000E-03 0.  1.
         12    1    3    3    0    0  0.37613677859E+02  0.16373652559E+02  0.16923531589E+02  0.44376696380E+02  0.00000000000E+00 0. -1.
</event>
<event>
 7    1  0.2084210E-015  0.9000769E+02  0.7816164E-02  0.1186339E+00
        -11   -1    0    0    0    0  0.00000000000E+00  0.00000000000E+00  0.45593999997E+02  0.45594000000E+02  0.51100000000E-03 0.  1.
         11   -1    0    0    0    0 -0.00000000000E+00 -0.00000000000E+00 -0.45593999997E+02  0.45594000000E+02  0.51100000000E-03 0. -1.
    9900012    2    1    2    0    0 -0.81641942467E+00  0.84816141174E+00  0.84958189045E-01  0.90007688028E+02  0.89999948710E+02 0.  0.
         12    1    1    2    0    0  0.81641942467E+00 -0.84816141174E+00 -0.84958189045E-01  0.11803119720E+01  0.00000000000E+00 0. -1.
         11    1    3    3    0    0 -0.13003372898E+02 -0.14857741340E+02 -0.76885278135E+01  0.21188526250E+02  0.51100000000E-03 0. -1.
        -11    1    3    3    0    0 -0.14620858637E+02 -0.13865448064E+02 -0.12843365130E+02  0.23895024282E+02  0.51100000000E-03 0.  1.
        -12    1    3    3    0    0  0.26807812111E+02  0.29571350815E+02  0.20616851132E+02  0.44924137497E+02  0.00000000000E+00 0.  1.
</event>
<event>
 7    1  0.2084210E-015  0.9000774E+02  0.7816164E-02  0.1186339E+00
        -11   -1    0    0    0    0  0.00000000000E+00  0.00000000000E+00  0.45593999997E+02  0.45594000000E+02  0.51100000000E-03 0.  1.
         11   -1    0    0    0    0 -0.00000000000E+00 -0.00000000000E+00 -0.45593999997E+02  0.45594000000E+02  0.51100000000E-03 0. -1.
    9900012    2    1    2    0    0  0.88157314465E+00  0.47053211483E+00  0.62805226315E+00  0.90007736756E+02  0.89999998081E+02 0.  0.
         12    1    1    2    0    0 -0.88157314465E+00 -0.47053211483E+00 -0.62805226315E+00  0.11802632442E+01  0.00000000000E+00 0. -1.
         11    1    3    3    0    0  0.22556203783E+01 -0.86840147346E+01  0.38853955832E+01  0.97773326782E+01  0.51100000000E-03 0. -1.
        -11    1    3    3    0    0  0.15355792008E+02 -0.31240216343E+02  0.65518178489E+01  0.35421431122E+02  0.51100000000E-03 0.  1.
         12    1    3    3    0    0 -0.16729839242E+02  0.40394763193E+02 -0.98091611690E+01  0.44808972955E+02  0.00000000000E+00 0. -1.
</event>
<event>
 7    1  0.2084210E-015  0.9000775E+02  0.7816164E-02  0.1186339E+00
        -11   -1    0    0    0    0  0.00000000000E+00  0.00000000000E+00  0.45593999997E+02  0.45594000000E+02  0.51100000000E-03 0.  1.
         11   -1    0    0    0    0 -0.00000000000E+00 -0.00000000000E+00 -0.45593999997E+02  0.45594000000E+02  0.51100000000E-03 0. -1.
    9900012    2    1    2    0    0  0.13106256393E+00  0.86026391632E+00  0.79734751608E+00  0.90007748136E+02  0.90000009611E+02 0.  0.
         12    1    1    2    0    0 -0.13106256393E+00 -0.86026391632E+00 -0.79734751608E+00  0.11802518641E+01  0.00000000000E+00 0. -1.
         11    1    3    3    0    0  0.12492318611E+02  0.33185746470E+02 -0.21296295679E+02  0.41362833594E+02  0.51100000000E-03 0. -1.
        -11    1    3    3    0    0 -0.76143084894E+01  0.27869545478E+00 -0.19403385930E+01  0.78625872996E+01  0.51100000000E-03 0.  1.
        -12    1    3    3    0    0 -0.47469475579E+01 -0.32604178008E+02  0.24033981788E+02  0.40782327242E+02  0.00000000000E+00 0.  1.
</event>
<event>
 7    1  0.2084210E-015  0.9000774E+02  0.7816164E-02  0.1186339E+00
        -11   -1    0    0    0    0  0.00000000000E+00  0.00000000000E+00  0.45593999997E+02  0.45594000000E+02  0.51100000000E-03 0.  1.
         11   -1    0    0    0    0 -0.00000000000E+00 -0.00000000000E+00 -0.45593999997E+02  0.45594000000E+02  0.51100000000E-03 0. -1.
    9900012    2    1    2    0    0 -0.62440401771E-01  0.57538560028E+00  0.10286188827E+01  0.90007735539E+02  0.89999996848E+02 0.  0.
         12    1    1    2    0    0  0.62440401771E-01 -0.57538560028E+00 -0.10286188827E+01  0.11802644613E+01  0.00000000000E+00 0. -1.
         11    1    3    3    0    0  0.65338288500E+01  0.25499033881E+01  0.71191990277E+01  0.99937941637E+01  0.51100000000E-03 0. -1.
        -11    1    3    3    0    0 -0.78353760879E+01  0.38440691083E+02 -0.83850966648E+00  0.39240068146E+02  0.51100000000E-03 0.  1.
         12    1    3    3    0    0  0.12391068360E+01 -0.40415208871E+02 -0.52520704784E+01  0.40773873229E+02  0.00000000000E+00 0. -1.
</event>
<event>
 7    1  0.2084210E-015  0.9000771E+02  0.7816164E-02  0.1186339E+00
        -11   -1    0    0    0    0  0.00000000000E+00  0.00000000000E+00  0.45593999997E+02  0.45594000000E+02  0.51100000000E-03 0.  1.
         11   -1    0    0    0    0 -0.00000000000E+00 -0.00000000000E+00 -0.45593999997E+02  0.45594000000E+02  0.51100000000E-03 0. -1.
    9900012    2    1    2    0    0 -0.83344855239E+00 -0.81665374725E+00  0.17755579954E+00  0.90007709403E+02  0.89999970367E+02 0.  0.
         12    1    1    2    0    0  0.83344855239E+00  0.81665374725E+00 -0.17755579954E+00  0.11802905974E+01  0.00000000000E+00 0. -1.
         11    1    3    3    0    0  0.72136873488E+01  0.11697599323E+02  0.44602392066E+01  0.14448697143E+02  0.51100000000E-03 0. -1.
        -11    1    3    3    0    0 -0.30298050619E+02  0.19028681304E+02 -0.83638587866E+01  0.36742573638E+02  0.51100000000E-03 0.  1.
         12    1    3    3    0    0  0.22250914718E+02 -0.31542934375E+02  0.40811753796E+01  0.38816438621E+02  0.00000000000E+00 0. -1.
</event>
<event>
 7    1  0.2084210E-015  0.9000781E+02  0.7816164E-02  0.1186339E+00
        -11   -1    0    0    0    0  0.00000000000E+00  0.00000000000E+00  0.45593999997E+02  0.45594000000E+02  0.51100000000E-03 0.  1.
         11   -1    0    0    0    0 -0.00000000000E+00 -0.00000000000E+00 -0.45593999997E+02  0.45594000000E+02  0.51100000000E-03 0. -1.
    9900012    2    1    2    0    0 -0.86894387071E-01  0.10285101751E+01 -0.57224716318E+00  0.90007809070E+02  0.90000071350E+02 0.  0.
         12    1    1    2    0    0  0.86894387071E-01 -0.10285101751E+01  0.57224716318E+00  0.11801909297E+01  0.00000000000E+00 0. -1.
         11    1    3    3    0    0  0.30968433667E+02  0.22836975817E+02 -0.16965552583E+02  0.42052364059E+02  0.51100000000E-03 0. -1.
        -11    1    3    3    0    0  0.29565930798E+00 -0.24722956799E+00  0.92292539726E+01  0.92372975506E+01  0.51100000000E-03 0.  1.
        -12    1    3    3    0    0 -0.31350987362E+02 -0.21561236074E+02  0.71640514470E+01  0.38718147460E+02  0.00000000000E+00 0.  1.
</event>
<event>
 7    1  0.2084210E-015  0.9000777E+02  0.7816164E-02  0.1186339E+00
        -11   -1    0    0    0    0  0.00000000000E+00  0.00000000000E+00  0.45593999997E+02  0.45594000000E+02  0.51100000000E-03 0.  1.
         11   -1    0    0    0    0 -0.00000000000E+00 -0.00000000000E+00 -0.45593999997E+02  0.45594000000E+02  0.51100000000E-03 0. -1.
    9900012    2    1    2    0    0 -0.10903154136E+01  0.35390373388E+00  0.28088864086E+00  0.90007773758E+02  0.90000035572E+02 0.  0.
         12    1    1    2    0    0  0.10903154136E+01 -0.35390373388E+00 -0.28088864086E+00  0.11802262421E+01  0.00000000000E+00 0. -1.
         11    1    3    3    0    0 -0.53284165914E+01  0.27967062406E+01  0.53672657097E+01  0.80635681077E+01  0.51100000000E-03 0. -1.
        -11    1    3    3    0    0 -0.26051337677E+02 -0.29058929757E+01  0.27128475356E+02  0.37723607783E+02  0.51100000000E-03 0.  1.
         12    1    3    3    0    0  0.30289438855E+02  0.46309046895E+00 -0.32214852425E+02  0.44220597867E+02  0.00000000000E+00 0. -1.
</event>
<event>
 7    1  0.2084210E-015  0.9000771E+02  0.7816164E-02  0.1186339E+00
        -11   -1    0    0    0    0  0.00000000000E+00  0.00000000000E+00  0.45593999997E+02  0.45594000000E+02  0.51100000000E-03 0.  1.
         11   -1    0    0    0    0 -0.00000000000E+00 -0.00000000000E+00 -0.45593999997E+02  0.45594000000E+02  0.51100000000E-03 0. -1.
    9900012    2    1    2    0    0  0.18330111808E+00  0.10823608712E+01  0.43356411201E+00  0.90007710970E+02  0.89999971955E+02 0.  0.
         12    1    1    2    0    0 -0.18330111808E+00 -0.10823608712E+01 -0.43356411201E+00  0.11802890301E+01  0.00000000000E+00 0. -1.
         11    1    3    3    0    0 -0.10674439577E+02 -0.35552302223E+02 -0.47522311733E+01  0.37423168693E+02  0.51100000000E-03 0. -1.
        -11    1    3    3    0    0  0.26610967168E+00 -0.53245839280E+01  0.75523670347E+01  0.92444716697E+01  0.51100000000E-03 0.  1.
        -12    1    3    3    0    0  0.10591631024E+02  0.41959247022E+02 -0.23665717494E+01  0.43340070607E+02  0.00000000000E+00 0.  1.
</event>
<event>
 7    1  0.2084210E-015  0.9000780E+02  0.7816164E-02  0.1186339E+00
        -11   -1    0    0    0    0  0.00000000000E+00  0.00000000000E+00  0.45593999997E+02  0.45594000000E+02  0.51100000000E-03 0.  1.
         11   -1    0    0    0    0 -0.00000000000E+00 -0.00000000000E+00 -0.45593999997E+02  0.45594000000E+02  0.51100000000E-03 0. -1.
    9900012    2    1    2    0    0  0.70382646123E+00 -0.91296589144E+00 -0.25296013133E+00  0.90007802036E+02  0.90000064223E+02 0.  0.
         12    1    1    2    0    0 -0.70382646123E+00  0.91296589144E+00  0.25296013133E+00  0.11801979641E+01  0.00000000000E+00 0. -1.
         11    1    3    3    0    0  0.30728109691E+02  0.20888773465E+02 -0.92134683411E+01  0.38281138714E+02  0.51100000000E-03 0. -1.
        -11    1    3    3    0    0 -0.19675797809E+01  0.89655414769E+01  0.30380511344E+01  0.96686120579E+01  0.51100000000E-03 0.  1.
        -12    1    3    3    0    0 -0.28056703449E+02 -0.30767280834E+02  0.59224570753E+01  0.42058051264E+02  0.00000000000E+00 0.  1.
</event>
<event>
 7    1  0.2084210E-015  0.9000775E+02  0.7816164E-02  0.1186339E+00
        -11   -1    0    0    0    0  0.00000000000E+00  0.00000000000E+00  0.45593999997E+02  0.45594000000E+02  0.51100000000E-03 0.  1.
         11   -1    0    0    0    0 -0.00000000000E+00 -0.00000000000E+00 -0.45593999997E+02  0.45594000000E+02  0.51100000000E-03 0. -1.
    9900012    2    1    2    0    0 -0.56220121261E+00 -0.89290223655E+00 -0.52882170212E+00  0.90007747061E+02  0.90000008522E+02 0.  0.
         12    1    1    2    0    0  0.56220121261E+00  0.89290223655E+00  0.52882170212E+00  0.11802529390E+01  0.00000000000E+00 0. -1.
         11    1    3    3    0    0 -0.35262914133E+02 -0.85210264196E+01  0.51539120314E+01  0.36642104387E+02  0.51100000000E-03 0. -1.
        -11    1    3    3    0    0 -0.42926378482E+01  0.11946538960E+02  0.33050317294E+01  0.13117536652E+02  0.51100000000E-03 0.  1.
        -12    1    3    3    0    0  0.38993350769E+02 -0.43184147767E+01 -0.89877654630E+01  0.40248106022E+02  0.00000000000E+00 0.  1.
</event>
<event>
 7    1  0.2084210E-015  0.9000785E+02  0.7816164E-02  0.1186339E+00
        -11   -1    0    0    0    0  0.00000000000E+00  0.00000000000E+00  0.45593999997E+02  0.45594000000E+02  0.51100000000E-03 0.  1.
         11   -1    0    0    0    0 -0.00000000000E+00 -0.00000000000E+00 -0.45593999997E+02  0.45594000000E+02  0.51100000000E-03 0. -1.
    9900012    2    1    2    0    0  0.10402132164E+01 -0.54564256054E+00 -0.11392516892E+00  0.90007852431E+02  0.90000115283E+02 0.  0.
         12    1    1    2    0    0 -0.10402132164E+01  0.54564256054E+00  0.11392516892E+00  0.11801475685E+01  0.00000000000E+00 0. -1.
         11    1    3    3    0    0 -0.34906052092E+02  0.50722376645E+01 -0.25277016199E+02  0.43394557445E+02  0.51100000000E-03 0. -1.
        -11    1    3    3    0    0  0.77115346264E+01 -0.32764068485E-01  0.13522003962E+02  0.15566419986E+02  0.51100000000E-03 0.  1.
        -12    1    3    3    0    0  0.28234730682E+02 -0.55851161565E+01  0.11641087069E+02  0.31046875001E+02  0.00000000000E+00 0.  1.
</event>
<event>
 7    1  0.2084210E-015  0.9000776E+02  0.7816164E-02  0.1186339E+00
        -11   -1    0    0    0    0  0.00000000000E+00  0.00000000000E+00  0.45593999997E+02  0.45594000000E+02  0.51100000000E-03 0.  1.
         11   -1    0    0    0    0 -0.00000000000E+00 -0.00000000000E+00 -0.45593999997E+02  0.45594000000E+02  0.51100000000E-03 0. -1.
    9900012    2    1    2    0    0  0.65632571485E+00  0.61355375385E-01 -0.97899599035E+00  0.90007762280E+02  0.90000023942E+02 0.  0.
         12    1    1    2    0    0 -0.65632571485E+00 -0.61355375385E-01  0.97899599035E+00  0.11802377198E+01  0.00000000000E+00 0. -1.
         11    1    3    3    0    0 -0.29189119990E+01  0.25929677476E+02  0.25990611786E+02  0.36829066273E+02  0.51100000000E-03 0. -1.
        -11    1    3    3    0    0 -0.31120255936E+01  0.92391377409E+01 -0.85763027667E+01  0.12984580813E+02  0.51100000000E-03 0.  1.
        -12    1    3    3    0    0  0.66872633075E+01 -0.35107459841E+02 -0.18393305010E+02  0.40194115194E+02  0.00000000000E+00 0.  1.
</event>
<event>
 7    1  0.2084210E-015  0.9000773E+02  0.7816164E-02  0.1186339E+00
        -11   -1    0    0    0    0  0.00000000000E+00  0.00000000000E+00  0.45593999997E+02  0.45594000000E+02  0.51100000000E-03 0.  1.
         11   -1    0    0    0    0 -0.00000000000E+00 -0.00000000000E+00 -0.45593999997E+02  0.45594000000E+02  0.51100000000E-03 0. -1.
    9900012    2    1    2    0    0  0.10907691777E+01 -0.36900183527E+00 -0.25901301907E+00  0.90007734141E+02  0.89999995432E+02 0.  0.
         12    1    1    2    0    0 -0.10907691777E+01  0.36900183527E+00  0.25901301907E+00  0.11802658588E+01  0.00000000000E+00 0. -1.
         11    1    3    3    0    0  0.15097097366E+02 -0.17410173250E+02 -0.25822272081E+02  0.34609626076E+02  0.51100000000E-03 0. -1.
        -11    1    3    3    0    0  0.70581302666E+01 -0.59783851034E+01 -0.59918410404E+01  0.11020909700E+02  0.51100000000E-03 0.  1.
        -12    1    3    3    0    0 -0.21064458455E+02  0.23019556518E+02  0.31555100102E+02  0.44377198365E+02  0.00000000000E+00 0.  1.
</event>
<event>
 7    1  0.2084210E-015  0.9000775E+02  0.7816164E-02  0.1186339E+00
        -11   -1    0    0    0    0  0.00000000000E+00  0.00000000000E+00  0.45593999997E+02  0.45594000000E+02  0.51100000000E-03 0. -1.
         11   -1    0    0    0    0 -0.00000000000E+00 -0.00000000000E+00 -0.45593999997E+02  0.45594000000E+02  0.51100000000E-03 0.  1.
    9900012    2    1    2    0    0 -0.84733631641E+00 -0.30193328528E+00 -0.76409974509E+00  0.90007749619E+02  0.90000011114E+02 0.  0.
         12    1    1    2    0    0  0.84733631641E+00  0.30193328528E+00  0.76409974509E+00  0.11802503812E+01  0.00000000000E+00 0. -1.
         11    1    3    3    0    0  0.21695423158E+01  0.81550161308E+00 -0.87965577608E+01  0.90967788497E+01  0.51100000000E-03 0. -1.
        -11    1    3    3    0    0  0.37269996375E+01  0.25312446449E+02 -0.26546255496E+02  0.36868877832E+02  0.51100000000E-03 0.  1.
         12    1    3    3    0    0 -0.67438782698E+01 -0.26429881347E+02  0.34578713511E+02  0.44042092937E+02  0.00000000000E+00 0. -1.
</event>
<event>
 7    1  0.2084210E-015  0.9000782E+02  0.7816164E-02  0.1186339E+00
        -11   -1    0    0    0    0  0.00000000000E+00  0.00000000000E+00  0.45593999997E+02  0.45594000000E+02  0.51100000000E-03 0. -1.
         11   -1    0    0    0    0 -0.00000000000E+00 -0.00000000000E+00 -0.45593999997E+02  0.45594000000E+02  0.51100000000E-03 0.  1.
    9900012    2    1    2    0    0 -0.91872788618E+00 -0.44601931051E+00 -0.59146822829E+00  0.90007818311E+02  0.90000080713E+02 0.  0.
         12    1    1    2    0    0  0.91872788618E+00  0.44601931051E+00  0.59146822829E+00  0.11801816891E+01  0.00000000000E+00 0. -1.
         11    1    3    3    0    0 -0.10434248684E+02  0.28003089875E+01 -0.24010408957E+01  0.11067080630E+02  0.51100000000E-03 0. -1.
        -11    1    3    3    0    0 -0.11050007770E+02 -0.62468978599E+01 -0.34689641203E+02  0.36939106806E+02  0.51100000000E-03 0.  1.
         12    1    3    3    0    0  0.20565528568E+02  0.30005695619E+01  0.36499213870E+02  0.42001630875E+02  0.00000000000E+00 0. -1.
</event>
<event>
 7    1  0.3073336E-015  0.9000772E+02  0.7816164E-02  0.1186339E+00
        -11   -1    0    0    0    0  0.00000000000E+00  0.00000000000E+00  0.45593999997E+02  0.45594000000E+02  0.51100000000E-03 0. -1.
         11   -1    0    0    0    0 -0.00000000000E+00 -0.00000000000E+00 -0.45593999997E+02  0.45594000000E+02  0.51100000000E-03 0.  1.
    9900012    2    1    2    0    0 -0.69334038196E+00 -0.61371927818E+00 -0.73190650864E+00  0.90007720637E+02  0.89999981749E+02 0.  0.
         12    1    1    2    0    0  0.69334038196E+00  0.61371927818E+00  0.73190650864E+00  0.11802793631E+01  0.00000000000E+00 0. -1.
         11    1    3    3    0    0 -0.26084399108E+02 -0.27413634344E+02  0.82119806792E+01  0.38721310046E+02  0.51100000000E-03 0. -1.
        -11    1    3    3    0    0  0.41176821040E+01 -0.73971296766E+01  0.34597506058E+01  0.91456387354E+01  0.51100000000E-03 0.  1.
        -12    1    3    3    0    0  0.21273376622E+02  0.34197044743E+02 -0.12403637794E+02  0.42140771855E+02  0.00000000000E+00 0.  1.
</event>
<event>
 7    1  0.2084210E-015  0.9000779E+02  0.7816164E-02  0.1186339E+00
        -11   -1    0    0    0    0  0.00000000000E+00  0.00000000000E+00  0.45593999997E+02  0.45594000000E+02  0.51100000000E-03 0. -1.
         11   -1    0    0    0    0 -0.00000000000E+00 -0.00000000000E+00 -0.45593999997E+02  0.45594000000E+02  0.51100000000E-03 0.  1.
    9900012    2    1    2    0    0 -0.90717048657E+00 -0.25475407698E+00 -0.71065607275E+00  0.90007792397E+02  0.90000054457E+02 0.  0.
         12    1    1    2    0    0  0.90717048657E+00  0.25475407698E+00  0.71065607275E+00  0.11802076026E+01  0.00000000000E+00 0. -1.
         11    1    3    3    0    0 -0.29991355944E+02 -0.11164354789E+02  0.13710656754E+02  0.34815317866E+02  0.51100000000E-03 0. -1.
        -11    1    3    3    0    0 -0.70959824164E+01 -0.70348521818E+01  0.40517262985E+01  0.10782328039E+02  0.51100000000E-03 0.  1.
        -12    1    3    3    0    0  0.36180167873E+02  0.17944452894E+02 -0.18473039125E+02  0.44410146493E+02  0.00000000000E+00 0.  1.
</event>
<event>
 7    1  0.2084210E-015  0.9000774E+02  0.7816164E-02  0.1186339E+00
        -11   -1    0    0    0    0  0.00000000000E+00  0.00000000000E+00  0.45593999997E+02  0.45594000000E+02  0.51100000000E-03 0.  1.
         11   -1    0    0    0    0 -0.00000000000E+00 -0.00000000000E+00 -0.45593999997E+02  0.45594000000E+02  0.51100000000E-03 0. -1.
    9900012    2    1    2    0    0 -0.72357584100E+00  0.62960853187E+00 -0.68778985540E+00  0.90007735713E+02  0.89999997025E+02 0.  0.
         12    1    1    2    0    0  0.72357584100E+00 -0.62960853187E+00  0.68778985540E+00  0.11802642866E+01  0.00000000000E+00 0. -1.
         11    1    3    3    0    0 -0.13389121223E+00 -0.93811952848E+01 -0.15979494265E+01  0.95172577174E+01  0.51100000000E-03 0. -1.
        -11    1    3    3    0    0  0.25112798135E+02 -0.25929050597E+02 -0.24392494611E+01  0.36178975016E+02  0.51100000000E-03 0.  1.
         12    1    3    3    0    0 -0.25702482764E+02  0.35939854414E+02  0.33494090323E+01  0.44311502980E+02  0.00000000000E+00 0. -1.
</event>
<event>
 7    1  0.2084210E-015  0.9000779E+02  0.7816164E-02  0.1186339E+00
        -11   -1    0    0    0    0  0.00000000000E+00  0.00000000000E+00  0.45593999997E+02  0.45594000000E+02  0.51100000000E-03 0.  1.
         11   -1    0    0    0    0 -0.00000000000E+00 -0.00000000000E+00 -0.45593999997E+02  0.45594000000E+02  0.51100000000E-03 0. -1.
    9900012    2    1    2    0    0  0.16087016948E+00 -0.32206190077E+00  0.11239595578E+01  0.90007793168E+02  0.90000055238E+02 0.  0.
         12    1    1    2    0    0 -0.16087016948E+00  0.32206190077E+00 -0.11239595578E+01  0.11802068323E+01  0.00000000000E+00 0. -1.
         11    1    3    3    0    0 -0.33214995949E+02  0.17755943887E+02  0.60746394090E+01  0.38149845916E+02  0.51100000000E-03 0. -1.
        -11    1    3    3    0    0 -0.22038136219E+01  0.60572600033E+01 -0.60645719013E+01  0.88502104967E+01  0.51100000000E-03 0.  1.
        -12    1    3    3    0    0  0.35579679741E+02 -0.24135265791E+02  0.11138920501E+01  0.43007736755E+02  0.00000000000E+00 0.  1.
</event>
<event>
 7    1  0.2084210E-015  0.9000778E+02  0.7816164E-02  0.1186339E+00
        -11   -1    0    0    0    0  0.00000000000E+00  0.00000000000E+00  0.45593999997E+02  0.45594000000E+02  0.51100000000E-03 0.  1.
         11   -1    0    0    0    0 -0.00000000000E+00 -0.00000000000E+00 -0.45593999997E+02  0.45594000000E+02  0.51100000000E-03 0. -1.
    9900012    2    1    2    0    0 -0.10245836163E+01  0.48411202249E+00 -0.32981045351E+00  0.90007783506E+02  0.90000045448E+02 0.  0.
         12    1    1    2    0    0  0.10245836163E+01 -0.48411202249E+00  0.32981045351E+00  0.11802164939E+01  0.00000000000E+00 0. -1.
         11    1    3    3    0    0  0.17962033242E+02 -0.32468223000E+01 -0.32929646363E+02  0.37650207211E+02  0.51100000000E-03 0. -1.
        -11    1    3    3    0    0 -0.36173774540E+01  0.40628850391E+01 -0.75841895025E+01  0.93334015855E+01  0.51100000000E-03 0.  1.
        -12    1    3    3    0    0 -0.15369239404E+02 -0.33195071666E+00  0.40184025412E+02  0.43024174709E+02  0.00000000000E+00 0.  1.
</event>
<event>
 7    1  0.2084210E-015  0.9000775E+02  0.7816164E-02  0.1186339E+00
        -11   -1    0    0    0    0  0.00000000000E+00  0.00000000000E+00  0.45593999997E+02  0.45594000000E+02  0.51100000000E-03 0.  1.
         11   -1    0    0    0    0 -0.00000000000E+00 -0.00000000000E+00 -0.45593999997E+02  0.45594000000E+02  0.51100000000E-03 0. -1.
    9900012    2    1    2    0    0  0.88070654821E+00 -0.77388976791E+00  0.13583514869E+00  0.90007745542E+02  0.90000006984E+02 0.  0.
         12    1    1    2    0    0 -0.88070654821E+00  0.77388976791E+00 -0.13583514869E+00  0.11802544575E+01  0.00000000000E+00 0. -1.
         11    1    3    3    0    0  0.13114103450E+01 -0.98035305116E+01  0.16803364479E+01  0.10032573868E+02  0.51100000000E-03 0. -1.
        -11    1    3    3    0    0  0.12320201713E+02  0.35917013854E+02  0.20303175646E+02  0.43058543821E+02  0.51100000000E-03 0.  1.
         12    1    3    3    0    0 -0.12750905510E+02 -0.26887373110E+02 -0.21847676945E+02  0.36916627853E+02  0.00000000000E+00 0. -1.
</event>
<event>
 7    1  0.2985208E-015  0.9000773E+02  0.7816164E-02  0.1186339E+00
        -11   -1    0    0    0    0  0.00000000000E+00  0.00000000000E+00  0.45593999997E+02  0.45594000000E+02  0.51100000000E-03 0.  1.
         11   -1    0    0    0    0 -0.00000000000E+00 -0.00000000000E+00 -0.45593999997E+02  0.45594000000E+02  0.51100000000E-03 0. -1.
    9900012    2    1    2    0    0  0.80839251960E+00  0.37507261173E+00  0.77386725151E+00  0.90007725264E+02  0.89999986437E+02 0.  0.
         12    1    1    2    0    0 -0.80839251960E+00 -0.37507261173E+00 -0.77386725151E+00  0.11802747361E+01  0.00000000000E+00 0. -1.
         11    1    3    3    0    0 -0.67441056462E+01 -0.10148934430E+02 -0.39141623823E+02  0.40994518497E+02  0.51100000000E-03 0. -1.
        -11    1    3    3    0    0  0.95347475648E+01 -0.14074607081E+01  0.28896534112E+01  0.10061930921E+02  0.51100000000E-03 0.  1.
        -12    1    3    3    0    0 -0.19822493990E+01  0.11931467750E+02  0.37025837663E+02  0.38951275846E+02  0.00000000000E+00 0.  1.
</event>
<event>
 7    1  0.2231470E-015  0.9000769E+02  0.7816164E-02  0.1186339E+00
        -11   -1    0    0    0    0  0.00000000000E+00  0.00000000000E+00  0.45593999997E+02  0.45594000000E+02  0.51100000000E-03 0. -1.
         11   -1    0    0    0    0 -0.00000000000E+00 -0.00000000000E+00 -0.45593999997E+02  0.45594000000E+02  0.51100000000E-03 0.  1.
    9900012    2    1    2    0    0 -0.49334943237E+00  0.10666938709E+01 -0.10909739355E+00  0.90007689991E+02  0.89999950699E+02 0.  0.
         12    1    1    2    0    0  0.49334943237E+00 -0.10666938709E+01  0.10909739355E+00  0.11803100092E+01  0.00000000000E+00 0. -1.
         11    1    3    3    0    0 -0.30405005333E+02  0.46346951537E+01  0.21584710351E+02  0.37574518888E+02  0.51100000000E-03 0. -1.
        -11    1    3    3    0    0 -0.81851353027E+00  0.64860945144E+01  0.67301246253E+01  0.93826416420E+01  0.51100000000E-03 0.  1.
        -12    1    3    3    0    0  0.30730169431E+02 -0.10054095797E+02 -0.28423932370E+02  0.43050529461E+02  0.00000000000E+00 0.  1.
</event>
<event>
 7    1  0.2084210E-015  0.9000769E+02  0.7816164E-02  0.1186339E+00
        -11   -1    0    0    0    0  0.00000000000E+00  0.00000000000E+00  0.45593999997E+02  0.45594000000E+02  0.51100000000E-03 0. -1.
         11   -1    0    0    0    0 -0.00000000000E+00 -0.00000000000E+00 -0.45593999997E+02  0.45594000000E+02  0.51100000000E-03 0.  1.
    9900012    2    1    2    0    0  0.10454435409E+01  0.51681203871E+00 -0.18190809610E+00  0.90007687568E+02  0.89999948244E+02 0.  0.
         12    1    1    2    0    0 -0.10454435409E+01 -0.51681203871E+00  0.18190809610E+00  0.11803124315E+01  0.00000000000E+00 0. -1.
         11    1    3    3    0    0 -0.38681719936E+01  0.21729471280E+01  0.80840134883E+01  0.92214818838E+01  0.51100000000E-03 0. -1.
        -11    1    3    3    0    0  0.11046981878E+02 -0.25524919284E+02  0.26337315586E+02  0.38304196971E+02  0.51100000000E-03 0.  1.
         12    1    3    3    0    0 -0.61333663440E+01  0.23868784194E+02 -0.34603237171E+02  0.42482008713E+02  0.00000000000E+00 0. -1.
</event>
<event>
 7    1  0.2084210E-015  0.9000743E+02  0.7816164E-02  0.1186340E+00
        -11   -1    0    0    0    0  0.00000000000E+00  0.00000000000E+00  0.45593999997E+02  0.45594000000E+02  0.51100000000E-03 0.  1.
         11   -1    0    0    0    0 -0.00000000000E+00 -0.00000000000E+00 -0.45593999997E+02  0.45594000000E+02  0.51100000000E-03 0. -1.
    9900012    2    1    2    0    0 -0.95657050475E+00  0.26254140308E+00  0.64014625928E+00  0.90007431344E+02  0.89999688637E+02 0.  0.
         12    1    1    2    0    0  0.95657050475E+00 -0.26254140308E+00 -0.64014625928E+00  0.11805686563E+01  0.00000000000E+00 0. -1.
         11    1    3    3    0    0 -0.10754542341E+01  0.39657630669E+02 -0.11146927630E+02  0.41208473255E+02  0.51100000000E-03 0. -1.
        -11    1    3    3    0    0  0.66176847735E+01 -0.16991518229E+01 -0.34132363314E+01  0.76374767557E+01  0.51100000000E-03 0.  1.
        -12    1    3    3    0    0 -0.64988010441E+01 -0.37695937443E+02  0.15200310221E+02  0.41161481333E+02  0.00000000000E+00 0.  1.
</event>
<event>
 7    1  0.2084210E-015  0.9000771E+02  0.7816164E-02  0.1186339E+00
        -11   -1    0    0    0    0  0.00000000000E+00  0.00000000000E+00  0.45593999997E+02  0.45594000000E+02  0.51100000000E-03 0. -1.
         11   -1    0    0    0    0 -0.00000000000E+00 -0.00000000000E+00 -0.45593999997E+02  0.45594000000E+02  0.51100000000E-03 0.  1.
    9900012    2    1    2    0    0 -0.34450616393E+00 -0.11098552041E+01  0.20642879273E+00  0.90007713629E+02  0.89999974649E+02 0.  0.
         12    1    1    2    0    0  0.34450616393E+00  0.11098552041E+01 -0.20642879273E+00  0.11802863710E+01  0.00000000000E+00 0. -1.
         11    1    3    3    0    0  0.37923421394E+01 -0.80192573047E+01 -0.23891618604E+00  0.88739747479E+01  0.51100000000E-03 0. -1.
        -11    1    3    3    0    0  0.32887438067E+01 -0.29792322475E+02 -0.22266518391E+02  0.37338936190E+02  0.51100000000E-03 0.  1.
         12    1    3    3    0    0 -0.74255921100E+01  0.36701724576E+02  0.22711863370E+02  0.43794802691E+02  0.00000000000E+00 0. -1.
</event>
<event>
 7    1  0.2084210E-015  0.9000780E+02  0.7816164E-02  0.1186339E+00
        -11   -1    0    0    0    0  0.00000000000E+00  0.00000000000E+00  0.45593999997E+02  0.45594000000E+02  0.51100000000E-03 0.  1.
         11   -1    0    0    0    0 -0.00000000000E+00 -0.00000000000E+00 -0.45593999997E+02  0.45594000000E+02  0.51100000000E-03 0. -1.
    9900012    2    1    2    0    0 -0.38435385373E-01 -0.78266792659E+00  0.88250723832E+00  0.90007802818E+02  0.90000065015E+02 0.  0.
         12    1    1    2    0    0  0.38435385373E-01  0.78266792659E+00 -0.88250723832E+00  0.11801971818E+01  0.00000000000E+00 0. -1.
         11    1    3    3    0    0  0.31017003945E+02 -0.21293648410E+02  0.39945091557E+00  0.37624906082E+02  0.51100000000E-03 0. -1.
        -11    1    3    3    0    0 -0.19408770643E+00 -0.11842333368E+01 -0.12446788359E+02  0.12504503962E+02  0.51100000000E-03 0.  1.
        -12    1    3    3    0    0 -0.30861351624E+02  0.21695213820E+02  0.12929844681E+02  0.39878392774E+02  0.00000000000E+00 0.  1.
</event>
<event>
 7    1  0.2084210E-015  0.9000770E+02  0.7816164E-02  0.1186339E+00
        -11   -1    0    0    0    0  0.00000000000E+00  0.00000000000E+00  0.45593999997E+02  0.45594000000E+02  0.51100000000E-03 0.  1.
         11   -1    0    0    0    0 -0.00000000000E+00 -0.00000000000E+00 -0.45593999997E+02  0.45594000000E+02  0.51100000000E-03 0. -1.
    9900012    2    1    2    0    0  0.76530558262E+00 -0.10946555719E+00  0.89186822516E+00  0.90007701617E+02  0.89999962478E+02 0.  0.
         12    1    1    2    0    0 -0.76530558262E+00  0.10946555719E+00 -0.89186822516E+00  0.11802983835E+01  0.00000000000E+00 0. -1.
         11    1    3    3    0    0  0.12433411732E+02 -0.33861467617E+02 -0.82148992802E+01  0.36995584695E+02  0.51100000000E-03 0. -1.
        -11    1    3    3    0    0 -0.25408676044E+01 -0.28039785988E+01 -0.10053486008E+02  0.10742014957E+02  0.51100000000E-03 0.  1.
        -12    1    3    3    0    0 -0.91272385447E+01  0.36555980659E+02  0.19160253514E+02  0.42270101964E+02  0.00000000000E+00 0.  1.
</event>
<event>
 7    1  0.2084210E-015  0.9000775E+02  0.7816164E-02  0.1186339E+00
        -11   -1    0    0    0    0  0.00000000000E+00  0.00000000000E+00  0.45593999997E+02  0.45594000000E+02  0.51100000000E-03 0. -1.
         11   -1    0    0    0    0 -0.00000000000E+00 -0.00000000000E+00 -0.45593999997E+02  0.45594000000E+02  0.51100000000E-03 0.  1.
    9900012    2    1    2    0    0  0.86678784218E+00 -0.35879255400E+00  0.71619916123E+00  0.90007748121E+02  0.90000009596E+02 0.  0.
         12    1    1    2    0    0 -0.86678784218E+00  0.35879255400E+00 -0.71619916123E+00  0.11802518793E+01  0.00000000000E+00 0. -1.
         11    1    3    3    0    0 -0.17170621084E+02 -0.28289547236E+02 -0.14471324077E+02  0.36118526161E+02  0.51100000000E-03 0. -1.
        -11    1    3    3    0    0 -0.79631835767E+01  0.11025545606E+01 -0.68084123033E+01  0.10534818346E+02  0.51100000000E-03 0.  1.
        -12    1    3    3    0    0  0.26000592503E+02  0.26828200122E+02  0.21995935542E+02  0.43354403613E+02  0.00000000000E+00 0.  1.
</event>
<event>
 7    1  0.2084210E-015  0.9000771E+02  0.7816164E-02  0.1186339E+00
        -11   -1    0    0    0    0  0.00000000000E+00  0.00000000000E+00  0.45593999997E+02  0.45594000000E+02  0.51100000000E-03 0.  1.
         11   -1    0    0    0    0 -0.00000000000E+00 -0.00000000000E+00 -0.45593999997E+02  0.45594000000E+02  0.51100000000E-03 0. -1.
    9900012    2    1    2    0    0  0.48521059530E+00 -0.10471677685E+01  0.24718519545E+00  0.90007707588E+02  0.89999968528E+02 0.  0.
         12    1    1    2    0    0 -0.48521059530E+00  0.10471677685E+01 -0.24718519545E+00  0.11802924120E+01  0.00000000000E+00 0. -1.
         11    1    3    3    0    0  0.85743182361E+01  0.29710148735E+02 -0.20340547116E+02  0.37012831941E+02  0.51100000000E-03 0. -1.
        -11    1    3    3    0    0 -0.92554539506E+01  0.42253230959E+01 -0.32103933477E+01  0.10668805407E+02  0.51100000000E-03 0.  1.
        -12    1    3    3    0    0  0.11663463098E+01 -0.34982639600E+02  0.23798125659E+02  0.42326070240E+02  0.00000000000E+00 0.  1.
</event>
<event>
 7    1  0.2084210E-015  0.9000794E+02  0.7816164E-02  0.1186339E+00
        -11   -1    0    0    0    0  0.00000000000E+00  0.00000000000E+00  0.45593999997E+02  0.45594000000E+02  0.51100000000E-03 0.  1.
         11   -1    0    0    0    0 -0.00000000000E+00 -0.00000000000E+00 -0.45593999997E+02  0.45594000000E+02  0.51100000000E-03 0. -1.
    9900012    2    1    2    0    0  0.69451825804E+00 -0.88764672925E+00  0.34966024082E+00  0.90007942963E+02  0.90000207010E+02 0.  0.
         12    1    1    2    0    0 -0.69451825804E+00  0.88764672925E+00 -0.34966024082E+00  0.11800570371E+01  0.00000000000E+00 0. -1.
         11    1    3    3    0    0  0.37800573167E+02  0.77010793728E+01  0.40458822694E+01  0.38788646778E+02  0.51100000000E-03 0. -1.
        -11    1    3    3    0    0 -0.11643053447E+01  0.49284528153E+01 -0.11019731869E+02  0.12127643828E+02  0.51100000000E-03 0.  1.
        -12    1    3    3    0    0 -0.35941749564E+02 -0.13517178917E+02  0.73235098408E+01  0.39091652357E+02  0.00000000000E+00 0.  1.
</event>
<event>
 7    1  0.2084210E-015  0.9000777E+02  0.7816164E-02  0.1186339E+00
        -11   -1    0    0    0    0  0.00000000000E+00  0.00000000000E+00  0.45593999997E+02  0.45594000000E+02  0.51100000000E-03 0.  1.
         11   -1    0    0    0    0 -0.00000000000E+00 -0.00000000000E+00 -0.45593999997E+02  0.45594000000E+02  0.51100000000E-03 0. -1.
    9900012    2    1    2    0    0  0.10496206836E+01  0.43286846651E+00  0.32229071847E+00  0.90007766974E+02  0.90000028698E+02 0.  0.
         12    1    1    2    0    0 -0.10496206836E+01 -0.43286846651E+00 -0.32229071847E+00  0.11802330261E+01  0.00000000000E+00 0. -1.
         11    1    3    3    0    0 -0.80171420361E+01 -0.12358811252E+01  0.44269220411E+01  0.92411908108E+01  0.51100000000E-03 0. -1.
        -11    1    3    3    0    0 -0.17568122642E+02  0.33684087667E+02 -0.83740049316E+01  0.38902193434E+02  0.51100000000E-03 0.  1.
         12    1    3    3    0    0  0.26634885361E+02 -0.32015338075E+02  0.42693736090E+01  0.41864382729E+02  0.00000000000E+00 0. -1.
</event>
<event>
 7    1  0.2084210E-015  0.9000770E+02  0.7816164E-02  0.1186339E+00
        -11   -1    0    0    0    0  0.00000000000E+00  0.00000000000E+00  0.45593999997E+02  0.45594000000E+02  0.51100000000E-03 0.  1.
         11   -1    0    0    0    0 -0.00000000000E+00 -0.00000000000E+00 -0.45593999997E+02  0.45594000000E+02  0.51100000000E-03 0. -1.
    9900012    2    1    2    0    0  0.10799281479E+01 -0.22195418489E+00  0.42141261142E+00  0.90007704675E+02  0.89999965577E+02 0.  0.
         12    1    1    2    0    0 -0.10799281479E+01  0.22195418489E+00 -0.42141261142E+00  0.11802953249E+01  0.00000000000E+00 0. -1.
         11    1    3    3    0    0  0.77049722250E+01 -0.36237436058E+02  0.12134709289E+02  0.38984221666E+02  0.51100000000E-03 0. -1.
        -11    1    3    3    0    0 -0.69743884392E+01 -0.43759328196E+01 -0.60899313655E+01  0.10241003195E+02  0.51100000000E-03 0.  1.
        -12    1    3    3    0    0  0.34934436216E+00  0.40391414693E+02 -0.56233653123E+01  0.40782479815E+02  0.00000000000E+00 0.  1.
</event>
<event>
 7    1  0.2084210E-015  0.9000776E+02  0.7816164E-02  0.1186339E+00
        -11   -1    0    0    0    0  0.00000000000E+00  0.00000000000E+00  0.45593999997E+02  0.45594000000E+02  0.51100000000E-03 0. -1.
         11   -1    0    0    0    0 -0.00000000000E+00 -0.00000000000E+00 -0.45593999997E+02  0.45594000000E+02  0.51100000000E-03 0.  1.
    9900012    2    1    2    0    0  0.80567221387E+00 -0.80443789645E+00  0.31104399562E+00  0.90007755783E+02  0.90000017359E+02 0.  0.
         12    1    1    2    0    0 -0.80567221387E+00  0.80443789645E+00 -0.31104399562E+00  0.11802442174E+01  0.00000000000E+00 0. -1.
         11    1    3    3    0    0  0.11756061261E+02 -0.38768678544E+02 -0.56846960303E+01  0.40908815451E+02  0.51100000000E-03 0. -1.
        -11    1    3    3    0    0  0.84983641493E+01  0.50896134883E+01 -0.19208266492E+01  0.10090388196E+02  0.51100000000E-03 0.  1.
        -12    1    3    3    0    0 -0.19448753197E+02  0.32874627159E+02  0.79165666752E+01  0.39008552135E+02  0.00000000000E+00 0.  1.
</event>
<event>
 7    1  0.2084210E-015  0.9000752E+02  0.7816164E-02  0.1186339E+00
        -11   -1    0    0    0    0  0.00000000000E+00  0.00000000000E+00  0.45593999997E+02  0.45594000000E+02  0.51100000000E-03 0.  1.
         11   -1    0    0    0    0 -0.00000000000E+00 -0.00000000000E+00 -0.45593999997E+02  0.45594000000E+02  0.51100000000E-03 0. -1.
    9900012    2    1    2    0    0  0.94851629958E+00  0.53979224534E+00 -0.44996963144E+00  0.90007520645E+02  0.89999779117E+02 0.  0.
         12    1    1    2    0    0 -0.94851629958E+00 -0.53979224534E+00  0.44996963144E+00  0.11804793551E+01  0.00000000000E+00 0. -1.
         11    1    3    3    0    0  0.85924405388E+01 -0.43461864049E+00  0.23391768026E+01  0.89157543792E+01  0.51100000000E-03 0. -1.
        -11    1    3    3    0    0  0.61510896005E+01 -0.68067823061E+01  0.37076740651E+02  0.38194932730E+02  0.51100000000E-03 0.  1.
         12    1    3    3    0    0 -0.13795013840E+02  0.77811931919E+01 -0.39865887085E+02  0.42896833536E+02  0.00000000000E+00 0. -1.
</event>
<event>
 7    1  0.2084210E-015  0.9000768E+02  0.7816164E-02  0.1186339E+00
        -11   -1    0    0    0    0  0.00000000000E+00  0.00000000000E+00  0.45593999997E+02  0.45594000000E+02  0.51100000000E-03 0.  1.
         11   -1    0    0    0    0 -0.00000000000E+00 -0.00000000000E+00 -0.45593999997E+02  0.45594000000E+02  0.51100000000E-03 0. -1.
    9900012    2    1    2    0    0  0.78581307769E+00 -0.63258677376E+00  0.61276276421E+00  0.90007683761E+02  0.89999944386E+02 0.  0.
         12    1    1    2    0    0 -0.78581307769E+00  0.63258677376E+00 -0.61276276421E+00  0.11803162392E+01  0.00000000000E+00 0. -1.
         11    1    3    3    0    0 -0.46816298552E+00  0.56069342737E+01 -0.70753421768E+01  0.90397652464E+01  0.51100000000E-03 0. -1.
        -11    1    3    3    0    0 -0.21183100391E+02  0.29156858199E+02 -0.67025189241E+01  0.36657466939E+02  0.51100000000E-03 0.  1.
         12    1    3    3    0    0  0.22437076454E+02 -0.35396379246E+02  0.14390623865E+02  0.44310451575E+02  0.00000000000E+00 0. -1.
</event>
<event>
 7    1  0.2084210E-015  0.9000735E+02  0.7816164E-02  0.1186340E+00
        -11   -1    0    0    0    0  0.00000000000E+00  0.00000000000E+00  0.45593999997E+02  0.45594000000E+02  0.51100000000E-03 0. -1.
         11   -1    0    0    0    0 -0.00000000000E+00 -0.00000000000E+00 -0.45593999997E+02  0.45594000000E+02  0.51100000000E-03 0.  1.
    9900012    2    1    2    0    0 -0.46785454799E+00 -0.20771532931E+00 -0.10639031459E+01  0.90007354651E+02  0.89999610932E+02 0.  0.
         12    1    1    2    0    0  0.46785454799E+00  0.20771532931E+00  0.10639031459E+01  0.11806453489E+01  0.00000000000E+00 0. -1.
         11    1    3    3    0    0  0.22098178891E+01  0.11991519605E+02  0.33094379716E+02  0.35269218968E+02  0.51100000000E-03 0. -1.
        -11    1    3    3    0    0 -0.46963976690E+01  0.97892245889E+01  0.32200500751E+01  0.11324919067E+02  0.51100000000E-03 0.  1.
        -12    1    3    3    0    0  0.20187252320E+01 -0.21988459524E+02 -0.37378332937E+02  0.43413216616E+02  0.00000000000E+00 0.  1.
</event>
<event>
 7    1  0.2084210E-015  0.9000796E+02  0.7816164E-02  0.1186339E+00
        -11   -1    0    0    0    0  0.00000000000E+00  0.00000000000E+00  0.45593999997E+02  0.45594000000E+02  0.51100000000E-03 0.  1.
         11   -1    0    0    0    0 -0.00000000000E+00 -0.00000000000E+00 -0.45593999997E+02  0.45594000000E+02  0.51100000000E-03 0. -1.
    9900012    2    1    2    0    0 -0.85995146965E+00 -0.54393194851E+00  0.59758306139E+00  0.90007964403E+02  0.90000228733E+02 0.  0.
         12    1    1    2    0    0  0.85995146965E+00  0.54393194851E+00 -0.59758306139E+00  0.11800355969E+01  0.00000000000E+00 0. -1.
         11    1    3    3    0    0 -0.41004189063E+01 -0.38160207967E+02  0.99734899961E+01  0.39654576158E+02  0.51100000000E-03 0. -1.
        -11    1    3    3    0    0  0.73836740834E+01 -0.33756161939E+01 -0.30355530917E+01  0.86676415761E+01  0.51100000000E-03 0.  1.
        -12    1    3    3    0    0 -0.41432066467E+01  0.40991892213E+02 -0.63403538430E+01  0.41685746669E+02  0.00000000000E+00 0.  1.
</event>
<event>
 7    1  0.2803170E-015  0.9000782E+02  0.7816164E-02  0.1186339E+00
        -11   -1    0    0    0    0  0.00000000000E+00  0.00000000000E+00  0.45593999997E+02  0.45594000000E+02  0.51100000000E-03 0. -1.
         11   -1    0    0    0    0 -0.00000000000E+00 -0.00000000000E+00 -0.45593999997E+02  0.45594000000E+02  0.51100000000E-03 0.  1.
    9900012    2    1    2    0    0  0.10049396225E+01  0.17156327357E+00 -0.59454090703E+00  0.90007823534E+02  0.90000086004E+02 0.  0.
         12    1    1    2    0    0 -0.10049396225E+01 -0.17156327357E+00  0.59454090703E+00  0.11801764664E+01  0.00000000000E+00 0. -1.
         11    1    3    3    0    0 -0.22616736262E+02  0.24360187529E+02 -0.12877505290E+02  0.35647799909E+02  0.51100000000E-03 0. -1.
        -11    1    3    3    0    0 -0.71133020461E+01  0.63985491658E+01  0.15807668150E+01  0.96973873497E+01  0.51100000000E-03 0.  1.
        -12    1    3    3    0    0  0.30734977931E+02 -0.30587173421E+02  0.10702197568E+02  0.44662636275E+02  0.00000000000E+00 0.  1.
</event>
<event>
 7    1  0.2084210E-015  0.9000784E+02  0.7816164E-02  0.1186339E+00
        -11   -1    0    0    0    0  0.00000000000E+00  0.00000000000E+00  0.45593999997E+02  0.45594000000E+02  0.51100000000E-03 0. -1.
         11   -1    0    0    0    0 -0.00000000000E+00 -0.00000000000E+00 -0.45593999997E+02  0.45594000000E+02  0.51100000000E-03 0.  1.
    9900012    2    1    2    0    0 -0.81205591267E+00 -0.85597604363E+00  0.25537441222E-01  0.90007838166E+02  0.90000100830E+02 0.  0.
         12    1    1    2    0    0  0.81205591267E+00  0.85597604363E+00 -0.25537441222E-01  0.11801618336E+01  0.00000000000E+00 0. -1.
         11    1    3    3    0    0  0.10366169160E+01  0.94959268551E+01 -0.15244527728E+02  0.17990075803E+02  0.51100000000E-03 0. -1.
        -11    1    3    3    0    0  0.38538382427E+00  0.66387288985E+01 -0.26261076697E+02  0.27089950012E+02  0.51100000000E-03 0.  1.
         12    1    3    3    0    0 -0.22340566529E+01 -0.16990631797E+02  0.41531141867E+02  0.44927812352E+02  0.00000000000E+00 0. -1.
</event>
<event>
 7    1  0.2084210E-015  0.9000769E+02  0.7816164E-02  0.1186339E+00
        -11   -1    0    0    0    0  0.00000000000E+00  0.00000000000E+00  0.45593999997E+02  0.45594000000E+02  0.51100000000E-03 0. -1.
         11   -1    0    0    0    0 -0.00000000000E+00 -0.00000000000E+00 -0.45593999997E+02  0.45594000000E+02  0.51100000000E-03 0.  1.
    9900012    2    1    2    0    0 -0.28488763412E+00  0.30666611270E+00 -0.11035968135E+01  0.90007690297E+02  0.89999951009E+02 0.  0.
         12    1    1    2    0    0  0.28488763412E+00 -0.30666611270E+00  0.11035968135E+01  0.11803097032E+01  0.00000000000E+00 0. -1.
         11    1    3    3    0    0 -0.11295781033E+02 -0.15243566041E+01 -0.71473781077E+01  0.13453748410E+02  0.51100000000E-03 0. -1.
        -11    1    3    3    0    0  0.30751628301E+01  0.38270000273E+02 -0.18369313865E+01  0.38437271814E+02  0.51100000000E-03 0.  1.
         12    1    3    3    0    0  0.79357305692E+01 -0.36438977557E+02  0.78807126806E+01  0.38116670072E+02  0.00000000000E+00 0. -1.
</event>
<event>
 7    1  0.2084210E-015  0.9000773E+02  0.7816164E-02  0.1186339E+00
        -11   -1    0    0    0    0  0.00000000000E+00  0.00000000000E+00  0.45593999997E+02  0.45594000000E+02  0.51100000000E-03 0. -1.
         11   -1    0    0    0    0 -0.00000000000E+00 -0.00000000000E+00 -0.45593999997E+02  0.45594000000E+02  0.51100000000E-03 0.  1.
    9900012    2    1    2    0    0  0.23776462796E+00  0.10200546304E+01 -0.54405967550E+00  0.90007726982E+02  0.89999988178E+02 0.  0.
         12    1    1    2    0    0 -0.23776462796E+00 -0.10200546304E+01  0.54405967550E+00  0.11802730183E+01  0.00000000000E+00 0. -1.
         11    1    3    3    0    0 -0.56393015454E+01  0.26802788185E+01 -0.45449060181E+01  0.77228095561E+01  0.51100000000E-03 0. -1.
        -11    1    3    3    0    0 -0.35903096336E+02  0.14088137819E+01 -0.11330559490E+02  0.37674907583E+02  0.51100000000E-03 0.  1.
         12    1    3    3    0    0  0.41780162509E+02 -0.30690379700E+01  0.15331405832E+02  0.44610009843E+02  0.00000000000E+00 0. -1.
</event>
<event>
 7    1  0.2084210E-015  0.9000772E+02  0.7816164E-02  0.1186339E+00
        -11   -1    0    0    0    0  0.00000000000E+00  0.00000000000E+00  0.45593999997E+02  0.45594000000E+02  0.51100000000E-03 0. -1.
         11   -1    0    0    0    0 -0.00000000000E+00 -0.00000000000E+00 -0.45593999997E+02  0.45594000000E+02  0.51100000000E-03 0.  1.
    9900012    2    1    2    0    0  0.40223952320E+00  0.85446724387E+00 -0.70792206331E+00  0.90007718444E+02  0.89999979527E+02 0.  0.
         12    1    1    2    0    0 -0.40223952320E+00 -0.85446724387E+00  0.70792206331E+00  0.11802815565E+01  0.00000000000E+00 0. -1.
         11    1    3    3    0    0 -0.65531793784E+01 -0.51711166977E+01  0.91522584352E+00  0.83977524655E+01  0.51100000000E-03 0. -1.
        -11    1    3    3    0    0  0.31597551646E+02  0.23369102602E+02 -0.22184791611E+02  0.45129648853E+02  0.51100000000E-03 0.  1.
         12    1    3    3    0    0 -0.24642132745E+02 -0.17343518661E+02  0.20561643704E+02  0.36480317125E+02  0.00000000000E+00 0. -1.
</event>
<event>
 7    1  0.2084210E-015  0.9000747E+02  0.7816164E-02  0.1186340E+00
        -11   -1    0    0    0    0  0.00000000000E+00  0.00000000000E+00  0.45593999997E+02  0.45594000000E+02  0.51100000000E-03 0.  1.
         11   -1    0    0    0    0 -0.00000000000E+00 -0.00000000000E+00 -0.45593999997E+02  0.45594000000E+02  0.51100000000E-03 0. -1.
    9900012    2    1    2    0    0  0.80237976549E+00 -0.83086747185E+00 -0.24389765527E+00  0.90007474647E+02  0.89999732512E+02 0.  0.
         12    1    1    2    0    0 -0.80237976549E+00  0.83086747185E+00  0.24389765527E+00  0.11805253534E+01  0.00000000000E+00 0. -1.
         11    1    3    3    0    0  0.14045349360E+02 -0.65994810008E+01  0.93630212080E+01  0.18124324940E+02  0.51100000000E-03 0. -1.
        -11    1    3    3    0    0  0.22510795699E+02  0.19103524729E+02  0.68784448308E+01  0.30314906954E+02  0.51100000000E-03 0.  1.
         12    1    3    3    0    0 -0.35753765294E+02 -0.13334911200E+02 -0.16485363694E+02  0.41568242752E+02  0.00000000000E+00 0. -1.
</event>
<event>
 7    1  0.2084210E-015  0.9000784E+02  0.7816164E-02  0.1186339E+00
        -11   -1    0    0    0    0  0.00000000000E+00  0.00000000000E+00  0.45593999997E+02  0.45594000000E+02  0.51100000000E-03 0.  1.
         11   -1    0    0    0    0 -0.00000000000E+00 -0.00000000000E+00 -0.45593999997E+02  0.45594000000E+02  0.51100000000E-03 0. -1.
    9900012    2    1    2    0    0 -0.54842070585E+00  0.36829847218E+00  0.97794066814E+00  0.90007840271E+02  0.90000102963E+02 0.  0.
         12    1    1    2    0    0  0.54842070585E+00 -0.36829847218E+00 -0.97794066814E+00  0.11801597289E+01  0.00000000000E+00 0. -1.
         11    1    3    3    0    0  0.10041731316E+02  0.64113150861E+01  0.41727607875E+01  0.12623520183E+02  0.51100000000E-03 0. -1.
        -11    1    3    3    0    0 -0.18185335056E+02  0.32917582533E+02 -0.23770427704E+01  0.37681878715E+02  0.51100000000E-03 0.  1.
         12    1    3    3    0    0  0.75951830332E+01 -0.38960599147E+02 -0.81777734897E+00  0.39702441373E+02  0.00000000000E+00 0. -1.
</event>
<event>
 7    1  0.2084210E-015  0.9000770E+02  0.7816164E-02  0.1186339E+00
        -11   -1    0    0    0    0  0.00000000000E+00  0.00000000000E+00  0.45593999997E+02  0.45594000000E+02  0.51100000000E-03 0.  1.
         11   -1    0    0    0    0 -0.00000000000E+00 -0.00000000000E+00 -0.45593999997E+02  0.45594000000E+02  0.51100000000E-03 0. -1.
    9900012    2    1    2    0    0  0.70257717157E+00  0.63855702232E+00  0.70123883892E+00  0.90007701029E+02  0.89999961882E+02 0.  0.
         12    1    1    2    0    0 -0.70257717157E+00 -0.63855702232E+00 -0.70123883892E+00  0.11802989714E+01  0.00000000000E+00 0. -1.
         11    1    3    3    0    0 -0.71875467411E+01  0.69087985090E+01  0.21506247968E+01  0.10198897601E+02  0.51100000000E-03 0. -1.
        -11    1    3    3    0    0 -0.17079692595E+02  0.24236613205E+02  0.19181706681E+02  0.35313838509E+02  0.51100000000E-03 0.  1.
         12    1    3    3    0    0  0.24969816508E+02 -0.30506854692E+02 -0.20631092639E+02  0.44494964918E+02  0.00000000000E+00 0. -1.
</event>
<event>
 7    1  0.3310595E-015  0.9000739E+02  0.7816164E-02  0.1186340E+00
        -11   -1    0    0    0    0  0.00000000000E+00  0.00000000000E+00  0.45593999997E+02  0.45594000000E+02  0.51100000000E-03 0.  1.
         11   -1    0    0    0    0 -0.00000000000E+00 -0.00000000000E+00 -0.45593999997E+02  0.45594000000E+02  0.51100000000E-03 0. -1.
    9900012    2    1    2    0    0  0.10101385374E+01  0.37381351914E+00  0.48345875270E+00  0.90007386271E+02  0.89999642969E+02 0.  0.
         12    1    1    2    0    0 -0.10101385374E+01 -0.37381351914E+00 -0.48345875270E+00  0.11806137292E+01  0.00000000000E+00 0. -1.
         11    1    3    3    0    0  0.12130658360E+02  0.23158512667E+02 -0.30580365692E+02  0.40232180494E+02  0.51100000000E-03 0. -1.
        -11    1    3    3    0    0 -0.15838945178E+01 -0.81503940908E+01 -0.50083014447E+01  0.96964286880E+01  0.51100000000E-03 0.  1.
        -12    1    3    3    0    0 -0.95366253052E+01 -0.14634305057E+02  0.36072125890E+02  0.40078777089E+02  0.00000000000E+00 0.  1.
</event>
<event>
 7    1  0.2084210E-015  0.9000796E+02  0.7816164E-02  0.1186339E+00
        -11   -1    0    0    0    0  0.00000000000E+00  0.00000000000E+00  0.45593999997E+02  0.45594000000E+02  0.51100000000E-03 0. -1.
         11   -1    0    0    0    0 -0.00000000000E+00 -0.00000000000E+00 -0.45593999997E+02  0.45594000000E+02  0.51100000000E-03 0.  1.
    9900012    2    1    2    0    0 -0.62815067421E+00 -0.72360768306E+00 -0.68870846325E+00  0.90007957333E+02  0.90000221570E+02 0.  0.
         12    1    1    2    0    0  0.62815067421E+00  0.72360768306E+00  0.68870846325E+00  0.11800426670E+01  0.00000000000E+00 0. -1.
         11    1    3    3    0    0  0.37603712114E+02  0.17467574662E+02 -0.14567424576E+02  0.43947300126E+02  0.51100000000E-03 0. -1.
        -11    1    3    3    0    0 -0.37908805496E+01  0.11448958309E+01  0.33419224939E+01  0.51816993372E+01  0.51100000000E-03 0.  1.
        -12    1    3    3    0    0 -0.34440982238E+02 -0.19336078176E+02  0.10536793619E+02  0.40878957870E+02  0.00000000000E+00 0.  1.
</event>
<event>
 7    1  0.2084210E-015  0.9000771E+02  0.7816164E-02  0.1186339E+00
        -11   -1    0    0    0    0  0.00000000000E+00  0.00000000000E+00  0.45593999997E+02  0.45594000000E+02  0.51100000000E-03 0.  1.
         11   -1    0    0    0    0 -0.00000000000E+00 -0.00000000000E+00 -0.45593999997E+02  0.45594000000E+02  0.51100000000E-03 0. -1.
    9900012    2    1    2    0    0  0.21879558824E+00  0.74245354442E+00  0.89105676231E+00  0.90007707270E+02  0.89999968206E+02 0.  0.
         12    1    1    2    0    0 -0.21879558824E+00 -0.74245354442E+00 -0.89105676231E+00  0.11802927301E+01  0.00000000000E+00 0. -1.
         11    1    3    3    0    0  0.94933575390E+01  0.36635986747E+02 -0.16357462702E+02  0.41229673157E+02  0.51100000000E-03 0. -1.
        -11    1    3    3    0    0 -0.79544449820E+01  0.13039871760E+01  0.85162113490E+00  0.81054818700E+01  0.51100000000E-03 0.  1.
        -12    1    3    3    0    0 -0.13201169688E+01 -0.37197520379E+02  0.16396898329E+02  0.40672552243E+02  0.00000000000E+00 0.  1.
</event>
<event>
 7    1  0.2084210E-015  0.9000772E+02  0.7816164E-02  0.1186339E+00
        -11   -1    0    0    0    0  0.00000000000E+00  0.00000000000E+00  0.45593999997E+02  0.45594000000E+02  0.51100000000E-03 0. -1.
         11   -1    0    0    0    0 -0.00000000000E+00 -0.00000000000E+00 -0.45593999997E+02  0.45594000000E+02  0.51100000000E-03 0.  1.
    9900012    2    1    2    0    0  0.58975684991E+00 -0.98599980570E+00 -0.27026142712E+00  0.90007724609E+02  0.89999985774E+02 0.  0.
         12    1    1    2    0    0 -0.58975684991E+00  0.98599980570E+00  0.27026142712E+00  0.11802753907E+01  0.00000000000E+00 0. -1.
         11    1    3    3    0    0  0.55781526341E+01 -0.82062350877E+01  0.31926421603E+01  0.10423581215E+02  0.51100000000E-03 0. -1.
        -11    1    3    3    0    0  0.18726581444E+02  0.35829273924E+02 -0.10486899501E+02  0.41765976391E+02  0.51100000000E-03 0.  1.
         12    1    3    3    0    0 -0.23714977228E+02 -0.28609038642E+02  0.70239959138E+01  0.37818167004E+02  0.00000000000E+00 0. -1.
</event>
<event>
 7    1  0.2084210E-015  0.9000773E+02  0.7816164E-02  0.1186339E+00
        -11   -1    0    0    0    0  0.00000000000E+00  0.00000000000E+00  0.45593999997E+02  0.45594000000E+02  0.51100000000E-03 0.  1.
         11   -1    0    0    0    0 -0.00000000000E+00 -0.00000000000E+00 -0.45593999997E+02  0.45594000000E+02  0.51100000000E-03 0. -1.
    9900012    2    1    2    0    0 -0.66621827380E+00 -0.63065117226E+00  0.74261004892E+00  0.90007729957E+02  0.89999991193E+02 0.  0.
         12    1    1    2    0    0  0.66621827380E+00  0.63065117226E+00 -0.74261004892E+00  0.11802700429E+01  0.00000000000E+00 0. -1.
         11    1    3    3    0    0  0.26140650519E+00  0.90782690880E+01 -0.14069151020E+01  0.91903598059E+01  0.51100000000E-03 0. -1.
        -11    1    3    3    0    0 -0.22408599954E+02  0.28904125141E+02  0.20639562960E+01  0.36631321542E+02  0.51100000000E-03 0.  1.
         12    1    3    3    0    0  0.21480975175E+02 -0.38613045401E+02  0.85568854971E-01  0.44186048609E+02  0.00000000000E+00 0. -1.
</event>
<event>
 7    1  0.2084210E-015  0.9000730E+02  0.7816164E-02  0.1186340E+00
        -11   -1    0    0    0    0  0.00000000000E+00  0.00000000000E+00  0.45593999997E+02  0.45594000000E+02  0.51100000000E-03 0.  1.
         11   -1    0    0    0    0 -0.00000000000E+00 -0.00000000000E+00 -0.45593999997E+02  0.45594000000E+02  0.51100000000E-03 0. -1.
    9900012    2    1    2    0    0  0.11611357183E+01 -0.18803559198E+00  0.10231891189E+00  0.90007295676E+02  0.89999551178E+02 0.  0.
         12    1    1    2    0    0 -0.11611357183E+01  0.18803559198E+00 -0.10231891189E+00  0.11807043237E+01  0.00000000000E+00 0. -1.
         11    1    3    3    0    0  0.77433002949E+01  0.38038010735E+01 -0.36439816491E+01  0.93651590795E+01  0.51100000000E-03 0. -1.
        -11    1    3    3    0    0  0.12843705994E+02  0.26187824319E+02  0.25440619278E+02  0.38703850399E+02  0.51100000000E-03 0.  1.
         12    1    3    3    0    0 -0.19425870570E+02 -0.30179660985E+02 -0.21694318717E+02  0.41938286197E+02  0.00000000000E+00 0. -1.
</event>
<event>
 7    1  0.2084210E-015  0.9000766E+02  0.7816164E-02  0.1186339E+00
        -11   -1    0    0    0    0  0.00000000000E+00  0.00000000000E+00  0.45593999997E+02  0.45594000000E+02  0.51100000000E-03 0. -1.
         11   -1    0    0    0    0 -0.00000000000E+00 -0.00000000000E+00 -0.45593999997E+02  0.45594000000E+02  0.51100000000E-03 0.  1.
    9900012    2    1    2    0    0 -0.37288890963E+00  0.24062481624E+00 -0.10937401939E+01  0.90007655113E+02  0.89999915360E+02 0.  0.
         12    1    1    2    0    0  0.37288890963E+00 -0.24062481624E+00  0.10937401939E+01  0.11803448873E+01  0.00000000000E+00 0. -1.
         11    1    3    3    0    0  0.19243088869E+02  0.30631746346E+02 -0.56163753441E+01  0.36607977624E+02  0.51100000000E-03 0. -1.
        -11    1    3    3    0    0 -0.11442426195E+01  0.50973893472E+01 -0.96353065989E+01  0.10960465448E+02  0.51100000000E-03 0.  1.
        -12    1    3    3    0    0 -0.18471735159E+02 -0.35488510877E+02  0.14157941749E+02  0.42439212041E+02  0.00000000000E+00 0.  1.
</event>
<event>
 7    1  0.2084210E-015  0.9000795E+02  0.7816164E-02  0.1186339E+00
        -11   -1    0    0    0    0  0.00000000000E+00  0.00000000000E+00  0.45593999997E+02  0.45594000000E+02  0.51100000000E-03 0.  1.
         11   -1    0    0    0    0 -0.00000000000E+00 -0.00000000000E+00 -0.45593999997E+02  0.45594000000E+02  0.51100000000E-03 0. -1.
    9900012    2    1    2    0    0 -0.68554695546E-01  0.11435543115E+01  0.28303745699E+00  0.90007946437E+02  0.90000210530E+02 0.  0.
         12    1    1    2    0    0  0.68554695546E-01 -0.11435543115E+01 -0.28303745699E+00  0.11800535631E+01  0.00000000000E+00 0. -1.
         11    1    3    3    0    0 -0.92244340799E+01 -0.29092282218E+01 -0.13153019161E+00  0.96732152562E+01  0.51100000000E-03 0. -1.
        -11    1    3    3    0    0 -0.51225175190E+01 -0.32367979999E+02  0.18062075655E+02  0.37418777267E+02  0.51100000000E-03 0.  1.
         12    1    3    3    0    0  0.14278396903E+02  0.36420762532E+02 -0.17647508006E+02  0.42915953914E+02  0.00000000000E+00 0. -1.
</event>
<event>
 7    1  0.2084210E-015  0.9000774E+02  0.7816164E-02  0.1186339E+00
        -11   -1    0    0    0    0  0.00000000000E+00  0.00000000000E+00  0.45593999997E+02  0.45594000000E+02  0.51100000000E-03 0.  1.
         11   -1    0    0    0    0 -0.00000000000E+00 -0.00000000000E+00 -0.45593999997E+02  0.45594000000E+02  0.51100000000E-03 0. -1.
    9900012    2    1    2    0    0  0.35347771735E+00 -0.11060612597E+01 -0.21139424989E+00  0.90007743445E+02  0.90000004858E+02 0.  0.
         12    1    1    2    0    0 -0.35347771735E+00  0.11060612597E+01  0.21139424989E+00  0.11802565550E+01  0.00000000000E+00 0. -1.
         11    1    3    3    0    0  0.14765793725E+02  0.21366190134E+02  0.22523256321E+02  0.34377897270E+02  0.51100000000E-03 0. -1.
        -11    1    3    3    0    0  0.28371307533E+01 -0.32355738858E+01  0.11765064240E+02  0.12527369481E+02  0.51100000000E-03 0.  1.
        -12    1    3    3    0    0 -0.17249446761E+02 -0.19236677507E+02 -0.34499714811E+02  0.43102476694E+02  0.00000000000E+00 0.  1.
</event>
<event>
 7    1  0.2084210E-015  0.9000778E+02  0.7816164E-02  0.1186339E+00
        -11   -1    0    0    0    0  0.00000000000E+00  0.00000000000E+00  0.45593999997E+02  0.45594000000E+02  0.51100000000E-03 0.  1.
         11   -1    0    0    0    0 -0.00000000000E+00 -0.00000000000E+00 -0.45593999997E+02  0.45594000000E+02  0.51100000000E-03 0. -1.
    9900012    2    1    2    0    0  0.41031980727E+00  0.75616984523E-01  0.11040121787E+01  0.90007778341E+02  0.90000040216E+02 0.  0.
         12    1    1    2    0    0 -0.41031980727E+00 -0.75616984523E-01 -0.11040121787E+01  0.11802216585E+01  0.00000000000E+00 0. -1.
         11    1    3    3    0    0  0.29336362852E+02 -0.18382470646E+02 -0.17615558415E+02  0.38843858086E+02  0.51100000000E-03 0. -1.
        -11    1    3    3    0    0 -0.15813517188E+02 -0.78180415571E+01  0.11039410847E+02  0.20810038245E+02  0.51100000000E-03 0.  1.
        -12    1    3    3    0    0 -0.13112525857E+02  0.26276129187E+02  0.76801597471E+01  0.30353882011E+02  0.00000000000E+00 0.  1.
</event>
<event>
 7    1  0.2084210E-015  0.9000676E+02  0.7816164E-02  0.1186341E+00
        -11   -1    0    0    0    0  0.00000000000E+00  0.00000000000E+00  0.45593999997E+02  0.45594000000E+02  0.51100000000E-03 0.  1.
         11   -1    0    0    0    0 -0.00000000000E+00 -0.00000000000E+00 -0.45593999997E+02  0.45594000000E+02  0.51100000000E-03 0. -1.
    9900012    2    1    2    0    0  0.37712876697E+00  0.11192838763E+01  0.17436093046E-01  0.90006760600E+02  0.89999009035E+02 0.  0.
         12    1    1    2    0    0 -0.37712876697E+00 -0.11192838763E+01 -0.17436093046E-01  0.11812394000E+01  0.00000000000E+00 0. -1.
         11    1    3    3    0    0  0.74998759616E+01 -0.27501025055E+01  0.53454279196E+01  0.96117013653E+01  0.51100000000E-03 0. -1.
        -11    1    3    3    0    0  0.51645826378E+01 -0.72250815952E+01  0.35365188622E+02  0.36463286802E+02  0.51100000000E-03 0.  1.
         12    1    3    3    0    0 -0.12287329832E+02  0.11094467977E+02 -0.40693180448E+02  0.43931772433E+02  0.00000000000E+00 0. -1.
</event>
<event>
 7    1  0.2084210E-015  0.9000778E+02  0.7816164E-02  0.1186339E+00
        -11   -1    0    0    0    0  0.00000000000E+00  0.00000000000E+00  0.45593999997E+02  0.45594000000E+02  0.51100000000E-03 0. -1.
         11   -1    0    0    0    0 -0.00000000000E+00 -0.00000000000E+00 -0.45593999997E+02  0.45594000000E+02  0.51100000000E-03 0.  1.
    9900012    2    1    2    0    0 -0.74295646902E+00  0.71371422847E+00 -0.57580283275E+00  0.90007779166E+02  0.90000041051E+02 0.  0.
         12    1    1    2    0    0  0.74295646902E+00 -0.71371422847E+00  0.57580283275E+00  0.11802208340E+01  0.00000000000E+00 0. -1.
         11    1    3    3    0    0  0.28891052856E+02 -0.31451414425E+02  0.40684379093E+01  0.42900309926E+02  0.51100000000E-03 0. -1.
        -11    1    3    3    0    0 -0.85255689604E+01  0.29371927172E+01  0.42569189037E+01  0.99716491098E+01  0.51100000000E-03 0.  1.
        -12    1    3    3    0    0 -0.21108440365E+02  0.29227935936E+02 -0.89011596457E+01  0.37135820130E+02  0.00000000000E+00 0.  1.
</event>
<event>
 7    1  0.2084210E-015  0.9000774E+02  0.7816164E-02  0.1186339E+00
        -11   -1    0    0    0    0  0.00000000000E+00  0.00000000000E+00  0.45593999997E+02  0.45594000000E+02  0.51100000000E-03 0. -1.
         11   -1    0    0    0    0 -0.00000000000E+00 -0.00000000000E+00 -0.45593999997E+02  0.45594000000E+02  0.51100000000E-03 0.  1.
    9900012    2    1    2    0    0 -0.10709476815E+01 -0.48413392068E+00 -0.10812021444E+00  0.90007743854E+02  0.90000005273E+02 0.  0.
         12    1    1    2    0    0  0.10709476815E+01  0.48413392068E+00  0.10812021444E+00  0.11802561461E+01  0.00000000000E+00 0. -1.
         11    1    3    3    0    0 -0.69147782050E+01  0.42503438371E+02  0.15458326622E+01  0.43089975979E+02  0.51100000000E-03 0. -1.
        -11    1    3    3    0    0  0.57467194203E+01 -0.41793124774E+01 -0.37849596961E+01  0.80509227448E+01  0.51100000000E-03 0.  1.
        -12    1    3    3    0    0  0.97111103234E-01 -0.38808259814E+02  0.21310068195E+01  0.38866845131E+02  0.00000000000E+00 0.  1.
</event>
<event>
 7    1  0.2084210E-015  0.9000861E+02  0.7816164E-02  0.1186337E+00
        -11   -1    0    0    0    0  0.00000000000E+00  0.00000000000E+00  0.45593999997E+02  0.45594000000E+02  0.51100000000E-03 0.  1.
         11   -1    0    0    0    0 -0.00000000000E+00 -0.00000000000E+00 -0.45593999997E+02  0.45594000000E+02  0.51100000000E-03 0. -1.
    9900012    2    1    2    0    0 -0.25427235059E+00  0.96573605196E+00  0.62741657792E+00  0.90008613671E+02  0.90000886567E+02 0.  0.
         12    1    1    2    0    0  0.25427235059E+00 -0.96573605196E+00 -0.62741657792E+00  0.11793863288E+01  0.00000000000E+00 0. -1.
         11    1    3    3    0    0  0.13481159501E+02 -0.31132931654E+01  0.77847990745E+01  0.15875684323E+02  0.51100000000E-03 0. -1.
        -11    1    3    3    0    0 -0.86794318335E+01 -0.31417690698E+02  0.10395260816E+02  0.34212063273E+02  0.51100000000E-03 0.  1.
         12    1    3    3    0    0 -0.50560000180E+01  0.35496719915E+02 -0.17552643313E+02  0.39920866075E+02  0.00000000000E+00 0. -1.
</event>
<event>
 7    1  0.2084210E-015  0.9000735E+02  0.7816164E-02  0.1186340E+00
        -11   -1    0    0    0    0  0.00000000000E+00  0.00000000000E+00  0.45593999997E+02  0.45594000000E+02  0.51100000000E-03 0.  1.
         11   -1    0    0    0    0 -0.00000000000E+00 -0.00000000000E+00 -0.45593999997E+02  0.45594000000E+02  0.51100000000E-03 0. -1.
    9900012    2    1    2    0    0 -0.90632688929E+00  0.56724138790E+00 -0.50074205922E+00  0.90007350250E+02  0.89999606472E+02 0.  0.
         12    1    1    2    0    0  0.90632688929E+00 -0.56724138790E+00  0.50074205922E+00  0.11806497500E+01  0.00000000000E+00 0. -1.
         11    1    3    3    0    0  0.68389225407E+01  0.73714656948E+01 -0.38798471143E+02  0.40080303533E+02  0.51100000000E-03 0. -1.
        -11    1    3    3    0    0 -0.62177855000E+01  0.73162965866E+01  0.57450355959E+00  0.96186852983E+01  0.51100000000E-03 0.  1.
        -12    1    3    3    0    0 -0.15274639300E+01 -0.14120520893E+02  0.37723225524E+02  0.40308361419E+02  0.00000000000E+00 0.  1.
</event>
<event>
 7    1  0.2084210E-015  0.9000730E+02  0.7816164E-02  0.1186340E+00
        -11   -1    0    0    0    0  0.00000000000E+00  0.00000000000E+00  0.45593999997E+02  0.45594000000E+02  0.51100000000E-03 0.  1.
         11   -1    0    0    0    0 -0.00000000000E+00 -0.00000000000E+00 -0.45593999997E+02  0.45594000000E+02  0.51100000000E-03 0. -1.
    9900012    2    1    2    0    0  0.93697793537E+00  0.24439606102E+00  0.67556828348E+00  0.90007301227E+02  0.89999556802E+02 0.  0.
         12    1    1    2    0    0 -0.93697793537E+00 -0.24439606102E+00 -0.67556828348E+00  0.11806987726E+01  0.00000000000E+00 0. -1.
         11    1    3    3    0    0  0.10251139791E+02  0.24612065498E+01  0.23225704002E+01  0.10795264620E+02  0.51100000000E-03 0. -1.
        -11    1    3    3    0    0  0.30540627876E+02 -0.17372687561E+02 -0.81788595609E+01  0.36075392834E+02  0.51100000000E-03 0.  1.
         12    1    3    3    0    0 -0.39854789731E+02  0.15155877072E+02  0.65318574442E+01  0.43136643773E+02  0.00000000000E+00 0. -1.
</event>
<event>
 8    1  0.2084210E-015  0.9000776E+02  0.7816164E-02  0.1186339E+00
        -11   -1    0    0    0    0  0.00000000000E+00  0.00000000000E+00  0.45593999997E+02  0.45594000000E+02  0.51100000000E-03 0. -1.
         11   -1    0    0    0    0 -0.00000000000E+00 -0.00000000000E+00 -0.45593999997E+02  0.45594000000E+02  0.51100000000E-03 0.  1.
    9900012    2    1    2    0    0 -0.12704949985E+00  0.61411258230E+00 -0.99984077559E+00  0.90007763831E+02  0.90000025513E+02 0.  0.
         23    2    3    3    0    0  0.26703414998E+02 -0.86969573340E+01 -0.57083022538E+01  0.61219928593E+02  0.54097925126E+02 0.  0.
         12    1    1    2    0    0  0.12704949985E+00 -0.61411258230E+00  0.99984077559E+00  0.11802361695E+01  0.00000000000E+00 0. -1.
         11    1    4    4    0    0  0.19570743208E+02  0.19147416281E+02  0.91439366929E+01  0.28866054778E+02  0.51100000000E-03 0. -1.
        -11    1    4    4    0    0  0.71326717903E+01 -0.27844373615E+02 -0.14852238947E+02  0.32353873815E+02  0.51100000000E-03 0.  1.
         12    1    3    3    0    0 -0.26830464498E+02  0.93110699163E+01  0.47084614783E+01  0.28787835237E+02  0.00000000000E+00 0. -1.
</event>
<event>
 7    1  0.2084210E-015  0.9000768E+02  0.7816164E-02  0.1186339E+00
        -11   -1    0    0    0    0  0.00000000000E+00  0.00000000000E+00  0.45593999997E+02  0.45594000000E+02  0.51100000000E-03 0.  1.
         11   -1    0    0    0    0 -0.00000000000E+00 -0.00000000000E+00 -0.45593999997E+02  0.45594000000E+02  0.51100000000E-03 0. -1.
    9900012    2    1    2    0    0 -0.33058180259E+00 -0.72610258969E+00  0.86985400904E+00  0.90007680003E+02  0.89999940579E+02 0.  0.
         12    1    1    2    0    0  0.33058180259E+00  0.72610258969E+00 -0.86985400904E+00  0.11803199973E+01  0.00000000000E+00 0. -1.
         11    1    3    3    0    0  0.19975093072E+02  0.32622489880E+01 -0.30466535433E+02  0.36576719279E+02  0.51100000000E-03 0. -1.
        -11    1    3    3    0    0  0.10478636211E+02 -0.53588943667E+01  0.46081556875E+01  0.12639409194E+02  0.51100000000E-03 0.  1.
        -12    1    3    3    0    0 -0.30784311086E+02  0.13705427890E+01  0.26728233754E+02  0.40791551529E+02  0.00000000000E+00 0.  1.
</event>
<event>
 7    1  0.2084210E-015  0.9000775E+02  0.7816164E-02  0.1186339E+00
        -11   -1    0    0    0    0  0.00000000000E+00  0.00000000000E+00  0.45593999997E+02  0.45594000000E+02  0.51100000000E-03 0.  1.
         11   -1    0    0    0    0 -0.00000000000E+00 -0.00000000000E+00 -0.45593999997E+02  0.45594000000E+02  0.51100000000E-03 0. -1.
    9900012    2    1    2    0    0  0.59459334295E+00 -0.51101147037E+00  0.88222449987E+00  0.90007748317E+02  0.90000009795E+02 0.  0.
         12    1    1    2    0    0 -0.59459334295E+00  0.51101147037E+00 -0.88222449987E+00  0.11802516827E+01  0.00000000000E+00 0. -1.
         11    1    3    3    0    0 -0.42314316030E+01  0.97390011181E+01  0.12883926207E+01  0.10696406499E+02  0.51100000000E-03 0. -1.
        -11    1    3    3    0    0 -0.34391451119E+02 -0.14273694229E+02 -0.10361132788E+02  0.38650528197E+02  0.51100000000E-03 0.  1.
         12    1    3    3    0    0  0.39217476065E+02  0.40236816403E+01  0.99549646671E+01  0.40660813621E+02  0.00000000000E+00 0. -1.
</event>
<event>
 7    1  0.2084210E-015  0.9000772E+02  0.7816164E-02  0.1186339E+00
        -11   -1    0    0    0    0  0.00000000000E+00  0.00000000000E+00  0.45593999997E+02  0.45594000000E+02  0.51100000000E-03 0.  1.
         11   -1    0    0    0    0 -0.00000000000E+00 -0.00000000000E+00 -0.45593999997E+02  0.45594000000E+02  0.51100000000E-03 0. -1.
    9900012    2    1    2    0    0 -0.12760231645E+00  0.86315718643E+00  0.79482670530E+00  0.90007715216E+02  0.89999976257E+02 0.  0.
         12    1    1    2    0    0  0.12760231645E+00 -0.86315718643E+00 -0.79482670530E+00  0.11802847839E+01  0.00000000000E+00 0. -1.
         11    1    3    3    0    0  0.14432272075E+02 -0.26461663023E+02 -0.14263000768E+02  0.33345813506E+02  0.51100000000E-03 0. -1.
        -11    1    3    3    0    0  0.11233294480E+01 -0.11099317414E+02 -0.27675893182E+01  0.11494184051E+02  0.51100000000E-03 0.  1.
        -12    1    3    3    0    0 -0.15683203839E+02  0.38424137623E+02  0.17825416792E+02  0.45167717659E+02  0.00000000000E+00 0.  1.
</event>
<event>
 7    1  0.2084210E-015  0.9000776E+02  0.7816164E-02  0.1186339E+00
        -11   -1    0    0    0    0  0.00000000000E+00  0.00000000000E+00  0.45593999997E+02  0.45594000000E+02  0.51100000000E-03 0. -1.
         11   -1    0    0    0    0 -0.00000000000E+00 -0.00000000000E+00 -0.45593999997E+02  0.45594000000E+02  0.51100000000E-03 0.  1.
    9900012    2    1    2    0    0  0.67797618271E+00 -0.35072614481E+00 -0.90017535535E+00  0.90007755871E+02  0.90000017449E+02 0.  0.
         12    1    1    2    0    0 -0.67797618271E+00  0.35072614481E+00  0.90017535535E+00  0.11802441287E+01  0.00000000000E+00 0. -1.
         11    1    3    3    0    0  0.18836192650E+01 -0.69301780663E+01 -0.55669229256E+01  0.90865846547E+01  0.51100000000E-03 0. -1.
        -11    1    3    3    0    0  0.20971482304E+02  0.15213915314E+02 -0.29513201522E+02  0.39272068364E+02  0.51100000000E-03 0.  1.
         12    1    3    3    0    0 -0.22177125386E+02 -0.86344633926E+01  0.34179949093E+02  0.41649102853E+02  0.00000000000E+00 0. -1.
</event>
<event>
 7    1  0.2084210E-015  0.9000774E+02  0.7816164E-02  0.1186339E+00
        -11   -1    0    0    0    0  0.00000000000E+00  0.00000000000E+00  0.45593999997E+02  0.45594000000E+02  0.51100000000E-03 0.  1.
         11   -1    0    0    0    0 -0.00000000000E+00 -0.00000000000E+00 -0.45593999997E+02  0.45594000000E+02  0.51100000000E-03 0. -1.
    9900012    2    1    2    0    0  0.73219820294E+00  0.71721252239E+00  0.58523645027E+00  0.90007741675E+02  0.90000003065E+02 0.  0.
         12    1    1    2    0    0 -0.73219820294E+00 -0.71721252239E+00 -0.58523645027E+00  0.11802583249E+01  0.00000000000E+00 0. -1.
         11    1    3    3    0    0 -0.97756107574E+01  0.94959888880E+01  0.37263488566E+01  0.14128766638E+02  0.51100000000E-03 0. -1.
        -11    1    3    3    0    0 -0.18259408533E+02  0.29431348525E+00  0.27416245091E+02  0.32941510523E+02  0.51100000000E-03 0.  1.
         12    1    3    3    0    0  0.28767217493E+02 -0.90730898509E+01 -0.30557357497E+02  0.42937464515E+02  0.00000000000E+00 0. -1.
</event>
<event>
 7    1  0.2084210E-015  0.9000768E+02  0.7816164E-02  0.1186339E+00
        -11   -1    0    0    0    0  0.00000000000E+00  0.00000000000E+00  0.45593999997E+02  0.45594000000E+02  0.51100000000E-03 0. -1.
         11   -1    0    0    0    0 -0.00000000000E+00 -0.00000000000E+00 -0.45593999997E+02  0.45594000000E+02  0.51100000000E-03 0.  1.
    9900012    2    1    2    0    0 -0.20594020280E+00  0.10815974216E+01  0.42532029498E+00  0.90007677289E+02  0.89999937829E+02 0.  0.
         12    1    1    2    0    0  0.20594020280E+00 -0.10815974216E+01 -0.42532029498E+00  0.11803227114E+01  0.00000000000E+00 0. -1.
         11    1    3    3    0    0 -0.29822703638E+00  0.71000485568E+00  0.95704315656E+01  0.96013648443E+01  0.51100000000E-03 0. -1.
        -11    1    3    3    0    0  0.31623107502E+02 -0.16791747010E+01  0.19971390435E+02  0.37439244008E+02  0.51100000000E-03 0.  1.
         12    1    3    3    0    0 -0.31530820668E+02  0.20507672669E+01 -0.29116501706E+02  0.42967068436E+02  0.00000000000E+00 0. -1.
</event>
<event>
 7    1  0.2084210E-015  0.9000766E+02  0.7816164E-02  0.1186339E+00
        -11   -1    0    0    0    0  0.00000000000E+00  0.00000000000E+00  0.45593999997E+02  0.45594000000E+02  0.51100000000E-03 0.  1.
         11   -1    0    0    0    0 -0.00000000000E+00 -0.00000000000E+00 -0.45593999997E+02  0.45594000000E+02  0.51100000000E-03 0. -1.
    9900012    2    1    2    0    0 -0.61775501340E+00 -0.91831520388E+00  0.41023190901E+00  0.90007655013E+02  0.89999915259E+02 0.  0.
         12    1    1    2    0    0  0.61775501340E+00  0.91831520388E+00 -0.41023190901E+00  0.11803449875E+01  0.00000000000E+00 0. -1.
         11    1    3    3    0    0 -0.27943423177E+01  0.38592424718E+01 -0.91198862405E+01  0.10289529957E+02  0.51100000000E-03 0. -1.
        -11    1    3    3    0    0 -0.37096741293E+02  0.45816192250E+01  0.12032451420E+02  0.39267535404E+02  0.51100000000E-03 0.  1.
         12    1    3    3    0    0  0.39273328597E+02 -0.93591769006E+01 -0.25023332706E+01  0.40450589651E+02  0.00000000000E+00 0. -1.
</event>
<event>
 7    1  0.2084210E-015  0.9000773E+02  0.7816164E-02  0.1186339E+00
        -11   -1    0    0    0    0  0.00000000000E+00  0.00000000000E+00  0.45593999997E+02  0.45594000000E+02  0.51100000000E-03 0.  1.
         11   -1    0    0    0    0 -0.00000000000E+00 -0.00000000000E+00 -0.45593999997E+02  0.45594000000E+02  0.51100000000E-03 0. -1.
    9900012    2    1    2    0    0  0.51019396237E+00 -0.39545527552E+00 -0.98810337068E+00  0.90007732647E+02  0.89999993918E+02 0.  0.
         12    1    1    2    0    0 -0.51019396237E+00  0.39545527552E+00  0.98810337068E+00  0.11802673533E+01  0.00000000000E+00 0. -1.
         11    1    3    3    0    0 -0.67494304200E+01 -0.12813449336E+01  0.46778870835E+01  0.83113948084E+01  0.51100000000E-03 0. -1.
        -11    1    3    3    0    0 -0.23308405165E+01  0.38173949095E+02 -0.16570164015E+02  0.41680373592E+02  0.51100000000E-03 0.  1.
         12    1    3    3    0    0  0.95904648989E+01 -0.37288059437E+02  0.10904173561E+02  0.40015964247E+02  0.00000000000E+00 0. -1.
</event>
<event>
 7    1  0.2084210E-015  0.9000751E+02  0.7816164E-02  0.1186340E+00
        -11   -1    0    0    0    0  0.00000000000E+00  0.00000000000E+00  0.45593999997E+02  0.45594000000E+02  0.51100000000E-03 0. -1.
         11   -1    0    0    0    0 -0.00000000000E+00 -0.00000000000E+00 -0.45593999997E+02  0.45594000000E+02  0.51100000000E-03 0.  1.
    9900012    2    1    2    0    0  0.94844438779E+00  0.53887378468E+00 -0.45125180913E+00  0.90007508616E+02  0.89999766929E+02 0.  0.
         12    1    1    2    0    0 -0.94844438779E+00 -0.53887378468E+00  0.45125180913E+00  0.11804913840E+01  0.00000000000E+00 0. -1.
         11    1    3    3    0    0  0.13523267449E+01 -0.11346848417E+01  0.38387599093E+02  0.38428167556E+02  0.51100000000E-03 0. -1.
        -11    1    3    3    0    0 -0.46446677576E+01  0.88749765133E+00  0.53730682460E+01  0.71575452005E+01  0.51100000000E-03 0.  1.
        -12    1    3    3    0    0  0.42407854004E+01  0.78606097503E+00 -0.44211919148E+02  0.44421795860E+02  0.00000000000E+00 0.  1.
</event>
<event>
 7    1  0.2084210E-015  0.9000771E+02  0.7816164E-02  0.1186339E+00
        -11   -1    0    0    0    0  0.00000000000E+00  0.00000000000E+00  0.45593999997E+02  0.45594000000E+02  0.51100000000E-03 0.  1.
         11   -1    0    0    0    0 -0.00000000000E+00 -0.00000000000E+00 -0.45593999997E+02  0.45594000000E+02  0.51100000000E-03 0. -1.
    9900012    2    1    2    0    0  0.13798870962E+00 -0.38513349107E+00  0.11071175438E+01  0.90007712770E+02  0.89999973778E+02 0.  0.
         12    1    1    2    0    0 -0.13798870962E+00  0.38513349107E+00 -0.11071175438E+01  0.11802872301E+01  0.00000000000E+00 0. -1.
         11    1    3    3    0    0 -0.99749181579E+01 -0.31271823785E+01 -0.32955943870E+01  0.10960803096E+02  0.51100000000E-03 0. -1.
        -11    1    3    3    0    0 -0.13751081079E+02  0.35043486713E+01  0.36431705043E+02  0.39097849341E+02  0.51100000000E-03 0.  1.
         12    1    3    3    0    0  0.23863987947E+02 -0.76229978381E+00 -0.32028993113E+02  0.39949060333E+02  0.00000000000E+00 0. -1.
</event>
<event>
 7    1  0.2084210E-015  0.9000773E+02  0.7816164E-02  0.1186339E+00
        -11   -1    0    0    0    0  0.00000000000E+00  0.00000000000E+00  0.45593999997E+02  0.45594000000E+02  0.51100000000E-03 0. -1.
         11   -1    0    0    0    0 -0.00000000000E+00 -0.00000000000E+00 -0.45593999997E+02  0.45594000000E+02  0.51100000000E-03 0.  1.
    9900012    2    1    2    0    0  0.92122586829E+00  0.55588580078E+00 -0.48514139837E+00  0.90007733801E+02  0.89999995087E+02 0.  0.
         12    1    1    2    0    0 -0.92122586829E+00 -0.55588580078E+00  0.48514139837E+00  0.11802661989E+01  0.00000000000E+00 0. -1.
         11    1    3    3    0    0 -0.38371428726E+01  0.18847125099E+01 -0.88564402507E+01  0.98342432777E+01  0.51100000000E-03 0. -1.
        -11    1    3    3    0    0 -0.10698010275E+02  0.19405258352E+01 -0.33606353386E+02  0.35321382370E+02  0.51100000000E-03 0.  1.
         12    1    3    3    0    0  0.15456379015E+02 -0.32693525444E+01  0.41977652239E+02  0.44852108153E+02  0.00000000000E+00 0. -1.
</event>
<event>
 7    1  0.2084210E-015  0.9000778E+02  0.7816164E-02  0.1186339E+00
        -11   -1    0    0    0    0  0.00000000000E+00  0.00000000000E+00  0.45593999997E+02  0.45594000000E+02  0.51100000000E-03 0.  1.
         11   -1    0    0    0    0 -0.00000000000E+00 -0.00000000000E+00 -0.45593999997E+02  0.45594000000E+02  0.51100000000E-03 0. -1.
    9900012    2    1    2    0    0 -0.19745008395E+00 -0.11525754814E+01  0.15969252398E+00  0.90007780326E+02  0.90000042227E+02 0.  0.
         12    1    1    2    0    0  0.19745008395E+00  0.11525754814E+01 -0.15969252398E+00  0.11802196737E+01  0.00000000000E+00 0. -1.
         11    1    3    3    0    0  0.14427389322E+02  0.16581623466E+02 -0.12120510008E+02  0.25099931525E+02  0.51100000000E-03 0. -1.
        -11    1    3    3    0    0  0.96288714951E+01  0.84086539201E+01  0.24148939504E+02  0.27323834037E+02  0.51100000000E-03 0.  1.
         12    1    3    3    0    0 -0.24253710901E+02 -0.26142852867E+02 -0.11868736973E+02  0.37584014765E+02  0.00000000000E+00 0. -1.
</event>
<event>
 7    1  0.2084210E-015  0.9000866E+02  0.7816164E-02  0.1186337E+00
        -11   -1    0    0    0    0  0.00000000000E+00  0.00000000000E+00  0.45593999997E+02  0.45594000000E+02  0.51100000000E-03 0. -1.
         11   -1    0    0    0    0 -0.00000000000E+00 -0.00000000000E+00 -0.45593999997E+02  0.45594000000E+02  0.51100000000E-03 0.  1.
    9900012    2    1    2    0    0 -0.74897959168E+00  0.56316979789E+00 -0.71603955797E+00  0.90008659804E+02  0.90000933308E+02 0.  0.
         12    1    1    2    0    0  0.74897959168E+00 -0.56316979789E+00  0.71603955797E+00  0.11793401963E+01  0.00000000000E+00 0. -1.
         11    1    3    3    0    0 -0.15406760705E+01 -0.11335126122E+02  0.54110230239E+01  0.12654561920E+02  0.51100000000E-03 0. -1.
        -11    1    3    3    0    0 -0.75168939546E+00 -0.30984588145E+02 -0.13514825402E+02  0.33812131630E+02  0.51100000000E-03 0.  1.
         12    1    3    3    0    0  0.15433858743E+01  0.42882884065E+02  0.73877628198E+01  0.43541966253E+02  0.00000000000E+00 0. -1.
</event>
<event>
 7    1  0.2084210E-015  0.9000769E+02  0.7816164E-02  0.1186339E+00
        -11   -1    0    0    0    0  0.00000000000E+00  0.00000000000E+00  0.45593999997E+02  0.45594000000E+02  0.51100000000E-03 0. -1.
         11   -1    0    0    0    0 -0.00000000000E+00 -0.00000000000E+00 -0.45593999997E+02  0.45594000000E+02  0.51100000000E-03 0.  1.
    9900012    2    1    2    0    0  0.92672916845E+00 -0.37778558847E+00  0.62576728637E+00  0.90007689194E+02  0.89999949891E+02 0.  0.
         12    1    1    2    0    0 -0.92672916845E+00  0.37778558847E+00 -0.62576728637E+00  0.11803108062E+01  0.00000000000E+00 0. -1.
         11    1    3    3    0    0 -0.28939182074E+01 -0.55879352243E+01  0.90559085698E+00  0.63576629137E+01  0.51100000000E-03 0. -1.
        -11    1    3    3    0    0 -0.24243270137E+02 -0.30032106746E+02  0.18110907909E+00  0.38596585125E+02  0.51100000000E-03 0.  1.
         12    1    3    3    0    0  0.28063917513E+02  0.35242256382E+02 -0.46093264970E+00  0.45053441155E+02  0.00000000000E+00 0. -1.
</event>
<event>
 7    1  0.2084210E-015  0.9000804E+02  0.7816164E-02  0.1186338E+00
        -11   -1    0    0    0    0  0.00000000000E+00  0.00000000000E+00  0.45593999997E+02  0.45594000000E+02  0.51100000000E-03 0.  1.
         11   -1    0    0    0    0 -0.00000000000E+00 -0.00000000000E+00 -0.45593999997E+02  0.45594000000E+02  0.51100000000E-03 0. -1.
    9900012    2    1    2    0    0 -0.84382151648E+00  0.41291256900E+00 -0.71398796350E+00  0.90008037986E+02  0.90000303287E+02 0.  0.
         12    1    1    2    0    0  0.84382151648E+00 -0.41291256900E+00  0.71398796350E+00  0.11799620135E+01  0.00000000000E+00 0. -1.
         11    1    3    3    0    0 -0.27046401847E+02 -0.85777274579E+01 -0.22869221502E+02  0.36442921859E+02  0.51100000000E-03 0. -1.
        -11    1    3    3    0    0 -0.70904425412E+01 -0.36586843053E+01 -0.44260844609E+01  0.91241750417E+01  0.51100000000E-03 0.  1.
        -12    1    3    3    0    0  0.33293022872E+02  0.12649324332E+02  0.26581317999E+02  0.44440941086E+02  0.00000000000E+00 0.  1.
</event>
<event>
 7    1  0.2084210E-015  0.9000776E+02  0.7816164E-02  0.1186339E+00
        -11   -1    0    0    0    0  0.00000000000E+00  0.00000000000E+00  0.45593999997E+02  0.45594000000E+02  0.51100000000E-03 0. -1.
         11   -1    0    0    0    0 -0.00000000000E+00 -0.00000000000E+00 -0.45593999997E+02  0.45594000000E+02  0.51100000000E-03 0.  1.
    9900012    2    1    2    0    0  0.61513090065E+00  0.10053476174E+01 -0.62052626024E-01  0.90007762573E+02  0.90000024238E+02 0.  0.
         12    1    1    2    0    0 -0.61513090065E+00 -0.10053476174E+01  0.62052626024E-01  0.11802374275E+01  0.00000000000E+00 0. -1.
         11    1    3    3    0    0 -0.27601839023E+02  0.25377338406E+02 -0.59530828208E+01  0.37964588993E+02  0.51100000000E-03 0. -1.
        -11    1    3    3    0    0 -0.84182239647E+01 -0.43990918392E+01 -0.16519491838E+01  0.96409252718E+01  0.51100000000E-03 0.  1.
        -12    1    3    3    0    0  0.36635193888E+02 -0.19972898950E+02  0.75429793785E+01  0.42402248308E+02  0.00000000000E+00 0.  1.
</event>
<event>
 7    1  0.2084210E-015  0.9000778E+02  0.7816164E-02  0.1186339E+00
        -11   -1    0    0    0    0  0.00000000000E+00  0.00000000000E+00  0.45593999997E+02  0.45594000000E+02  0.51100000000E-03 0.  1.
         11   -1    0    0    0    0 -0.00000000000E+00 -0.00000000000E+00 -0.45593999997E+02  0.45594000000E+02  0.51100000000E-03 0. -1.
    9900012    2    1    2    0    0  0.10655438589E+00  0.34233933550E-01  0.11749005939E+01  0.90007780866E+02  0.90000042773E+02 0.  0.
         12    1    1    2    0    0 -0.10655438589E+00 -0.34233933550E-01 -0.11749005939E+01  0.11802191343E+01  0.00000000000E+00 0. -1.
         11    1    3    3    0    0  0.21110159406E+02 -0.31614826412E+02  0.14238077296E+01  0.38041599702E+02  0.51100000000E-03 0. -1.
        -11    1    3    3    0    0 -0.66855887400E+01 -0.73200362334E+01  0.29045778814E+01  0.10330372703E+02  0.51100000000E-03 0.  1.
        -12    1    3    3    0    0 -0.14318016280E+02  0.38969096579E+02 -0.31534850171E+01  0.41635808460E+02  0.00000000000E+00 0.  1.
</event>
<event>
 7    1  0.2084210E-015  0.9000771E+02  0.7816164E-02  0.1186339E+00
        -11   -1    0    0    0    0  0.00000000000E+00  0.00000000000E+00  0.45593999997E+02  0.45594000000E+02  0.51100000000E-03 0.  1.
         11   -1    0    0    0    0 -0.00000000000E+00 -0.00000000000E+00 -0.45593999997E+02  0.45594000000E+02  0.51100000000E-03 0. -1.
    9900012    2    1    2    0    0  0.12404442460E+00  0.11695452099E+01 -0.99246142648E-01  0.90007714944E+02  0.89999975981E+02 0.  0.
         12    1    1    2    0    0 -0.12404442460E+00 -0.11695452099E+01  0.99246142648E-01  0.11802850563E+01  0.00000000000E+00 0. -1.
         11    1    3    3    0    0 -0.50013479193E+01 -0.12500659993E+01 -0.60455770511E+01  0.79451336146E+01  0.51100000000E-03 0. -1.
        -11    1    3    3    0    0 -0.15464597707E+02  0.37798550064E+02  0.47001865067E+01  0.41109316738E+02  0.51100000000E-03 0.  1.
         12    1    3    3    0    0  0.20589990050E+02 -0.35378938855E+02  0.12461444017E+01  0.40953264591E+02  0.00000000000E+00 0. -1.
</event>
<event>
 7    1  0.2084210E-015  0.9000780E+02  0.7816164E-02  0.1186339E+00
        -11   -1    0    0    0    0  0.00000000000E+00  0.00000000000E+00  0.45593999997E+02  0.45594000000E+02  0.51100000000E-03 0. -1.
         11   -1    0    0    0    0 -0.00000000000E+00 -0.00000000000E+00 -0.45593999997E+02  0.45594000000E+02  0.51100000000E-03 0.  1.
    9900012    2    1    2    0    0 -0.11602796936E+01 -0.21022412109E+00 -0.49194732317E-01  0.90007803715E+02  0.90000065924E+02 0.  0.
         12    1    1    2    0    0  0.11602796936E+01  0.21022412109E+00  0.49194732317E-01  0.11801962846E+01  0.00000000000E+00 0. -1.
         11    1    3    3    0    0  0.51095620506E-01 -0.96802931973E+01  0.14230290004E+01  0.97844621183E+01  0.51100000000E-03 0. -1.
        -11    1    3    3    0    0 -0.40001877531E+02 -0.83679348999E+00 -0.23213434964E+01  0.40077912436E+02  0.51100000000E-03 0.  1.
         12    1    3    3    0    0  0.38790502217E+02  0.10306862566E+02  0.84911976371E+00  0.40145429161E+02  0.00000000000E+00 0. -1.
</event>
<event>
 7    1  0.2084210E-015  0.9000781E+02  0.7816164E-02  0.1186339E+00
        -11   -1    0    0    0    0  0.00000000000E+00  0.00000000000E+00  0.45593999997E+02  0.45594000000E+02  0.51100000000E-03 0.  1.
         11   -1    0    0    0    0 -0.00000000000E+00 -0.00000000000E+00 -0.45593999997E+02  0.45594000000E+02  0.51100000000E-03 0. -1.
    9900012    2    1    2    0    0  0.11686157318E+01 -0.15007313420E+00  0.68295650738E-01  0.90007809774E+02  0.90000072063E+02 0.  0.
         12    1    1    2    0    0 -0.11686157318E+01  0.15007313420E+00 -0.68295650738E-01  0.11801902262E+01  0.00000000000E+00 0. -1.
         11    1    3    3    0    0  0.19519700552E+02 -0.75891394580E+01 -0.14945243174E+02  0.25728856195E+02  0.51100000000E-03 0. -1.
        -11    1    3    3    0    0  0.23514070120E+01 -0.10439993702E+02  0.30862332989E+02  0.32665060558E+02  0.51100000000E-03 0.  1.
         12    1    3    3    0    0 -0.20702491832E+02  0.17879060025E+02 -0.15848794165E+02  0.31613893021E+02  0.00000000000E+00 0. -1.
</event>
<event>
 7    1  0.2084210E-015  0.9000735E+02  0.7816164E-02  0.1186340E+00
        -11   -1    0    0    0    0  0.00000000000E+00  0.00000000000E+00  0.45593999997E+02  0.45594000000E+02  0.51100000000E-03 0. -1.
         11   -1    0    0    0    0 -0.00000000000E+00 -0.00000000000E+00 -0.45593999997E+02  0.45594000000E+02  0.51100000000E-03 0.  1.
    9900012    2    1    2    0    0 -0.11522616985E+01 -0.23256054351E+00 -0.11017196464E+00  0.90007352174E+02  0.89999608421E+02 0.  0.
         12    1    1    2    0    0  0.11522616985E+01  0.23256054351E+00  0.11017196464E+00  0.11806478264E+01  0.00000000000E+00 0. -1.
         11    1    3    3    0    0 -0.14920000629E+01 -0.90759486534E+01  0.76330017821E+00  0.92293843548E+01  0.51100000000E-03 0. -1.
        -11    1    3    3    0    0  0.39835915666E+02  0.10272769963E+02 -0.25717792455E+01  0.41219461768E+02  0.51100000000E-03 0.  1.
         12    1    3    3    0    0 -0.39496177302E+02 -0.14293818527E+01  0.16983071026E+01  0.39558506051E+02  0.00000000000E+00 0. -1.
</event>
<event>
 7    1  0.2084210E-015  0.9000780E+02  0.7816164E-02  0.1186339E+00
        -11   -1    0    0    0    0  0.00000000000E+00  0.00000000000E+00  0.45593999997E+02  0.45594000000E+02  0.51100000000E-03 0.  1.
         11   -1    0    0    0    0 -0.00000000000E+00 -0.00000000000E+00 -0.45593999997E+02  0.45594000000E+02  0.51100000000E-03 0. -1.
    9900012    2    1    2    0    0 -0.75619189438E+00  0.55380762387E+00 -0.71717771785E+00  0.90007799617E+02  0.90000061772E+02 0.  0.
         12    1    1    2    0    0  0.75619189438E+00 -0.55380762387E+00  0.71717771785E+00  0.11802003831E+01  0.00000000000E+00 0. -1.
         11    1    3    3    0    0  0.84845972887E+00  0.33811461591E+02 -0.18873991657E+02  0.38731929724E+02  0.51100000000E-03 0. -1.
        -11    1    3    3    0    0  0.10597108991E+02  0.12420186564E+01  0.59526856903E+00  0.10686237609E+02  0.51100000000E-03 0.  1.
        -12    1    3    3    0    0 -0.12201760614E+02 -0.34499672623E+02  0.17561545370E+02  0.40589632284E+02  0.00000000000E+00 0.  1.
</event>
<event>
 7    1  0.2084210E-015  0.9000794E+02  0.7816164E-02  0.1186339E+00
        -11   -1    0    0    0    0  0.00000000000E+00  0.00000000000E+00  0.45593999997E+02  0.45594000000E+02  0.51100000000E-03 0.  1.
         11   -1    0    0    0    0 -0.00000000000E+00 -0.00000000000E+00 -0.45593999997E+02  0.45594000000E+02  0.51100000000E-03 0. -1.
    9900012    2    1    2    0    0  0.25691897107E+00 -0.57046030087E+00  0.10005579283E+01  0.90007937086E+02  0.90000201056E+02 0.  0.
         12    1    1    2    0    0 -0.25691897107E+00  0.57046030087E+00 -0.10005579283E+01  0.11800629138E+01  0.00000000000E+00 0. -1.
         11    1    3    3    0    0  0.20891168210E+02 -0.17689258232E+02 -0.28613423303E+02  0.39598974221E+02  0.51100000000E-03 0. -1.
        -11    1    3    3    0    0 -0.41131248480E+01 -0.82919100514E+01  0.21384032576E+01  0.94998072123E+01  0.51100000000E-03 0.  1.
        -12    1    3    3    0    0 -0.16521124391E+02  0.25410707982E+02  0.27475577973E+02  0.40909155653E+02  0.00000000000E+00 0.  1.
</event>
<event>
 7    1  0.2084210E-015  0.9000771E+02  0.7816164E-02  0.1186339E+00
        -11   -1    0    0    0    0  0.00000000000E+00  0.00000000000E+00  0.45593999997E+02  0.45594000000E+02  0.51100000000E-03 0.  1.
         11   -1    0    0    0    0 -0.00000000000E+00 -0.00000000000E+00 -0.45593999997E+02  0.45594000000E+02  0.51100000000E-03 0. -1.
    9900012    2    1    2    0    0  0.96851683873E+00 -0.47927700423E+00  0.47470203045E+00  0.90007714725E+02  0.89999975759E+02 0.  0.
         12    1    1    2    0    0 -0.96851683873E+00  0.47927700423E+00 -0.47470203045E+00  0.11802852754E+01  0.00000000000E+00 0. -1.
         11    1    3    3    0    0  0.35247439640E+02  0.10749527245E+01  0.94355992668E+01  0.36504356704E+02  0.51100000000E-03 0. -1.
        -11    1    3    3    0    0  0.66193166865E+01  0.26570112246E+01  0.64294464033E+01  0.96027518638E+01  0.51100000000E-03 0.  1.
        -12    1    3    3    0    0 -0.40898239488E+02 -0.42112409534E+01 -0.15390343640E+02  0.43900606157E+02  0.00000000000E+00 0.  1.
</event>
<event>
 7    1  0.2084210E-015  0.9000839E+02  0.7816164E-02  0.1186338E+00
        -11   -1    0    0    0    0  0.00000000000E+00  0.00000000000E+00  0.45593999997E+02  0.45594000000E+02  0.51100000000E-03 0. -1.
         11   -1    0    0    0    0 -0.00000000000E+00 -0.00000000000E+00 -0.45593999997E+02  0.45594000000E+02  0.51100000000E-03 0.  1.
    9900012    2    1    2    0    0 -0.16402201694E+00  0.10825060596E+01 -0.43904170010E+00  0.90008389808E+02  0.90000659751E+02 0.  0.
         12    1    1    2    0    0  0.16402201694E+00 -0.10825060596E+01  0.43904170010E+00  0.11796101922E+01  0.00000000000E+00 0. -1.
         11    1    3    3    0    0  0.12579184011E+01  0.88493473429E+01  0.12191063776E+01  0.90210602326E+01  0.51100000000E-03 0. -1.
        -11    1    3    3    0    0  0.26789029079E+02  0.11094984598E+02 -0.26222356278E+02  0.39094280032E+02  0.51100000000E-03 0.  1.
         12    1    3    3    0    0 -0.28210969497E+02 -0.18861825881E+02  0.24564208200E+02  0.41893049543E+02  0.00000000000E+00 0. -1.
</event>
<event>
 7    1  0.2084210E-015  0.9000776E+02  0.7816164E-02  0.1186339E+00
        -11   -1    0    0    0    0  0.00000000000E+00  0.00000000000E+00  0.45593999997E+02  0.45594000000E+02  0.51100000000E-03 0.  1.
         11   -1    0    0    0    0 -0.00000000000E+00 -0.00000000000E+00 -0.45593999997E+02  0.45594000000E+02  0.51100000000E-03 0. -1.
    9900012    2    1    2    0    0  0.11338897203E+00  0.55093636060E+00  0.10375805454E+01  0.90007762176E+02  0.90000023837E+02 0.  0.
         12    1    1    2    0    0 -0.11338897203E+00 -0.55093636060E+00 -0.10375805454E+01  0.11802378238E+01  0.00000000000E+00 0. -1.
         11    1    3    3    0    0 -0.90385306884E+01  0.45161448465E+01 -0.26022788208E+01  0.10433717295E+02  0.51100000000E-03 0. -1.
        -11    1    3    3    0    0 -0.10124274493E+02 -0.38932841739E+01  0.38358717993E+02  0.39862888029E+02  0.51100000000E-03 0.  1.
         12    1    3    3    0    0  0.19276194153E+02 -0.71924311972E-01 -0.34718858627E+02  0.39711156852E+02  0.00000000000E+00 0. -1.
</event>
<event>
 7    1  0.2740302E-015  0.9000774E+02  0.7816164E-02  0.1186339E+00
        -11   -1    0    0    0    0  0.00000000000E+00  0.00000000000E+00  0.45593999997E+02  0.45594000000E+02  0.51100000000E-03 0. -1.
         11   -1    0    0    0    0 -0.00000000000E+00 -0.00000000000E+00 -0.45593999997E+02  0.45594000000E+02  0.51100000000E-03 0.  1.
    9900012    2    1    2    0    0  0.11316155261E+01  0.32960767594E+00 -0.61741836487E-01  0.90007742836E+02  0.90000004241E+02 0.  0.
         12    1    1    2    0    0 -0.11316155261E+01 -0.32960767594E+00  0.61741836487E-01  0.11802571641E+01  0.00000000000E+00 0. -1.
         11    1    3    3    0    0 -0.35236188203E+02  0.54174110270E+01  0.59650348365E+01  0.36145801169E+02  0.51100000000E-03 0. -1.
        -11    1    3    3    0    0 -0.60014978258E+01  0.71220329575E+01 -0.24104941521E+01  0.96203852271E+01  0.51100000000E-03 0.  1.
        -12    1    3    3    0    0  0.42369301555E+02 -0.12209836308E+02 -0.36162825209E+01  0.44241556440E+02  0.00000000000E+00 0.  1.
</event>
<event>
 7    1  0.2084210E-015  0.9000776E+02  0.7816164E-02  0.1186339E+00
        -11   -1    0    0    0    0  0.00000000000E+00  0.00000000000E+00  0.45593999997E+02  0.45594000000E+02  0.51100000000E-03 0.  1.
         11   -1    0    0    0    0 -0.00000000000E+00 -0.00000000000E+00 -0.45593999997E+02  0.45594000000E+02  0.51100000000E-03 0. -1.
    9900012    2    1    2    0    0 -0.70952915435E+00 -0.93946497276E+00  0.83329549432E-01  0.90007758554E+02  0.90000020167E+02 0.  0.
         12    1    1    2    0    0  0.70952915435E+00  0.93946497276E+00 -0.83329549432E-01  0.11802414455E+01  0.00000000000E+00 0. -1.
         11    1    3    3    0    0  0.18977309108E+02  0.22608179213E+02 -0.20405947465E+02  0.35884129089E+02  0.51100000000E-03 0. -1.
        -11    1    3    3    0    0  0.99066245602E+01  0.15192129068E+01 -0.48154311809E+00  0.10033997313E+02  0.51100000000E-03 0.  1.
        -12    1    3    3    0    0 -0.29593462822E+02 -0.25066857093E+02  0.20970820132E+02  0.44089632153E+02  0.00000000000E+00 0.  1.
</event>
<event>
 7    1  0.2084210E-015  0.9000789E+02  0.7816164E-02  0.1186339E+00
        -11   -1    0    0    0    0  0.00000000000E+00  0.00000000000E+00  0.45593999997E+02  0.45594000000E+02  0.51100000000E-03 0.  1.
         11   -1    0    0    0    0 -0.00000000000E+00 -0.00000000000E+00 -0.45593999997E+02  0.45594000000E+02  0.51100000000E-03 0. -1.
    9900012    2    1    2    0    0 -0.94166693344E+00  0.23902652934E+00  0.66992255314E+00  0.90007887072E+02  0.90000150381E+02 0.  0.
         12    1    1    2    0    0  0.94166693344E+00 -0.23902652934E+00 -0.66992255314E+00  0.11801129278E+01  0.00000000000E+00 0. -1.
         11    1    3    3    0    0 -0.41779300438E+01 -0.53432088065E+01 -0.48506695801E+01  0.83387034626E+01  0.51100000000E-03 0. -1.
        -11    1    3    3    0    0 -0.77775702158E+01 -0.35186029866E+02  0.13887004611E+02  0.38618599062E+02  0.51100000000E-03 0.  1.
         12    1    3    3    0    0  0.11013833326E+02  0.40768265202E+02 -0.83664124779E+01  0.43050584547E+02  0.00000000000E+00 0. -1.
</event>
<event>
 7    1  0.2084210E-015  0.9000786E+02  0.7816164E-02  0.1186339E+00
        -11   -1    0    0    0    0  0.00000000000E+00  0.00000000000E+00  0.45593999997E+02  0.45594000000E+02  0.51100000000E-03 0. -1.
         11   -1    0    0    0    0 -0.00000000000E+00 -0.00000000000E+00 -0.45593999997E+02  0.45594000000E+02  0.51100000000E-03 0.  1.
    9900012    2    1    2    0    0 -0.58620238594E+00 -0.41327875066E+00  0.93717526510E+00  0.90007860161E+02  0.90000123115E+02 0.  0.
         12    1    1    2    0    0  0.58620238594E+00  0.41327875066E+00 -0.93717526510E+00  0.11801398394E+01  0.00000000000E+00 0. -1.
         11    1    3    3    0    0 -0.37744932014E+01 -0.10229392437E+02  0.84462412302E+00  0.10936208608E+02  0.51100000000E-03 0. -1.
        -11    1    3    3    0    0  0.21133247971E+02 -0.99532101649E+01 -0.30531651025E+02  0.38442974351E+02  0.51100000000E-03 0.  1.
         12    1    3    3    0    0 -0.17944957155E+02  0.19769323851E+02  0.30624202167E+02  0.40628677202E+02  0.00000000000E+00 0. -1.
</event>
<event>
 7    1  0.2084210E-015  0.9000769E+02  0.7816164E-02  0.1186339E+00
        -11   -1    0    0    0    0  0.00000000000E+00  0.00000000000E+00  0.45593999997E+02  0.45594000000E+02  0.51100000000E-03 0.  1.
         11   -1    0    0    0    0 -0.00000000000E+00 -0.00000000000E+00 -0.45593999997E+02  0.45594000000E+02  0.51100000000E-03 0. -1.
    9900012    2    1    2    0    0  0.14798416038E-01 -0.41019097066E+00  0.11066421224E+01  0.90007689696E+02  0.89999950400E+02 0.  0.
         12    1    1    2    0    0 -0.14798416038E-01  0.41019097066E+00 -0.11066421224E+01  0.11803103035E+01  0.00000000000E+00 0. -1.
         11    1    3    3    0    0 -0.26597723230E+02 -0.56149374875E+00 -0.26342773547E+02  0.37439229088E+02  0.51100000000E-03 0. -1.
        -11    1    3    3    0    0 -0.90943179585E+01  0.26922712978E+00  0.48446824504E+01  0.10307766523E+02  0.51100000000E-03 0.  1.
        -12    1    3    3    0    0  0.35706839605E+02 -0.11792435170E+00  0.22604733219E+02  0.42260694086E+02  0.00000000000E+00 0.  1.
</event>
<event>
 7    1  0.2084210E-015  0.9000775E+02  0.7816164E-02  0.1186339E+00
        -11   -1    0    0    0    0  0.00000000000E+00  0.00000000000E+00  0.45593999997E+02  0.45594000000E+02  0.51100000000E-03 0.  1.
         11   -1    0    0    0    0 -0.00000000000E+00 -0.00000000000E+00 -0.45593999997E+02  0.45594000000E+02  0.51100000000E-03 0. -1.
    9900012    2    1    2    0    0  0.11012722937E+01 -0.42429519942E+00  0.13159886596E-01  0.90007745678E+02  0.90000007121E+02 0.  0.
         12    1    1    2    0    0 -0.11012722937E+01  0.42429519942E+00 -0.13159886596E-01  0.11802543216E+01  0.00000000000E+00 0. -1.
         11    1    3    3    0    0 -0.13582808698E+01 -0.44187882652E+01  0.62140570418E+01  0.77450062514E+01  0.51100000000E-03 0. -1.
        -11    1    3    3    0    0  0.40815999366E+02 -0.83888111396E+01 -0.16643885163E+01  0.41702375783E+02  0.51100000000E-03 0.  1.
         12    1    3    3    0    0 -0.38356446202E+02  0.12383304205E+02 -0.45365086390E+01  0.40560363644E+02  0.00000000000E+00 0. -1.
</event>
<event>
 7    1  0.2084210E-015  0.9000774E+02  0.7816164E-02  0.1186339E+00
        -11   -1    0    0    0    0  0.00000000000E+00  0.00000000000E+00  0.45593999997E+02  0.45594000000E+02  0.51100000000E-03 0.  1.
         11   -1    0    0    0    0 -0.00000000000E+00 -0.00000000000E+00 -0.45593999997E+02  0.45594000000E+02  0.51100000000E-03 0. -1.
    9900012    2    1    2    0    0  0.64678602266E+00  0.32757554512E+00  0.93132661658E+00  0.90007742755E+02  0.90000004160E+02 0.  0.
         12    1    1    2    0    0 -0.64678602266E+00 -0.32757554512E+00 -0.93132661658E+00  0.11802572447E+01  0.00000000000E+00 0. -1.
         11    1    3    3    0    0  0.17834043467E+02  0.15922232737E+02 -0.32322898747E+02  0.40203735963E+02  0.51100000000E-03 0. -1.
        -11    1    3    3    0    0  0.64623548648E+01 -0.66696092315E+01  0.18140040560E+01  0.94623637996E+01  0.51100000000E-03 0.  1.
        -12    1    3    3    0    0 -0.23649612310E+02 -0.89250479600E+01  0.31440221308E+02  0.40341642993E+02  0.00000000000E+00 0.  1.
</event>
<event>
 7    1  0.2084210E-015  0.9000776E+02  0.7816164E-02  0.1186339E+00
        -11   -1    0    0    0    0  0.00000000000E+00  0.00000000000E+00  0.45593999997E+02  0.45594000000E+02  0.51100000000E-03 0. -1.
         11   -1    0    0    0    0 -0.00000000000E+00 -0.00000000000E+00 -0.45593999997E+02  0.45594000000E+02  0.51100000000E-03 0.  1.
    9900012    2    1    2    0    0 -0.54177529177E+00  0.10336378101E+01  0.17620726550E+00  0.90007755708E+02  0.90000017283E+02 0.  0.
         12    1    1    2    0    0  0.54177529177E+00 -0.10336378101E+01 -0.17620726550E+00  0.11802442924E+01  0.00000000000E+00 0. -1.
         11    1    3    3    0    0  0.21541431321E+01  0.39248466228E+02  0.87596635276E+01  0.40271753615E+02  0.51100000000E-03 0. -1.
        -11    1    3    3    0    0 -0.33226404127E+00 -0.25536944465E+01  0.93864059577E+01  0.97332611073E+01  0.51100000000E-03 0.  1.
        -12    1    3    3    0    0 -0.23636543826E+01 -0.35661133971E+02 -0.17969862220E+02  0.40002740985E+02  0.00000000000E+00 0.  1.
</event>
<event>
 7    1  0.2084210E-015  0.9000771E+02  0.7816164E-02  0.1186339E+00
        -11   -1    0    0    0    0  0.00000000000E+00  0.00000000000E+00  0.45593999997E+02  0.45594000000E+02  0.51100000000E-03 0.  1.
         11   -1    0    0    0    0 -0.00000000000E+00 -0.00000000000E+00 -0.45593999997E+02  0.45594000000E+02  0.51100000000E-03 0. -1.
    9900012    2    1    2    0    0 -0.13472358393E+00  0.44809555501E+00  0.10835752633E+01  0.90007713839E+02  0.89999974862E+02 0.  0.
         12    1    1    2    0    0  0.13472358393E+00 -0.44809555501E+00 -0.10835752633E+01  0.11802861609E+01  0.00000000000E+00 0. -1.
         11    1    3    3    0    0  0.23485433558E+02 -0.99081114751E+01  0.30685530814E+02  0.39891578861E+02  0.51100000000E-03 0. -1.
        -11    1    3    3    0    0 -0.19322787152E+01  0.10298021206E+02  0.30545545831E+01  0.10913901491E+02  0.51100000000E-03 0.  1.
        -12    1    3    3    0    0 -0.21687878427E+02  0.58185823972E-01 -0.32656510134E+02  0.39202233487E+02  0.00000000000E+00 0.  1.
</event>
<event>
 7    1  0.2084210E-015  0.9000778E+02  0.7816164E-02  0.1186339E+00
        -11   -1    0    0    0    0  0.00000000000E+00  0.00000000000E+00  0.45593999997E+02  0.45594000000E+02  0.51100000000E-03 0.  1.
         11   -1    0    0    0    0 -0.00000000000E+00 -0.00000000000E+00 -0.45593999997E+02  0.45594000000E+02  0.51100000000E-03 0. -1.
    9900012    2    1    2    0    0  0.47995132529E+00 -0.83846648006E+00  0.67790158020E+00  0.90007775502E+02  0.90000037339E+02 0.  0.
         12    1    1    2    0    0 -0.47995132529E+00  0.83846648006E+00 -0.67790158020E+00  0.11802244978E+01  0.00000000000E+00 0. -1.
         11    1    3    3    0    0 -0.53955115365E+00  0.10341659600E+02 -0.10064087323E+01  0.10404513325E+02  0.51100000000E-03 0. -1.
        -11    1    3    3    0    0 -0.38108820266E+02 -0.99799717551E+01 -0.55833248372E+01  0.39787630424E+02  0.51100000000E-03 0.  1.
         12    1    3    3    0    0  0.39128322745E+02 -0.12001543251E+01  0.72676351497E+01  0.39815631753E+02  0.00000000000E+00 0. -1.
</event>
<event>
 7    1  0.2084210E-015  0.9000776E+02  0.7816164E-02  0.1186339E+00
        -11   -1    0    0    0    0  0.00000000000E+00  0.00000000000E+00  0.45593999997E+02  0.45594000000E+02  0.51100000000E-03 0. -1.
         11   -1    0    0    0    0 -0.00000000000E+00 -0.00000000000E+00 -0.45593999997E+02  0.45594000000E+02  0.51100000000E-03 0.  1.
    9900012    2    1    2    0    0 -0.41559548800E+00  0.68779084744E+00 -0.86439704112E+00  0.90007763539E+02  0.90000025218E+02 0.  0.
         12    1    1    2    0    0  0.41559548800E+00 -0.68779084744E+00  0.86439704112E+00  0.11802364611E+01  0.00000000000E+00 0. -1.
         11    1    3    3    0    0  0.24233566684E+02 -0.23697756747E+02  0.68312049280E+01  0.34576217117E+02  0.51100000000E-03 0. -1.
        -11    1    3    3    0    0  0.22735542601E+01 -0.10077310134E+02  0.22723166134E+01  0.10577554139E+02  0.51100000000E-03 0.  1.
        -12    1    3    3    0    0 -0.26922716433E+02  0.34462857728E+02 -0.99679185825E+01  0.44853992283E+02  0.00000000000E+00 0.  1.
</event>
<event>
 7    1  0.2084210E-015  0.9000779E+02  0.7816164E-02  0.1186339E+00
        -11   -1    0    0    0    0  0.00000000000E+00  0.00000000000E+00  0.45593999997E+02  0.45594000000E+02  0.51100000000E-03 0.  1.
         11   -1    0    0    0    0 -0.00000000000E+00 -0.00000000000E+00 -0.45593999997E+02  0.45594000000E+02  0.51100000000E-03 0. -1.
    9900012    2    1    2    0    0 -0.59530253372E-01  0.10866368731E+01 -0.45670041931E+00  0.90007788655E+02  0.90000050666E+02 0.  0.
         12    1    1    2    0    0  0.59530253372E-01 -0.10866368731E+01  0.45670041931E+00  0.11802113446E+01  0.00000000000E+00 0. -1.
         11    1    3    3    0    0  0.65547594558E+01  0.14061080044E+02 -0.37857297626E+02  0.40912758735E+02  0.51100000000E-03 0. -1.
        -11    1    3    3    0    0 -0.28122759227E+01 -0.70592186539E+01 -0.29388624201E+01  0.81472925843E+01  0.51100000000E-03 0.  1.
        -12    1    3    3    0    0 -0.38020137864E+01 -0.59152245175E+01  0.40339459627E+02  0.40947737336E+02  0.00000000000E+00 0.  1.
</event>
<event>
 7    1  0.2084210E-015  0.9000780E+02  0.7816164E-02  0.1186339E+00
        -11   -1    0    0    0    0  0.00000000000E+00  0.00000000000E+00  0.45593999997E+02  0.45594000000E+02  0.51100000000E-03 0.  1.
         11   -1    0    0    0    0 -0.00000000000E+00 -0.00000000000E+00 -0.45593999997E+02  0.45594000000E+02  0.51100000000E-03 0. -1.
    9900012    2    1    2    0    0  0.45273325196E-01  0.48359231464E+00  0.10756245637E+01  0.90007796881E+02  0.90000058999E+02 0.  0.
         12    1    1    2    0    0 -0.45273325196E-01 -0.48359231464E+00 -0.10756245637E+01  0.11802031193E+01  0.00000000000E+00 0. -1.
         11    1    3    3    0    0 -0.12934257111E+02  0.47667994342E+01  0.10681022056E+02  0.17438509578E+02  0.51100000000E-03 0. -1.
        -11    1    3    3    0    0  0.11283873243E+02 -0.33888492169E+02  0.99136582665E+01  0.37067995863E+02  0.51100000000E-03 0.  1.
         12    1    3    3    0    0  0.16956571936E+01  0.29605285049E+02 -0.19519055759E+02  0.35501291440E+02  0.00000000000E+00 0. -1.
</event>
<event>
 7    1  0.2084210E-015  0.9000781E+02  0.7816164E-02  0.1186339E+00
        -11   -1    0    0    0    0  0.00000000000E+00  0.00000000000E+00  0.45593999997E+02  0.45594000000E+02  0.51100000000E-03 0. -1.
         11   -1    0    0    0    0 -0.00000000000E+00 -0.00000000000E+00 -0.45593999997E+02  0.45594000000E+02  0.51100000000E-03 0.  1.
    9900012    2    1    2    0    0 -0.11703519179E+01  0.11329270331E+00  0.10143205257E+00  0.90007810477E+02  0.90000072776E+02 0.  0.
         12    1    1    2    0    0  0.11703519179E+01 -0.11329270331E+00 -0.10143205257E+00  0.11801895227E+01  0.00000000000E+00 0. -1.
         11    1    3    3    0    0 -0.29297416737E+02  0.17234827211E+02  0.19013440249E+02  0.38947256731E+02  0.51100000000E-03 0. -1.
        -11    1    3    3    0    0  0.39637542758E+01 -0.94269881925E+01  0.88039245889E+01  0.13494018778E+02  0.51100000000E-03 0.  1.
        -12    1    3    3    0    0  0.24163310544E+02 -0.76945463155E+01 -0.27715932785E+02  0.37566534969E+02  0.00000000000E+00 0.  1.
</event>
<event>
 7    1  0.2084210E-015  0.9000718E+02  0.7816164E-02  0.1186340E+00
        -11   -1    0    0    0    0  0.00000000000E+00  0.00000000000E+00  0.45593999997E+02  0.45594000000E+02  0.51100000000E-03 0.  1.
         11   -1    0    0    0    0 -0.00000000000E+00 -0.00000000000E+00 -0.45593999997E+02  0.45594000000E+02  0.51100000000E-03 0. -1.
    9900012    2    1    2    0    0 -0.36967480637E+00  0.10565578071E+01  0.37597028121E+00  0.90007183539E+02  0.89999437560E+02 0.  0.
         12    1    1    2    0    0  0.36967480637E+00 -0.10565578071E+01 -0.37597028121E+00  0.11808164610E+01  0.00000000000E+00 0. -1.
         11    1    3    3    0    0  0.28999818983E+02  0.56666680037E+01 -0.25882338431E+02  0.39280988661E+02  0.51100000000E-03 0. -1.
        -11    1    3    3    0    0  0.17254649249E+01 -0.11219186212E+02  0.45363341890E+01  0.12223980391E+02  0.51100000000E-03 0.  1.
        -12    1    3    3    0    0 -0.31094958714E+02  0.66090760152E+01  0.21721974523E+02  0.38502214487E+02  0.00000000000E+00 0.  1.
</event>
<event>
 7    1  0.2084210E-015  0.9000774E+02  0.7816164E-02  0.1186339E+00
        -11   -1    0    0    0    0  0.00000000000E+00  0.00000000000E+00  0.45593999997E+02  0.45594000000E+02  0.51100000000E-03 0.  1.
         11   -1    0    0    0    0 -0.00000000000E+00 -0.00000000000E+00 -0.45593999997E+02  0.45594000000E+02  0.51100000000E-03 0. -1.
    9900012    2    1    2    0    0 -0.10494915364E+01  0.53732046049E+00 -0.53530823624E-01  0.90007740998E+02  0.90000002379E+02 0.  0.
         12    1    1    2    0    0  0.10494915364E+01 -0.53732046049E+00  0.53530823624E-01  0.11802590018E+01  0.00000000000E+00 0. -1.
         11    1    3    3    0    0 -0.60875537899E+01 -0.36629681055E+01  0.44464983877E+01  0.83813480216E+01  0.51100000000E-03 0. -1.
        -11    1    3    3    0    0 -0.25572449339E+02 -0.25250273615E+02  0.90139002531E+01  0.37051003777E+02  0.51100000000E-03 0.  1.
         12    1    3    3    0    0  0.30610511592E+02  0.29450562181E+02 -0.13513929464E+02  0.44575389200E+02  0.00000000000E+00 0. -1.
</event>
<event>
 7    1  0.2084210E-015  0.9000759E+02  0.7816164E-02  0.1186339E+00
        -11   -1    0    0    0    0  0.00000000000E+00  0.00000000000E+00  0.45593999997E+02  0.45594000000E+02  0.51100000000E-03 0.  1.
         11   -1    0    0    0    0 -0.00000000000E+00 -0.00000000000E+00 -0.45593999997E+02  0.45594000000E+02  0.51100000000E-03 0. -1.
    9900012    2    1    2    0    0 -0.30916848768E+00 -0.11110232823E+01 -0.25181618114E+00  0.90007589361E+02  0.89999848740E+02 0.  0.
         12    1    1    2    0    0  0.30916848768E+00  0.11110232823E+01  0.25181618114E+00  0.11804106390E+01  0.00000000000E+00 0. -1.
         11    1    3    3    0    0  0.34870498994E+01 -0.67924757300E-01  0.80599107197E+01  0.87821575848E+01  0.51100000000E-03 0. -1.
        -11    1    3    3    0    0  0.12219590051E+02 -0.11879296052E+02  0.32145935997E+02  0.36384024751E+02  0.51100000000E-03 0.  1.
         12    1    3    3    0    0 -0.16015808438E+02  0.10836197527E+02 -0.40457662898E+02  0.44841407025E+02  0.00000000000E+00 0. -1.
</event>
<event>
 7    1  0.2084210E-015  0.9000757E+02  0.7816164E-02  0.1186339E+00
        -11   -1    0    0    0    0  0.00000000000E+00  0.00000000000E+00  0.45593999997E+02  0.45594000000E+02  0.51100000000E-03 0. -1.
         11   -1    0    0    0    0 -0.00000000000E+00 -0.00000000000E+00 -0.45593999997E+02  0.45594000000E+02  0.51100000000E-03 0.  1.
    9900012    2    1    2    0    0  0.33510196703E+00  0.96426737707E+00 -0.59271504071E+00  0.90007569561E+02  0.89999828679E+02 0.  0.
         12    1    1    2    0    0 -0.33510196703E+00 -0.96426737707E+00  0.59271504071E+00  0.11804304394E+01  0.00000000000E+00 0. -1.
         11    1    3    3    0    0 -0.11362126325E+02 -0.83526240282E+01  0.29142148613E+02  0.32374821526E+02  0.51100000000E-03 0. -1.
        -11    1    3    3    0    0 -0.24086506250E+01 -0.33203698888E+01  0.11525375402E+02  0.12233590333E+02  0.51100000000E-03 0.  1.
        -12    1    3    3    0    0  0.14105878917E+02  0.12637261294E+02 -0.41260239056E+02  0.45399157701E+02  0.00000000000E+00 0.  1.
</event>
<event>
 7    1  0.2084210E-015  0.9000776E+02  0.7816164E-02  0.1186339E+00
        -11   -1    0    0    0    0  0.00000000000E+00  0.00000000000E+00  0.45593999997E+02  0.45594000000E+02  0.51100000000E-03 0.  1.
         11   -1    0    0    0    0 -0.00000000000E+00 -0.00000000000E+00 -0.45593999997E+02  0.45594000000E+02  0.51100000000E-03 0. -1.
    9900012    2    1    2    0    0 -0.54069054795E+00  0.72282819922E+00  0.76034857256E+00  0.90007764080E+02  0.90000025766E+02 0.  0.
         12    1    1    2    0    0  0.54069054795E+00 -0.72282819922E+00 -0.76034857256E+00  0.11802359196E+01  0.00000000000E+00 0. -1.
         11    1    3    3    0    0  0.37553531584E+02  0.61411401699E+01 -0.13740497828E+02  0.40457170166E+02  0.51100000000E-03 0. -1.
        -11    1    3    3    0    0 -0.54968484388E+01 -0.84808294419E+01 -0.51729655135E+01  0.11353386422E+02  0.51100000000E-03 0.  1.
        -12    1    3    3    0    0 -0.32597373693E+02  0.30625174712E+01  0.19673811915E+02  0.38197207492E+02  0.00000000000E+00 0.  1.
</event>
<event>
 7    1  0.2084210E-015  0.9000779E+02  0.7816164E-02  0.1186339E+00
        -11   -1    0    0    0    0  0.00000000000E+00  0.00000000000E+00  0.45593999997E+02  0.45594000000E+02  0.51100000000E-03 0.  1.
         11   -1    0    0    0    0 -0.00000000000E+00 -0.00000000000E+00 -0.45593999997E+02  0.45594000000E+02  0.51100000000E-03 0. -1.
    9900012    2    1    2    0    0 -0.33058819781E+00 -0.10384815021E+01  0.45293750960E+00  0.90007794605E+02  0.90000056694E+02 0.  0.
         12    1    1    2    0    0  0.33058819781E+00  0.10384815021E+01 -0.45293750960E+00  0.11802053950E+01  0.00000000000E+00 0. -1.
         11    1    3    3    0    0 -0.20254432577E+02  0.72766643606E+01 -0.33759013631E+02  0.40035770066E+02  0.51100000000E-03 0. -1.
        -11    1    3    3    0    0 -0.49510430601E+01 -0.82654516528E+01  0.30640535005E+01  0.10110338398E+02  0.51100000000E-03 0.  1.
        -12    1    3    3    0    0  0.24874887439E+02 -0.49694210002E-01  0.31147897640E+02  0.39861686141E+02  0.00000000000E+00 0.  1.
</event>
<event>
 7    1  0.2084210E-015  0.9000769E+02  0.7816164E-02  0.1186339E+00
        -11   -1    0    0    0    0  0.00000000000E+00  0.00000000000E+00  0.45593999997E+02  0.45594000000E+02  0.51100000000E-03 0.  1.
         11   -1    0    0    0    0 -0.00000000000E+00 -0.00000000000E+00 -0.45593999997E+02  0.45594000000E+02  0.51100000000E-03 0. -1.
    9900012    2    1    2    0    0  0.27234757076E+00  0.11445464844E+01  0.94767878406E-01  0.90007686141E+02  0.89999946798E+02 0.  0.
         12    1    1    2    0    0 -0.27234757076E+00 -0.11445464844E+01 -0.94767878406E-01  0.11803138587E+01  0.00000000000E+00 0. -1.
         11    1    3    3    0    0 -0.48169275105E+01 -0.84633738199E+01 -0.39204120463E+01  0.10497672024E+02  0.51100000000E-03 0. -1.
        -11    1    3    3    0    0  0.30006241494E+02 -0.84433929614E+01  0.26892187546E+02  0.41168618687E+02  0.51100000000E-03 0.  1.
         12    1    3    3    0    0 -0.24916966413E+02  0.18051313266E+02 -0.22877007622E+02  0.38341395430E+02  0.00000000000E+00 0. -1.
</event>
<event>
 7    1  0.2084210E-015  0.9000778E+02  0.7816164E-02  0.1186339E+00
        -11   -1    0    0    0    0  0.00000000000E+00  0.00000000000E+00  0.45593999997E+02  0.45594000000E+02  0.51100000000E-03 0. -1.
         11   -1    0    0    0    0 -0.00000000000E+00 -0.00000000000E+00 -0.45593999997E+02  0.45594000000E+02  0.51100000000E-03 0.  1.
    9900012    2    1    2    0    0 -0.68920959388E+00  0.50197926522E+00 -0.81604370263E+00  0.90007779524E+02  0.90000041414E+02 0.  0.
         12    1    1    2    0    0  0.68920959388E+00 -0.50197926522E+00  0.81604370263E+00  0.11802204758E+01  0.00000000000E+00 0. -1.
         11    1    3    3    0    0 -0.47394357260E+01  0.38700214652E+02  0.63847830589E+00  0.38994570390E+02  0.51100000000E-03 0. -1.
        -11    1    3    3    0    0  0.35409592866E+01  0.87823293886E+00  0.97076756737E+01  0.10370566668E+02  0.51100000000E-03 0.  1.
        -12    1    3    3    0    0  0.50926684555E+00 -0.39076468326E+02 -0.11162197682E+02  0.40642642466E+02  0.00000000000E+00 0.  1.
</event>
<event>
 7    1  0.2084210E-015  0.9000767E+02  0.7816164E-02  0.1186339E+00
        -11   -1    0    0    0    0  0.00000000000E+00  0.00000000000E+00  0.45593999997E+02  0.45594000000E+02  0.51100000000E-03 0.  1.
         11   -1    0    0    0    0 -0.00000000000E+00 -0.00000000000E+00 -0.45593999997E+02  0.45594000000E+02  0.51100000000E-03 0. -1.
    9900012    2    1    2    0    0  0.49934227186E+00  0.10572727391E+01  0.16127106309E+00  0.90007670934E+02  0.89999931390E+02 0.  0.
         12    1    1    2    0    0 -0.49934227186E+00 -0.10572727391E+01 -0.16127106309E+00  0.11803290665E+01  0.00000000000E+00 0. -1.
         11    1    3    3    0    0  0.84775021859E+01 -0.27374837647E+01  0.14748001656E+01  0.90297783175E+01  0.51100000000E-03 0. -1.
        -11    1    3    3    0    0  0.32770559953E+02 -0.11615573429E+02  0.95944049042E+01  0.36067766100E+02  0.51100000000E-03 0.  1.
         12    1    3    3    0    0 -0.40748719867E+02  0.15410329932E+02 -0.10907934007E+02  0.44910126516E+02  0.00000000000E+00 0. -1.
</event>
<event>
 7    1  0.2084210E-015  0.9000756E+02  0.7816164E-02  0.1186339E+00
        -11   -1    0    0    0    0  0.00000000000E+00  0.00000000000E+00  0.45593999997E+02  0.45594000000E+02  0.51100000000E-03 0.  1.
         11   -1    0    0    0    0 -0.00000000000E+00 -0.00000000000E+00 -0.45593999997E+02  0.45594000000E+02  0.51100000000E-03 0. -1.
    9900012    2    1    2    0    0  0.57409776989E+00 -0.83315905220E+00  0.60802083618E+00  0.90007562965E+02  0.89999821996E+02 0.  0.
         12    1    1    2    0    0 -0.57409776989E+00  0.83315905220E+00 -0.60802083618E+00  0.11804370347E+01  0.00000000000E+00 0. -1.
         11    1    3    3    0    0 -0.92470742955E+01  0.22160327766E+01 -0.48191116023E+01  0.10660348080E+02  0.51100000000E-03 0. -1.
        -11    1    3    3    0    0 -0.24737039022E+00  0.13691236980E+02  0.38540562677E+02  0.40900930721E+02  0.51100000000E-03 0.  1.
         12    1    3    3    0    0  0.10068542456E+02 -0.16740428809E+02 -0.33113430238E+02  0.38446284164E+02  0.00000000000E+00 0. -1.
</event>
<event>
 7    1  0.2084210E-015  0.9000777E+02  0.7816164E-02  0.1186339E+00
        -11   -1    0    0    0    0  0.00000000000E+00  0.00000000000E+00  0.45593999997E+02  0.45594000000E+02  0.51100000000E-03 0.  1.
         11   -1    0    0    0    0 -0.00000000000E+00 -0.00000000000E+00 -0.45593999997E+02  0.45594000000E+02  0.51100000000E-03 0. -1.
    9900012    2    1    2    0    0 -0.26454948769E+00  0.57121467403E+00  0.99833167517E+00  0.90007771730E+02  0.90000033517E+02 0.  0.
         12    1    1    2    0    0  0.26454948769E+00 -0.57121467403E+00 -0.99833167517E+00  0.11802282698E+01  0.00000000000E+00 0. -1.
         11    1    3    3    0    0  0.21573685668E+02 -0.11509509498E+02 -0.30475933194E+02  0.39072691569E+02  0.51100000000E-03 0. -1.
        -11    1    3    3    0    0  0.69079109656E+01 -0.28460135728E+01  0.79045569299E+01  0.10876628507E+02  0.51100000000E-03 0.  1.
        -12    1    3    3    0    0 -0.28746146121E+02  0.14926737745E+02  0.23569707939E+02  0.40058451653E+02  0.00000000000E+00 0.  1.
</event>
<event>
 7    1  0.2084210E-015  0.9000776E+02  0.7816164E-02  0.1186339E+00
        -11   -1    0    0    0    0  0.00000000000E+00  0.00000000000E+00  0.45593999997E+02  0.45594000000E+02  0.51100000000E-03 0.  1.
         11   -1    0    0    0    0 -0.00000000000E+00 -0.00000000000E+00 -0.45593999997E+02  0.45594000000E+02  0.51100000000E-03 0. -1.
    9900012    2    1    2    0    0  0.49693855971E+00 -0.72352650663E-02  0.10704955421E+01  0.90007762318E+02  0.90000023980E+02 0.  0.
         12    1    1    2    0    0 -0.49693855971E+00  0.72352650663E-02 -0.10704955421E+01  0.11802376824E+01  0.00000000000E+00 0. -1.
         11    1    3    3    0    0  0.85866435707E+01 -0.25021335544E+02  0.24858419759E+02  0.36300670977E+02  0.51100000000E-03 0. -1.
        -11    1    3    3    0    0  0.33190549918E+00 -0.10717225846E+02 -0.16785039562E+01  0.10852947382E+02  0.51100000000E-03 0.  1.
        -12    1    3    3    0    0 -0.84216105101E+01  0.35731326124E+02 -0.22109420260E+02  0.42854143959E+02  0.00000000000E+00 0.  1.
</event>
<event>
 7    1  0.2084210E-015  0.9000774E+02  0.7816164E-02  0.1186339E+00
        -11   -1    0    0    0    0  0.00000000000E+00  0.00000000000E+00  0.45593999997E+02  0.45594000000E+02  0.51100000000E-03 0.  1.
         11   -1    0    0    0    0 -0.00000000000E+00 -0.00000000000E+00 -0.45593999997E+02  0.45594000000E+02  0.51100000000E-03 0. -1.
    9900012    2    1    2    0    0  0.42662066921E+00 -0.10992027257E+01  0.52654771702E-01  0.90007735473E+02  0.89999996782E+02 0.  0.
         12    1    1    2    0    0 -0.42662066921E+00  0.10992027257E+01 -0.52654771702E-01  0.11802645266E+01  0.00000000000E+00 0. -1.
         11    1    3    3    0    0 -0.16889000030E+02 -0.26523368244E+02  0.20336793568E+02  0.37447463971E+02  0.51100000000E-03 0. -1.
        -11    1    3    3    0    0 -0.57211314541E+01 -0.66859445818E+01 -0.20385130454E+01  0.90326483250E+01  0.51100000000E-03 0.  1.
        -12    1    3    3    0    0  0.23036752153E+02  0.32110110100E+02 -0.18245625751E+02  0.43527623177E+02  0.00000000000E+00 0.  1.
</event>
<event>
 7    1  0.2084210E-015  0.9000782E+02  0.7816164E-02  0.1186339E+00
        -11   -1    0    0    0    0  0.00000000000E+00  0.00000000000E+00  0.45593999997E+02  0.45594000000E+02  0.51100000000E-03 0. -1.
         11   -1    0    0    0    0 -0.00000000000E+00 -0.00000000000E+00 -0.45593999997E+02  0.45594000000E+02  0.51100000000E-03 0.  1.
    9900012    2    1    2    0    0  0.95110106879E+00  0.14798295759E+00 -0.68289271160E+00  0.90007815839E+02  0.90000078208E+02 0.  0.
         12    1    1    2    0    0 -0.95110106879E+00 -0.14798295759E+00  0.68289271160E+00  0.11801841612E+01  0.00000000000E+00 0. -1.
         11    1    3    3    0    0  0.15894481254E+02 -0.31715282565E+02  0.17424420417E+02  0.39523462774E+02  0.51100000000E-03 0. -1.
        -11    1    3    3    0    0  0.61839832395E+01  0.28010322927E+01  0.43969999831E+01  0.80883273749E+01  0.51100000000E-03 0.  1.
        -12    1    3    3    0    0 -0.21127363425E+02  0.29062233230E+02 -0.22504313112E+02  0.42396025689E+02  0.00000000000E+00 0.  1.
</event>
<event>
 7    1  0.2084210E-015  0.9000773E+02  0.7816164E-02  0.1186339E+00
        -11   -1    0    0    0    0  0.00000000000E+00  0.00000000000E+00  0.45593999997E+02  0.45594000000E+02  0.51100000000E-03 0.  1.
         11   -1    0    0    0    0 -0.00000000000E+00 -0.00000000000E+00 -0.45593999997E+02  0.45594000000E+02  0.51100000000E-03 0. -1.
    9900012    2    1    2    0    0  0.10385780332E+01  0.55784292699E+00 -0.56690536707E-01  0.90007725930E+02  0.89999987113E+02 0.  0.
         12    1    1    2    0    0 -0.10385780332E+01 -0.55784292699E+00  0.56690536707E-01  0.11802740695E+01  0.00000000000E+00 0. -1.
         11    1    3    3    0    0  0.42705606615E+01  0.37321074602E+02  0.52653892396E+01  0.37931841794E+02  0.51100000000E-03 0. -1.
        -11    1    3    3    0    0  0.11970492504E+02 -0.11864564534E+01  0.32255984278E+01  0.12454109972E+02  0.51100000000E-03 0.  1.
        -12    1    3    3    0    0 -0.15202475132E+02 -0.35576775221E+02 -0.85476782042E+01  0.39621774165E+02  0.00000000000E+00 0.  1.
</event>
<event>
 7    1  0.2084210E-015  0.9000779E+02  0.7816164E-02  0.1186339E+00
        -11   -1    0    0    0    0  0.00000000000E+00  0.00000000000E+00  0.45593999997E+02  0.45594000000E+02  0.51100000000E-03 0. -1.
         11   -1    0    0    0    0 -0.00000000000E+00 -0.00000000000E+00 -0.45593999997E+02  0.45594000000E+02  0.51100000000E-03 0.  1.
    9900012    2    1    2    0    0 -0.17427745907E+00 -0.72644234674E+00 -0.91367852810E+00  0.90007788337E+02  0.90000050343E+02 0.  0.
         12    1    1    2    0    0  0.17427745907E+00  0.72644234674E+00  0.91367852810E+00  0.11802116626E+01  0.00000000000E+00 0. -1.
         11    1    3    3    0    0 -0.29840901836E+02 -0.11825825981E+02 -0.90118120613E+01  0.33339801130E+02  0.51100000000E-03 0. -1.
        -11    1    3    3    0    0 -0.17203642999E+01 -0.20281862361E+01 -0.15201695930E+02  0.15432587344E+02  0.51100000000E-03 0.  1.
        -12    1    3    3    0    0  0.31386988676E+02  0.13127569871E+02  0.23299829463E+02  0.41235399863E+02  0.00000000000E+00 0.  1.
</event>
<event>
 7    1  0.2084210E-015  0.9000773E+02  0.7816164E-02  0.1186339E+00
        -11   -1    0    0    0    0  0.00000000000E+00  0.00000000000E+00  0.45593999997E+02  0.45594000000E+02  0.51100000000E-03 0. -1.
         11   -1    0    0    0    0 -0.00000000000E+00 -0.00000000000E+00 -0.45593999997E+02  0.45594000000E+02  0.51100000000E-03 0.  1.
    9900012    2    1    2    0    0 -0.42886603122E+00 -0.38283226783E+00 -0.10308033717E+01  0.90007727909E+02  0.89999989117E+02 0.  0.
         12    1    1    2    0    0  0.42886603122E+00  0.38283226783E+00  0.10308033717E+01  0.11802720911E+01  0.00000000000E+00 0. -1.
         11    1    3    3    0    0 -0.93628002678E+01 -0.16099445836E+00  0.19367971333E+00  0.93661870664E+01  0.51100000000E-03 0. -1.
        -11    1    3    3    0    0 -0.32748079999E+02 -0.98819392228E+01 -0.12458220364E+02  0.36404624999E+02  0.51100000000E-03 0.  1.
         12    1    3    3    0    0  0.41682014236E+02  0.96601014133E+01  0.11233737279E+02  0.44236915843E+02  0.00000000000E+00 0. -1.
</event>
<event>
 7    1  0.2084210E-015  0.9000775E+02  0.7816164E-02  0.1186339E+00
        -11   -1    0    0    0    0  0.00000000000E+00  0.00000000000E+00  0.45593999997E+02  0.45594000000E+02  0.51100000000E-03 0. -1.
         11   -1    0    0    0    0 -0.00000000000E+00 -0.00000000000E+00 -0.45593999997E+02  0.45594000000E+02  0.51100000000E-03 0.  1.
    9900012    2    1    2    0    0 -0.93328132883E+00 -0.33323202184E+00 -0.64104059581E+00  0.90007749745E+02  0.90000011242E+02 0.  0.
         12    1    1    2    0    0  0.93328132883E+00  0.33323202184E+00  0.64104059581E+00  0.11802502551E+01  0.00000000000E+00 0. -1.
         11    1    3    3    0    0 -0.58290254289E+01 -0.60630997983E+01 -0.78768324489E+01  0.11523159563E+02  0.51100000000E-03 0. -1.
        -11    1    3    3    0    0 -0.35040174032E+02 -0.59141695514E+01 -0.29465183017E+01  0.35657722418E+02  0.51100000000E-03 0.  1.
         12    1    3    3    0    0  0.39935918133E+02  0.11644037328E+02  0.10182310155E+02  0.42826867764E+02  0.00000000000E+00 0. -1.
</event>
<event>
 7    1  0.2084210E-015  0.9000696E+02  0.7816164E-02  0.1186341E+00
        -11   -1    0    0    0    0  0.00000000000E+00  0.00000000000E+00  0.45593999997E+02  0.45594000000E+02  0.51100000000E-03 0.  1.
         11   -1    0    0    0    0 -0.00000000000E+00 -0.00000000000E+00 -0.45593999997E+02  0.45594000000E+02  0.51100000000E-03 0. -1.
    9900012    2    1    2    0    0  0.88481713582E+00 -0.75008220597E+00 -0.22212087505E+00  0.90006957087E+02  0.89999208117E+02 0.  0.
         12    1    1    2    0    0 -0.88481713582E+00  0.75008220597E+00  0.22212087505E+00  0.11810429131E+01  0.00000000000E+00 0. -1.
         11    1    3    3    0    0 -0.44455672984E+01 -0.58869917812E+01 -0.18707396512E+01  0.76104801386E+01  0.51100000000E-03 0. -1.
        -11    1    3    3    0    0  0.13318793589E+02  0.30041843906E+02  0.29520761986E+02  0.44174404766E+02  0.51100000000E-03 0.  1.
         12    1    3    3    0    0 -0.79884091550E+01 -0.24904934331E+02 -0.27872143209E+02  0.38222072183E+02  0.00000000000E+00 0. -1.
</event>
<event>
 7    1  0.2084210E-015  0.9000787E+02  0.7816164E-02  0.1186339E+00
        -11   -1    0    0    0    0  0.00000000000E+00  0.00000000000E+00  0.45593999997E+02  0.45594000000E+02  0.51100000000E-03 0.  1.
         11   -1    0    0    0    0 -0.00000000000E+00 -0.00000000000E+00 -0.45593999997E+02  0.45594000000E+02  0.51100000000E-03 0. -1.
    9900012    2    1    2    0    0  0.10323096764E+01 -0.96288103845E-01 -0.56371651594E+00  0.90007868237E+02  0.90000131298E+02 0.  0.
         12    1    1    2    0    0 -0.10323096764E+01  0.96288103845E-01  0.56371651594E+00  0.11801317626E+01  0.00000000000E+00 0. -1.
         11    1    3    3    0    0 -0.12648790725E+01 -0.10836283951E+01  0.93304258303E+01  0.94779225573E+01  0.51100000000E-03 0. -1.
        -11    1    3    3    0    0 -0.21506710694E+02 -0.23482869102E+02  0.17880957254E+02  0.36520027091E+02  0.51100000000E-03 0.  1.
         12    1    3    3    0    0  0.23803899443E+02  0.24470209393E+02 -0.27775099600E+02  0.44009918589E+02  0.00000000000E+00 0. -1.
</event>
<event>
 7    1  0.2084210E-015  0.9000774E+02  0.7816164E-02  0.1186339E+00
        -11   -1    0    0    0    0  0.00000000000E+00  0.00000000000E+00  0.45593999997E+02  0.45594000000E+02  0.51100000000E-03 0. -1.
         11   -1    0    0    0    0 -0.00000000000E+00 -0.00000000000E+00 -0.45593999997E+02  0.45594000000E+02  0.51100000000E-03 0.  1.
    9900012    2    1    2    0    0  0.88747370980E+00  0.62821760622E+00 -0.45908251160E+00  0.90007735750E+02  0.89999997062E+02 0.  0.
         12    1    1    2    0    0 -0.88747370980E+00 -0.62821760622E+00  0.45908251160E+00  0.11802642496E+01  0.00000000000E+00 0. -1.
         11    1    3    3    0    0 -0.64095967155E+00  0.11560202168E+02 -0.12369957373E+02  0.16942991151E+02  0.51100000000E-03 0. -1.
        -11    1    3    3    0    0 -0.19439967752E+02  0.14984740728E+02  0.26985113813E+02  0.36478091626E+02  0.51100000000E-03 0.  1.
         12    1    3    3    0    0  0.20968401133E+02 -0.25916725290E+02 -0.15074238952E+02  0.36586652974E+02  0.00000000000E+00 0. -1.
</event>
<event>
 7    1  0.2084210E-015  0.9000770E+02  0.7816164E-02  0.1186339E+00
        -11   -1    0    0    0    0  0.00000000000E+00  0.00000000000E+00  0.45593999997E+02  0.45594000000E+02  0.51100000000E-03 0. -1.
         11   -1    0    0    0    0 -0.00000000000E+00 -0.00000000000E+00 -0.45593999997E+02  0.45594000000E+02  0.51100000000E-03 0.  1.
    9900012    2    1    2    0    0 -0.11068760259E+00 -0.88102433663E+00 -0.77759665532E+00  0.90007698265E+02  0.89999959082E+02 0.  0.
         12    1    1    2    0    0  0.11068760259E+00  0.88102433663E+00  0.77759665532E+00  0.11803017349E+01  0.00000000000E+00 0. -1.
         11    1    3    3    0    0  0.23723949369E+02 -0.25296974820E+02  0.12972860880E+02  0.37027798049E+02  0.51100000000E-03 0. -1.
        -11    1    3    3    0    0  0.48477300229E+01 -0.68552383194E+01 -0.71226171021E-01  0.83964190117E+01  0.51100000000E-03 0.  1.
        -12    1    3    3    0    0 -0.28682366995E+02  0.31271188803E+02 -0.13679231364E+02  0.44583481204E+02  0.00000000000E+00 0.  1.
</event>
<event>
 7    1  0.2084210E-015  0.9000783E+02  0.7816164E-02  0.1186339E+00
        -11   -1    0    0    0    0  0.00000000000E+00  0.00000000000E+00  0.45593999997E+02  0.45594000000E+02  0.51100000000E-03 0. -1.
         11   -1    0    0    0    0 -0.00000000000E+00 -0.00000000000E+00 -0.45593999997E+02  0.45594000000E+02  0.51100000000E-03 0.  1.
    9900012    2    1    2    0    0  0.10433948872E+01  0.53025331241E+00  0.15149826308E+00  0.90007833406E+02  0.90000096007E+02 0.  0.
         12    1    1    2    0    0 -0.10433948872E+01 -0.53025331241E+00 -0.15149826308E+00  0.11801665941E+01  0.00000000000E+00 0. -1.
         11    1    3    3    0    0 -0.87541054707E+01 -0.60703403790E+01 -0.52574071496E+00  0.10665823853E+02  0.51100000000E-03 0. -1.
        -11    1    3    3    0    0 -0.16107174263E+02 -0.27628040295E+02 -0.12654779843E+02  0.34393213377E+02  0.51100000000E-03 0.  1.
         12    1    3    3    0    0  0.25904674621E+02  0.34228633987E+02  0.13332018821E+02  0.44948796175E+02  0.00000000000E+00 0. -1.
</event>
<event>
 7    1  0.2084210E-015  0.9000770E+02  0.7816164E-02  0.1186339E+00
        -11   -1    0    0    0    0  0.00000000000E+00  0.00000000000E+00  0.45593999997E+02  0.45594000000E+02  0.51100000000E-03 0.  1.
         11   -1    0    0    0    0 -0.00000000000E+00 -0.00000000000E+00 -0.45593999997E+02  0.45594000000E+02  0.51100000000E-03 0. -1.
    9900012    2    1    2    0    0 -0.74826914049E+00 -0.18101118079E-01  0.91262502666E+00  0.90007695465E+02  0.89999956245E+02 0.  0.
         12    1    1    2    0    0  0.74826914049E+00  0.18101118079E-01 -0.91262502666E+00  0.11803045354E+01  0.00000000000E+00 0. -1.
         11    1    3    3    0    0 -0.13457260477E+02 -0.90595373579E+01 -0.17620392130E+01  0.16318022525E+02  0.51100000000E-03 0. -1.
        -11    1    3    3    0    0  0.68836661494E+01 -0.18318262490E+02 -0.26715205027E+02  0.33115642531E+02  0.51100000000E-03 0.  1.
         12    1    3    3    0    0  0.58253251867E+01  0.27359698730E+02  0.29389869267E+02  0.40574030409E+02  0.00000000000E+00 0. -1.
</event>
<event>
 7    1  0.2084210E-015  0.9000774E+02  0.7816164E-02  0.1186339E+00
        -11   -1    0    0    0    0  0.00000000000E+00  0.00000000000E+00  0.45593999997E+02  0.45594000000E+02  0.51100000000E-03 0.  1.
         11   -1    0    0    0    0 -0.00000000000E+00 -0.00000000000E+00 -0.45593999997E+02  0.45594000000E+02  0.51100000000E-03 0. -1.
    9900012    2    1    2    0    0 -0.11749901813E+01  0.89296027681E-01  0.66547903353E-01  0.90007743956E+02  0.90000005376E+02 0.  0.
         12    1    1    2    0    0  0.11749901813E+01 -0.89296027681E-01 -0.66547903353E-01  0.11802560443E+01  0.00000000000E+00 0. -1.
         11    1    3    3    0    0  0.37313568214E+01 -0.70997628885E+01 -0.55620881311E+01  0.97604549812E+01  0.51100000000E-03 0. -1.
        -11    1    3    3    0    0 -0.29938497247E+02  0.43362413483E+01  0.31820417639E+02  0.43905074711E+02  0.51100000000E-03 0.  1.
         12    1    3    3    0    0  0.25032150244E+02  0.28528175679E+01 -0.26191781605E+02  0.36342214263E+02  0.00000000000E+00 0. -1.
</event>
<event>
 7    1  0.2084210E-015  0.9000777E+02  0.7816164E-02  0.1186339E+00
        -11   -1    0    0    0    0  0.00000000000E+00  0.00000000000E+00  0.45593999997E+02  0.45594000000E+02  0.51100000000E-03 0.  1.
         11   -1    0    0    0    0 -0.00000000000E+00 -0.00000000000E+00 -0.45593999997E+02  0.45594000000E+02  0.51100000000E-03 0. -1.
    9900012    2    1    2    0    0 -0.88561031021E+00 -0.74078051614E+00  0.24472473106E+00  0.90007766299E+02  0.90000028014E+02 0.  0.
         12    1    1    2    0    0  0.88561031021E+00  0.74078051614E+00 -0.24472473106E+00  0.11802337009E+01  0.00000000000E+00 0. -1.
         11    1    3    3    0    0 -0.21878947197E+02 -0.16212366360E+01 -0.51291987026E+01  0.22530544119E+02  0.51100000000E-03 0. -1.
        -11    1    3    3    0    0  0.16369433043E+02  0.61167136237E+01  0.33883479707E+02  0.38124306171E+02  0.51100000000E-03 0.  1.
         12    1    3    3    0    0  0.46239038442E+01 -0.52362575039E+01 -0.28509556273E+02  0.29352916010E+02  0.00000000000E+00 0. -1.
</event>
<event>
 7    1  0.2084210E-015  0.9000772E+02  0.7816164E-02  0.1186339E+00
        -11   -1    0    0    0    0  0.00000000000E+00  0.00000000000E+00  0.45593999997E+02  0.45594000000E+02  0.51100000000E-03 0. -1.
         11   -1    0    0    0    0 -0.00000000000E+00 -0.00000000000E+00 -0.45593999997E+02  0.45594000000E+02  0.51100000000E-03 0.  1.
    9900012    2    1    2    0    0 -0.10984888559E+01  0.35144955741E+00 -0.25075039704E+00  0.90007716000E+02  0.89999977052E+02 0.  0.
         12    1    1    2    0    0  0.10984888559E+01 -0.35144955741E+00  0.25075039704E+00  0.11802839995E+01  0.00000000000E+00 0. -1.
         11    1    3    3    0    0 -0.10486251192E+02  0.17043262493E+01 -0.17385408313E+02  0.20374459857E+02  0.51100000000E-03 0. -1.
        -11    1    3    3    0    0 -0.19488646783E+02  0.22236791817E+02  0.12337370442E+02  0.32038929031E+02  0.51100000000E-03 0.  1.
         12    1    3    3    0    0  0.28876409119E+02 -0.23589668509E+02  0.47972874733E+01  0.37594327113E+02  0.00000000000E+00 0. -1.
</event>
<event>
 7    1  0.2084210E-015  0.9000774E+02  0.7816164E-02  0.1186339E+00
        -11   -1    0    0    0    0  0.00000000000E+00  0.00000000000E+00  0.45593999997E+02  0.45594000000E+02  0.51100000000E-03 0. -1.
         11   -1    0    0    0    0 -0.00000000000E+00 -0.00000000000E+00 -0.45593999997E+02  0.45594000000E+02  0.51100000000E-03 0.  1.
    9900012    2    1    2    0    0 -0.44132869876E+00 -0.72886045555E+00 -0.81670745013E+00  0.90007737469E+02  0.89999998803E+02 0.  0.
         12    1    1    2    0    0  0.44132869876E+00  0.72886045555E+00  0.81670745013E+00  0.11802625314E+01  0.00000000000E+00 0. -1.
         11    1    3    3    0    0  0.45157331422E+00  0.40806574489E-01  0.60150498412E+01  0.60321147608E+01  0.51100000000E-03 0. -1.
        -11    1    3    3    0    0  0.14318221823E+02  0.26980676955E+02  0.24715322317E+02  0.39291418435E+02  0.51100000000E-03 0.  1.
         12    1    3    3    0    0 -0.15211123836E+02 -0.27750343985E+02 -0.31547079609E+02  0.44684204273E+02  0.00000000000E+00 0. -1.
</event>
<event>
 7    1  0.2084210E-015  0.9000784E+02  0.7816164E-02  0.1186339E+00
        -11   -1    0    0    0    0  0.00000000000E+00  0.00000000000E+00  0.45593999997E+02  0.45594000000E+02  0.51100000000E-03 0. -1.
         11   -1    0    0    0    0 -0.00000000000E+00 -0.00000000000E+00 -0.45593999997E+02  0.45594000000E+02  0.51100000000E-03 0.  1.
    9900012    2    1    2    0    0 -0.58656158085E+00 -0.21498556985E+00 -0.10012461559E+01  0.90007844439E+02  0.90000107186E+02 0.  0.
         12    1    1    2    0    0  0.58656158085E+00  0.21498556985E+00  0.10012461559E+01  0.11801555610E+01  0.00000000000E+00 0. -1.
         11    1    3    3    0    0 -0.29516828670E+01 -0.54699984278E+01  0.15145631052E+01  0.63974382536E+01  0.51100000000E-03 0. -1.
        -11    1    3    3    0    0 -0.27380879350E+02 -0.59394289306E+01 -0.30391196301E+02  0.41335386570E+02  0.51100000000E-03 0.  1.
         12    1    3    3    0    0  0.29746000637E+02  0.11194441789E+02  0.27875387040E+02  0.42275019615E+02  0.00000000000E+00 0. -1.
</event>
<event>
 7    1  0.2084210E-015  0.9000773E+02  0.7816164E-02  0.1186339E+00
        -11   -1    0    0    0    0  0.00000000000E+00  0.00000000000E+00  0.45593999997E+02  0.45594000000E+02  0.51100000000E-03 0. -1.
         11   -1    0    0    0    0 -0.00000000000E+00 -0.00000000000E+00 -0.45593999997E+02  0.45594000000E+02  0.51100000000E-03 0.  1.
    9900012    2    1    2    0    0  0.10775734157E+00 -0.67460810161E+00 -0.96245534176E+00  0.90007733920E+02  0.89999995207E+02 0.  0.
         12    1    1    2    0    0 -0.10775734157E+00  0.67460810161E+00  0.96245534176E+00  0.11802660803E+01  0.00000000000E+00 0. -1.
         11    1    3    3    0    0  0.89205639561E+01 -0.30882700174E+01  0.67551948840E+00  0.94641534136E+01  0.51100000000E-03 0. -1.
        -11    1    3    3    0    0  0.35684882860E+02  0.45314521179E+01 -0.12753534182E+01  0.35994047420E+02  0.51100000000E-03 0.  1.
         12    1    3    3    0    0 -0.44497689475E+02 -0.21177902021E+01 -0.36262141194E+00  0.44549533086E+02  0.00000000000E+00 0. -1.
</event>
<event>
 7    1  0.2084210E-015  0.9000775E+02  0.7816164E-02  0.1186339E+00
        -11   -1    0    0    0    0  0.00000000000E+00  0.00000000000E+00  0.45593999997E+02  0.45594000000E+02  0.51100000000E-03 0. -1.
         11   -1    0    0    0    0 -0.00000000000E+00 -0.00000000000E+00 -0.45593999997E+02  0.45594000000E+02  0.51100000000E-03 0.  1.
    9900012    2    1    2    0    0  0.69137656061E+00  0.68317978637E+00 -0.66951007156E+00  0.90007754303E+02  0.90000015860E+02 0.  0.
         12    1    1    2    0    0 -0.69137656061E+00 -0.68317978637E+00  0.66951007156E+00  0.11802456969E+01  0.00000000000E+00 0. -1.
         11    1    3    3    0    0 -0.52219101156E+01  0.59827286570E+01  0.10264710763E+01  0.80071861831E+01  0.51100000000E-03 0. -1.
        -11    1    3    3    0    0 -0.26013470653E+02  0.26346544882E+02 -0.12132545868E+01  0.37044744156E+02  0.51100000000E-03 0.  1.
         12    1    3    3    0    0  0.31926757329E+02 -0.31646093753E+02 -0.48272656105E+00  0.44955823964E+02  0.00000000000E+00 0. -1.
</event>
<event>
 7    1  0.2084210E-015  0.9000777E+02  0.7816164E-02  0.1186339E+00
        -11   -1    0    0    0    0  0.00000000000E+00  0.00000000000E+00  0.45593999997E+02  0.45594000000E+02  0.51100000000E-03 0. -1.
         11   -1    0    0    0    0 -0.00000000000E+00 -0.00000000000E+00 -0.45593999997E+02  0.45594000000E+02  0.51100000000E-03 0.  1.
    9900012    2    1    2    0    0  0.87363303931E+00 -0.14152764361E+00 -0.78081948667E+00  0.90007769585E+02  0.90000031344E+02 0.  0.
         12    1    1    2    0    0 -0.87363303931E+00  0.14152764361E+00  0.78081948667E+00  0.11802304148E+01  0.00000000000E+00 0. -1.
         11    1    3    3    0    0 -0.30105931571E+01  0.79490662809E-01  0.20524576110E+02  0.20744353803E+02  0.51100000000E-03 0. -1.
        -11    1    3    3    0    0 -0.29041813788E+02 -0.93008809504E+01 -0.16789204768E+02  0.34811071968E+02  0.51100000000E-03 0.  1.
         12    1    3    3    0    0  0.32926039985E+02  0.90798626440E+01 -0.45161908292E+01  0.34452343815E+02  0.00000000000E+00 0. -1.
</event>
<event>
 7    1  0.2084210E-015  0.9000772E+02  0.7816164E-02  0.1186339E+00
        -11   -1    0    0    0    0  0.00000000000E+00  0.00000000000E+00  0.45593999997E+02  0.45594000000E+02  0.51100000000E-03 0.  1.
         11   -1    0    0    0    0 -0.00000000000E+00 -0.00000000000E+00 -0.45593999997E+02  0.45594000000E+02  0.51100000000E-03 0. -1.
    9900012    2    1    2    0    0 -0.10437443441E+01 -0.49862360986E+00  0.23459683287E+00  0.90007718917E+02  0.89999980007E+02 0.  0.
         12    1    1    2    0    0  0.10437443441E+01  0.49862360986E+00 -0.23459683287E+00  0.11802810827E+01  0.00000000000E+00 0. -1.
         11    1    3    3    0    0  0.37784382834E-01  0.58973289359E+01  0.59293378964E+00  0.59271820436E+01  0.51100000000E-03 0. -1.
        -11    1    3    3    0    0  0.36996312421E+02  0.13232042521E+02 -0.91639237108E+01  0.40345899172E+02  0.51100000000E-03 0.  1.
         12    1    3    3    0    0 -0.38077841148E+02 -0.19627995066E+02  0.88055867540E+01  0.43734637701E+02  0.00000000000E+00 0. -1.
</event>
<event>
 7    1  0.2084210E-015  0.9000776E+02  0.7816164E-02  0.1186339E+00
        -11   -1    0    0    0    0  0.00000000000E+00  0.00000000000E+00  0.45593999997E+02  0.45594000000E+02  0.51100000000E-03 0.  1.
         11   -1    0    0    0    0 -0.00000000000E+00 -0.00000000000E+00 -0.45593999997E+02  0.45594000000E+02  0.51100000000E-03 0. -1.
    9900012    2    1    2    0    0  0.74542867244E+00 -0.74774219591E-02  0.91501746116E+00  0.90007755630E+02  0.90000017205E+02 0.  0.
         12    1    1    2    0    0 -0.74542867244E+00  0.74774219591E-02 -0.91501746116E+00  0.11802443695E+01  0.00000000000E+00 0. -1.
         11    1    3    3    0    0  0.96118479566E+01  0.96885980306E+00 -0.47964743947E+01  0.10785753443E+02  0.51100000000E-03 0. -1.
        -11    1    3    3    0    0  0.23873045283E+02 -0.27543754889E+02 -0.13365315095E+01  0.36474196924E+02  0.51100000000E-03 0.  1.
         12    1    3    3    0    0 -0.32739464567E+02  0.26567417664E+02  0.70480233654E+01  0.42747805264E+02  0.00000000000E+00 0. -1.
</event>
<event>
 7    1  0.2084210E-015  0.9000734E+02  0.7816164E-02  0.1186340E+00
        -11   -1    0    0    0    0  0.00000000000E+00  0.00000000000E+00  0.45593999997E+02  0.45594000000E+02  0.51100000000E-03 0. -1.
         11   -1    0    0    0    0 -0.00000000000E+00 -0.00000000000E+00 -0.45593999997E+02  0.45594000000E+02  0.51100000000E-03 0.  1.
    9900012    2    1    2    0    0  0.67580453161E+00 -0.18352062192E-01  0.96793924147E+00  0.90007341312E+02  0.89999597416E+02 0.  0.
         12    1    1    2    0    0 -0.67580453161E+00  0.18352062192E-01 -0.96793924147E+00  0.11806586883E+01  0.00000000000E+00 0. -1.
         11    1    3    3    0    0  0.41827093418E+01  0.39254499841E+01  0.56908856397E+01  0.80802471894E+01  0.51100000000E-03 0. -1.
        -11    1    3    3    0    0  0.10585682643E+02  0.29302061996E+02  0.21017825487E+02  0.37582130098E+02  0.51100000000E-03 0.  1.
         12    1    3    3    0    0 -0.14092587453E+02 -0.33245864042E+02 -0.25740771885E+02  0.44344964024E+02  0.00000000000E+00 0. -1.
</event>
<event>
 7    1  0.2084210E-015  0.9000782E+02  0.7816164E-02  0.1186339E+00
        -11   -1    0    0    0    0  0.00000000000E+00  0.00000000000E+00  0.45593999997E+02  0.45594000000E+02  0.51100000000E-03 0.  1.
         11   -1    0    0    0    0 -0.00000000000E+00 -0.00000000000E+00 -0.45593999997E+02  0.45594000000E+02  0.51100000000E-03 0. -1.
    9900012    2    1    2    0    0 -0.96884844963E+00  0.64778799326E+00  0.18582973347E+00  0.90007818110E+02  0.90000080509E+02 0.  0.
         12    1    1    2    0    0  0.96884844963E+00 -0.64778799326E+00 -0.18582973347E+00  0.11801818895E+01  0.00000000000E+00 0. -1.
         11    1    3    3    0    0  0.33380784972E+02  0.16058268161E+02  0.13306982531E+02  0.39360139304E+02  0.51100000000E-03 0. -1.
        -11    1    3    3    0    0  0.22629711022E+01  0.26578243678E+01  0.49023677952E+01  0.60181624139E+01  0.51100000000E-03 0.  1.
        -12    1    3    3    0    0 -0.36612604524E+02 -0.18068304535E+02 -0.18023520593E+02  0.44629516392E+02  0.00000000000E+00 0.  1.
</event>
<event>
 7    1  0.2084210E-015  0.9000775E+02  0.7816164E-02  0.1186339E+00
        -11   -1    0    0    0    0  0.00000000000E+00  0.00000000000E+00  0.45593999997E+02  0.45594000000E+02  0.51100000000E-03 0.  1.
         11   -1    0    0    0    0 -0.00000000000E+00 -0.00000000000E+00 -0.45593999997E+02  0.45594000000E+02  0.51100000000E-03 0. -1.
    9900012    2    1    2    0    0 -0.19108421893E+00 -0.55373241510E+00  0.10246227618E+01  0.90007752327E+02  0.90000013857E+02 0.  0.
         12    1    1    2    0    0  0.19108421893E+00  0.55373241510E+00 -0.10246227618E+01  0.11802476733E+01  0.00000000000E+00 0. -1.
         11    1    3    3    0    0 -0.10332092902E+01 -0.25533213002E+02 -0.24612296033E+02  0.35479255967E+02  0.51100000000E-03 0. -1.
        -11    1    3    3    0    0  0.28813244335E+01 -0.79275420812E+01 -0.47591104387E+01  0.96848895899E+01  0.51100000000E-03 0.  1.
        -12    1    3    3    0    0 -0.20391993623E+01  0.32907022669E+02  0.30396029234E+02  0.44843606770E+02  0.00000000000E+00 0.  1.
</event>
<event>
 7    1  0.2084210E-015  0.9000785E+02  0.7816164E-02  0.1186339E+00
        -11   -1    0    0    0    0  0.00000000000E+00  0.00000000000E+00  0.45593999997E+02  0.45594000000E+02  0.51100000000E-03 0. -1.
         11   -1    0    0    0    0 -0.00000000000E+00 -0.00000000000E+00 -0.45593999997E+02  0.45594000000E+02  0.51100000000E-03 0.  1.
    9900012    2    1    2    0    0  0.11040652460E+01 -0.29637824533E+00  0.29316492856E+00  0.90007853481E+02  0.90000116347E+02 0.  0.
         12    1    1    2    0    0 -0.11040652460E+01  0.29637824533E+00 -0.29316492856E+00  0.11801465193E+01  0.00000000000E+00 0. -1.
         11    1    3    3    0    0 -0.15751342738E+02 -0.36953664892E+02  0.12525458771E+02  0.42078085326E+02  0.51100000000E-03 0. -1.
        -11    1    3    3    0    0  0.11169730614E+01  0.17858447002E+01 -0.93260919423E+01  0.95610073366E+01  0.51100000000E-03 0.  1.
        -12    1    3    3    0    0  0.15738434923E+02  0.34871441946E+02 -0.29062018998E+01  0.38368760818E+02  0.00000000000E+00 0.  1.
</event>
<event>
 7    1  0.2084210E-015  0.9000772E+02  0.7816164E-02  0.1186339E+00
        -11   -1    0    0    0    0  0.00000000000E+00  0.00000000000E+00  0.45593999997E+02  0.45594000000E+02  0.51100000000E-03 0.  1.
         11   -1    0    0    0    0 -0.00000000000E+00 -0.00000000000E+00 -0.45593999997E+02  0.45594000000E+02  0.51100000000E-03 0. -1.
    9900012    2    1    2    0    0  0.11201867727E+01 -0.13868818153E+00 -0.34498976655E+00  0.90007715815E+02  0.89999976864E+02 0.  0.
         12    1    1    2    0    0 -0.11201867727E+01  0.13868818153E+00  0.34498976655E+00  0.11802841846E+01  0.00000000000E+00 0. -1.
         11    1    3    3    0    0 -0.10168084973E+01 -0.72090840993E+01  0.64328961240E+01  0.97152944307E+01  0.51100000000E-03 0. -1.
        -11    1    3    3    0    0 -0.27581999408E+02 -0.13322937340E+02  0.18940851565E+02  0.36014208432E+02  0.51100000000E-03 0.  1.
         12    1    3    3    0    0  0.29718994678E+02  0.20393333258E+02 -0.25718737455E+02  0.44278212953E+02  0.00000000000E+00 0. -1.
</event>
<event>
 7    1  0.2084210E-015  0.9000773E+02  0.7816164E-02  0.1186339E+00
        -11   -1    0    0    0    0  0.00000000000E+00  0.00000000000E+00  0.45593999997E+02  0.45594000000E+02  0.51100000000E-03 0.  1.
         11   -1    0    0    0    0 -0.00000000000E+00 -0.00000000000E+00 -0.45593999997E+02  0.45594000000E+02  0.51100000000E-03 0. -1.
    9900012    2    1    2    0    0 -0.90771323559E+00 -0.32985301947E+00  0.67845041423E+00  0.90007728295E+02  0.89999989509E+02 0.  0.
         12    1    1    2    0    0  0.90771323559E+00  0.32985301947E+00 -0.67845041423E+00  0.11802717048E+01  0.00000000000E+00 0. -1.
         11    1    3    3    0    0 -0.42563962186E+02 -0.27613147153E+01 -0.38729191725E+01  0.42828906583E+02  0.51100000000E-03 0. -1.
        -11    1    3    3    0    0  0.64575853814E+01 -0.53693585868E+01 -0.51399025509E+01  0.98462692979E+01  0.51100000000E-03 0.  1.
        -12    1    3    3    0    0  0.35198663569E+02  0.78008202827E+01  0.96912721376E+01  0.37332552414E+02  0.00000000000E+00 0.  1.
</event>
<event>
 7    1  0.2084210E-015  0.9000770E+02  0.7816164E-02  0.1186339E+00
        -11   -1    0    0    0    0  0.00000000000E+00  0.00000000000E+00  0.45593999997E+02  0.45594000000E+02  0.51100000000E-03 0. -1.
         11   -1    0    0    0    0 -0.00000000000E+00 -0.00000000000E+00 -0.45593999997E+02  0.45594000000E+02  0.51100000000E-03 0.  1.
    9900012    2    1    2    0    0 -0.10799843963E+01 -0.27598502303E+00 -0.38802564780E+00  0.90007704303E+02  0.89999965200E+02 0.  0.
         12    1    1    2    0    0  0.10799843963E+01  0.27598502303E+00  0.38802564780E+00  0.11802956970E+01  0.00000000000E+00 0. -1.
         11    1    3    3    0    0 -0.27861193564E+02 -0.15094318978E+02  0.87956576502E+01  0.32885379213E+02  0.51100000000E-03 0. -1.
        -11    1    3    3    0    0 -0.10353610083E+02  0.15978141626E+02 -0.92075762176E+00  0.19061638084E+02  0.51100000000E-03 0.  1.
        -12    1    3    3    0    0  0.37134819251E+02 -0.11598076714E+01 -0.82629256762E+01  0.38060687006E+02  0.00000000000E+00 0.  1.
</event>
<event>
 7    1  0.2084210E-015  0.9000760E+02  0.7816164E-02  0.1186339E+00
        -11   -1    0    0    0    0  0.00000000000E+00  0.00000000000E+00  0.45593999997E+02  0.45594000000E+02  0.51100000000E-03 0.  1.
         11   -1    0    0    0    0 -0.00000000000E+00 -0.00000000000E+00 -0.45593999997E+02  0.45594000000E+02  0.51100000000E-03 0. -1.
    9900012    2    1    2    0    0  0.46238498459E+00  0.57925084152E+00  0.91870200478E+00  0.90007599735E+02  0.89999859252E+02 0.  0.
         12    1    1    2    0    0 -0.46238498459E+00 -0.57925084152E+00 -0.91870200478E+00  0.11804002647E+01  0.00000000000E+00 0. -1.
         11    1    3    3    0    0 -0.23005699229E+00 -0.27468463847E+02 -0.29520895722E+02  0.40324343972E+02  0.51100000000E-03 0. -1.
        -11    1    3    3    0    0 -0.25498761949E+01 -0.43464507923E+01  0.10123324156E+02  0.11308191514E+02  0.51100000000E-03 0.  1.
        -12    1    3    3    0    0  0.32423181718E+01  0.32394165480E+02  0.20316273571E+02  0.38375064249E+02  0.00000000000E+00 0.  1.
</event>
<event>
 7    1  0.2084210E-015  0.9000764E+02  0.7816164E-02  0.1186339E+00
        -11   -1    0    0    0    0  0.00000000000E+00  0.00000000000E+00  0.45593999997E+02  0.45594000000E+02  0.51100000000E-03 0.  1.
         11   -1    0    0    0    0 -0.00000000000E+00 -0.00000000000E+00 -0.45593999997E+02  0.45594000000E+02  0.51100000000E-03 0. -1.
    9900012    2    1    2    0    0 -0.88287915863E-01 -0.10137135954E+01  0.59820349699E+00  0.90007636737E+02  0.89999896742E+02 0.  0.
         12    1    1    2    0    0  0.88287915863E-01  0.10137135954E+01 -0.59820349699E+00  0.11803632633E+01  0.00000000000E+00 0. -1.
         11    1    3    3    0    0  0.25745237391E+01 -0.49816896204E+01  0.58839758874E+01  0.81281348698E+01  0.51100000000E-03 0. -1.
        -11    1    3    3    0    0 -0.23799437660E+02 -0.30497985962E+02 -0.12817032490E+02  0.40753118933E+02  0.51100000000E-03 0.  1.
         12    1    3    3    0    0  0.21136626005E+02  0.34465961987E+02  0.75312600997E+01  0.41126382934E+02  0.00000000000E+00 0. -1.
</event>
<event>
 7    1  0.2084210E-015  0.9000800E+02  0.7816164E-02  0.1186339E+00
        -11   -1    0    0    0    0  0.00000000000E+00  0.00000000000E+00  0.45593999997E+02  0.45594000000E+02  0.51100000000E-03 0.  1.
         11   -1    0    0    0    0 -0.00000000000E+00 -0.00000000000E+00 -0.45593999997E+02  0.45594000000E+02  0.51100000000E-03 0. -1.
    9900012    2    1    2    0    0  0.10124214543E+01  0.60183370855E+00 -0.72085266940E-01  0.90008001144E+02  0.90000265959E+02 0.  0.
         12    1    1    2    0    0 -0.10124214543E+01 -0.60183370855E+00  0.72085266940E-01  0.11799988558E+01  0.00000000000E+00 0. -1.
         11    1    3    3    0    0 -0.94232586355E+01  0.20567621338E+02 -0.30743101970E+02  0.38170186924E+02  0.51100000000E-03 0. -1.
        -11    1    3    3    0    0  0.44405701434E+01 -0.64500543398E+01 -0.75370069145E+01  0.10868686106E+02  0.51100000000E-03 0.  1.
        -12    1    3    3    0    0  0.59951099463E+01 -0.13515733290E+02  0.38208023618E+02  0.40969128114E+02  0.00000000000E+00 0.  1.
</event>
<event>
 7    1  0.2084210E-015  0.9000768E+02  0.7816164E-02  0.1186339E+00
        -11   -1    0    0    0    0  0.00000000000E+00  0.00000000000E+00  0.45593999997E+02  0.45594000000E+02  0.51100000000E-03 0.  1.
         11   -1    0    0    0    0 -0.00000000000E+00 -0.00000000000E+00 -0.45593999997E+02  0.45594000000E+02  0.51100000000E-03 0. -1.
    9900012    2    1    2    0    0  0.58042489643E-02  0.73028725698E+00  0.92725480127E+00  0.90007680283E+02  0.89999940863E+02 0.  0.
         12    1    1    2    0    0 -0.58042489643E-02 -0.73028725698E+00 -0.92725480127E+00  0.11803197166E+01  0.00000000000E+00 0. -1.
         11    1    3    3    0    0  0.25686768548E+02 -0.23260963180E+02 -0.48736305906E+01  0.34994781924E+02  0.51100000000E-03 0. -1.
        -11    1    3    3    0    0 -0.29738533457E+01 -0.11658910147E+02  0.40984340753E+01  0.12711064144E+02  0.51100000000E-03 0.  1.
        -12    1    3    3    0    0 -0.22707110954E+02  0.35650160584E+02  0.17024513166E+01  0.42301834216E+02  0.00000000000E+00 0.  1.
</event>
<event>
 7    1  0.2084210E-015  0.9000780E+02  0.7816164E-02  0.1186339E+00
        -11   -1    0    0    0    0  0.00000000000E+00  0.00000000000E+00  0.45593999997E+02  0.45594000000E+02  0.51100000000E-03 0.  1.
         11   -1    0    0    0    0 -0.00000000000E+00 -0.00000000000E+00 -0.45593999997E+02  0.45594000000E+02  0.51100000000E-03 0. -1.
    9900012    2    1    2    0    0  0.60479718090E+00 -0.21246590197E+00  0.99093838882E+00  0.90007796509E+02  0.90000058623E+02 0.  0.
         12    1    1    2    0    0 -0.60479718090E+00  0.21246590197E+00 -0.99093838882E+00  0.11802034909E+01  0.00000000000E+00 0. -1.
         11    1    3    3    0    0 -0.37957130192E+01  0.88079236653E+01 -0.71978893632E-01  0.95912531944E+01  0.51100000000E-03 0. -1.
        -11    1    3    3    0    0 -0.13122798025E+02  0.26827448771E+02 -0.19360972498E+02  0.35591671665E+02  0.51100000000E-03 0.  1.
         12    1    3    3    0    0  0.17523308225E+02 -0.35847838338E+02  0.20423889781E+02  0.44824871650E+02  0.00000000000E+00 0. -1.
</event>
<event>
 7    1  0.2084210E-015  0.9000802E+02  0.7816164E-02  0.1186338E+00
        -11   -1    0    0    0    0  0.00000000000E+00  0.00000000000E+00  0.45593999997E+02  0.45594000000E+02  0.51100000000E-03 0.  1.
         11   -1    0    0    0    0 -0.00000000000E+00 -0.00000000000E+00 -0.45593999997E+02  0.45594000000E+02  0.51100000000E-03 0. -1.
    9900012    2    1    2    0    0  0.39522278617E+00 -0.94894426317E+00  0.57936132401E+00  0.90008018725E+02  0.90000283772E+02 0.  0.
         12    1    1    2    0    0 -0.39522278617E+00  0.94894426317E+00 -0.57936132401E+00  0.11799812749E+01  0.00000000000E+00 0. -1.
         11    1    3    3    0    0  0.27464459423E+02  0.12539502067E+02  0.20956892595E+02  0.36752237904E+02  0.51100000000E-03 0. -1.
        -11    1    3    3    0    0  0.71368778225E+01  0.38981613127E+01  0.25917421033E+01  0.85350930906E+01  0.51100000000E-03 0.  1.
        -12    1    3    3    0    0 -0.34206114459E+02 -0.17386607643E+02 -0.22969273374E+02  0.44720687730E+02  0.00000000000E+00 0.  1.
</event>
<event>
 7    1  0.2084210E-015  0.9000767E+02  0.7816164E-02  0.1186339E+00
        -11   -1    0    0    0    0  0.00000000000E+00  0.00000000000E+00  0.45593999997E+02  0.45594000000E+02  0.51100000000E-03 0.  1.
         11   -1    0    0    0    0 -0.00000000000E+00 -0.00000000000E+00 -0.45593999997E+02  0.45594000000E+02  0.51100000000E-03 0. -1.
    9900012    2    1    2    0    0  0.62349413893E+00  0.48262132843E+00  0.87835290635E+00  0.90007672878E+02  0.89999933359E+02 0.  0.
         12    1    1    2    0    0 -0.62349413893E+00 -0.48262132843E+00 -0.87835290635E+00  0.11803271225E+01  0.00000000000E+00 0. -1.
         11    1    3    3    0    0  0.36676603897E+02  0.96279765181E+01 -0.89990588923E+01  0.38972480886E+02  0.51100000000E-03 0. -1.
        -11    1    3    3    0    0 -0.13612604949E+01  0.87398540672E+00 -0.97859667075E+01  0.99187713598E+01  0.51100000000E-03 0.  1.
        -12    1    3    3    0    0 -0.34691849263E+02 -0.10019340596E+02  0.19663378506E+02  0.41116420631E+02  0.00000000000E+00 0.  1.
</event>
<event>
 7    1  0.2084210E-015  0.9000783E+02  0.7816164E-02  0.1186339E+00
        -11   -1    0    0    0    0  0.00000000000E+00  0.00000000000E+00  0.45593999997E+02  0.45594000000E+02  0.51100000000E-03 0. -1.
         11   -1    0    0    0    0 -0.00000000000E+00 -0.00000000000E+00 -0.45593999997E+02  0.45594000000E+02  0.51100000000E-03 0.  1.
    9900012    2    1    2    0    0  0.28691677706E+00 -0.21326657904E+00 -0.11247205423E+01  0.90007830449E+02  0.90000093011E+02 0.  0.
         12    1    1    2    0    0 -0.28691677706E+00  0.21326657904E+00  0.11247205423E+01  0.11801695509E+01  0.00000000000E+00 0. -1.
         11    1    3    3    0    0 -0.99756513935E+01  0.25838655037E+00  0.24719922242E+01  0.10280619152E+02  0.51100000000E-03 0. -1.
        -11    1    3    3    0    0 -0.10643479827E+02 -0.36070011459E+02  0.37546911350E+01  0.37794537903E+02  0.51100000000E-03 0.  1.
         12    1    3    3    0    0  0.20906047997E+02  0.35598358330E+02 -0.73514039015E+01  0.41932673394E+02  0.00000000000E+00 0. -1.
</event>
<event>
 7    1  0.2084210E-015  0.9000774E+02  0.7816164E-02  0.1186339E+00
        -11   -1    0    0    0    0  0.00000000000E+00  0.00000000000E+00  0.45593999997E+02  0.45594000000E+02  0.51100000000E-03 0. -1.
         11   -1    0    0    0    0 -0.00000000000E+00 -0.00000000000E+00 -0.45593999997E+02  0.45594000000E+02  0.51100000000E-03 0.  1.
    9900012    2    1    2    0    0  0.10177916084E+01  0.40038115061E-01 -0.59624070458E+00  0.90007743339E+02  0.90000004751E+02 0.  0.
         12    1    1    2    0    0 -0.10177916084E+01 -0.40038115061E-01  0.59624070458E+00  0.11802566613E+01  0.00000000000E+00 0. -1.
         11    1    3    3    0    0  0.49622638251E+01 -0.61657720012E+01 -0.81390026444E+01  0.11352716457E+02  0.51100000000E-03 0. -1.
        -11    1    3    3    0    0  0.26564570186E+01  0.12648518356E+02 -0.33857078515E+02  0.36240082041E+02  0.51100000000E-03 0.  1.
         12    1    3    3    0    0 -0.66009292354E+01 -0.64427082397E+01  0.41399840455E+02  0.42414944841E+02  0.00000000000E+00 0. -1.
</event>
<event>
 7    1  0.2084210E-015  0.9000764E+02  0.7816164E-02  0.1186339E+00
        -11   -1    0    0    0    0  0.00000000000E+00  0.00000000000E+00  0.45593999997E+02  0.45594000000E+02  0.51100000000E-03 0. -1.
         11   -1    0    0    0    0 -0.00000000000E+00 -0.00000000000E+00 -0.45593999997E+02  0.45594000000E+02  0.51100000000E-03 0.  1.
    9900012    2    1    2    0    0 -0.71230308742E+00  0.49289367265E+00 -0.80182690122E+00  0.90007641478E+02  0.89999901545E+02 0.  0.
         12    1    1    2    0    0  0.71230308742E+00 -0.49289367265E+00  0.80182690122E+00  0.11803585220E+01  0.00000000000E+00 0. -1.
         11    1    3    3    0    0  0.18393067915E+01 -0.37707278249E+01 -0.93958168561E+01  0.10289937437E+02  0.51100000000E-03 0. -1.
        -11    1    3    3    0    0 -0.20236969936E+02  0.47680976028E+01 -0.30439107320E+02  0.36862026011E+02  0.51100000000E-03 0.  1.
         12    1    3    3    0    0  0.17685360057E+02 -0.50447610527E+00  0.39033097275E+02  0.42855678030E+02  0.00000000000E+00 0. -1.
</event>
<event>
 7    1  0.2084210E-015  0.9000783E+02  0.7816164E-02  0.1186339E+00
        -11   -1    0    0    0    0  0.00000000000E+00  0.00000000000E+00  0.45593999997E+02  0.45594000000E+02  0.51100000000E-03 0.  1.
         11   -1    0    0    0    0 -0.00000000000E+00 -0.00000000000E+00 -0.45593999997E+02  0.45594000000E+02  0.51100000000E-03 0. -1.
    9900012    2    1    2    0    0 -0.30754087241E+00  0.90296447701E+00 -0.69489697567E+00  0.90007827114E+02  0.90000089631E+02 0.  0.
         12    1    1    2    0    0  0.30754087241E+00 -0.90296447701E+00  0.69489697567E+00  0.11801728864E+01  0.00000000000E+00 0. -1.
         11    1    3    3    0    0 -0.11378039732E+02  0.34747342439E+02  0.29364651963E+01  0.36680518301E+02  0.51100000000E-03 0. -1.
        -11    1    3    3    0    0 -0.38988169145E+01  0.64930259421E+01 -0.68093736665E+01  0.10184681105E+02  0.51100000000E-03 0.  1.
        -12    1    3    3    0    0  0.14969315774E+02 -0.40337403904E+02  0.31780114945E+01  0.43142627708E+02  0.00000000000E+00 0.  1.
</event>
<event>
 7    1  0.2084210E-015  0.9000795E+02  0.7816164E-02  0.1186339E+00
        -11   -1    0    0    0    0  0.00000000000E+00  0.00000000000E+00  0.45593999997E+02  0.45594000000E+02  0.51100000000E-03 0. -1.
         11   -1    0    0    0    0 -0.00000000000E+00 -0.00000000000E+00 -0.45593999997E+02  0.45594000000E+02  0.51100000000E-03 0.  1.
    9900012    2    1    2    0    0 -0.63964518734E+00  0.73757815049E+00 -0.66284230125E+00  0.90007946014E+02  0.90000210101E+02 0.  0.
         12    1    1    2    0    0  0.63964518734E+00 -0.73757815049E+00  0.66284230125E+00  0.11800539861E+01  0.00000000000E+00 0. -1.
         11    1    3    3    0    0  0.27522562186E+00  0.76896083243E+01 -0.70086426964E+01  0.10408020851E+02  0.51100000000E-03 0. -1.
        -11    1    3    3    0    0  0.29265713555E+02  0.13524612921E+02 -0.16849718808E+02  0.36377330423E+02  0.51100000000E-03 0.  1.
         12    1    3    3    0    0 -0.30180584364E+02 -0.20476643094E+02  0.23195519203E+02  0.43222594740E+02  0.00000000000E+00 0. -1.
</event>
<event>
 7    1  0.2084210E-015  0.9000767E+02  0.7816164E-02  0.1186339E+00
        -11   -1    0    0    0    0  0.00000000000E+00  0.00000000000E+00  0.45593999997E+02  0.45594000000E+02  0.51100000000E-03 0. -1.
         11   -1    0    0    0    0 -0.00000000000E+00 -0.00000000000E+00 -0.45593999997E+02  0.45594000000E+02  0.51100000000E-03 0.  1.
    9900012    2    1    2    0    0 -0.48860069710E+00 -0.17975579809E+00 -0.10593091618E+01  0.90007670093E+02  0.89999930539E+02 0.  0.
         12    1    1    2    0    0  0.48860069710E+00  0.17975579809E+00  0.10593091618E+01  0.11803299066E+01  0.00000000000E+00 0. -1.
         11    1    3    3    0    0 -0.51141845564E+01  0.23480566580E+01  0.34623496759E+02  0.35077838899E+02  0.51100000000E-03 0. -1.
        -11    1    3    3    0    0  0.60968040537E+01 -0.88455535517E+01  0.62964752990E+01  0.12452326640E+02  0.51100000000E-03 0.  1.
        -12    1    3    3    0    0 -0.14712201944E+01  0.63177410956E+01 -0.41979281220E+02  0.42477504554E+02  0.00000000000E+00 0.  1.
</event>
<event>
 7    1  0.2084210E-015  0.9000789E+02  0.7816164E-02  0.1186339E+00
        -11   -1    0    0    0    0  0.00000000000E+00  0.00000000000E+00  0.45593999997E+02  0.45594000000E+02  0.51100000000E-03 0. -1.
         11   -1    0    0    0    0 -0.00000000000E+00 -0.00000000000E+00 -0.45593999997E+02  0.45594000000E+02  0.51100000000E-03 0.  1.
    9900012    2    1    2    0    0  0.41409568212E+00 -0.89257828947E+00  0.65152085436E+00  0.90007893793E+02  0.90000157191E+02 0.  0.
         12    1    1    2    0    0 -0.41409568212E+00  0.89257828947E+00 -0.65152085436E+00  0.11801062073E+01  0.00000000000E+00 0. -1.
         11    1    3    3    0    0  0.36241595438E+01 -0.87579101635E+01 -0.19027106736E+01  0.96672556084E+01  0.51100000000E-03 0. -1.
        -11    1    3    3    0    0 -0.33608219575E+02 -0.97629409724E+01 -0.18284983645E+02  0.39486302266E+02  0.51100000000E-03 0.  1.
         12    1    3    3    0    0  0.30398155713E+02  0.17628272846E+02  0.20839215173E+02  0.40854335919E+02  0.00000000000E+00 0. -1.
</event>
<event>
 7    1  0.2084210E-015  0.9000781E+02  0.7816164E-02  0.1186339E+00
        -11   -1    0    0    0    0  0.00000000000E+00  0.00000000000E+00  0.45593999997E+02  0.45594000000E+02  0.51100000000E-03 0.  1.
         11   -1    0    0    0    0 -0.00000000000E+00 -0.00000000000E+00 -0.45593999997E+02  0.45594000000E+02  0.51100000000E-03 0. -1.
    9900012    2    1    2    0    0 -0.64315822077E+00 -0.94933327254E+00  0.27922905766E+00  0.90007807208E+02  0.90000069463E+02 0.  0.
         12    1    1    2    0    0  0.64315822077E+00  0.94933327254E+00 -0.27922905766E+00  0.11801927919E+01  0.00000000000E+00 0. -1.
         11    1    3    3    0    0 -0.38355742145E+01  0.37687186687E+01  0.62102299374E+01  0.82147322595E+01  0.51100000000E-03 0. -1.
        -11    1    3    3    0    0 -0.64978972072E+01  0.36576411829E+02  0.62301963782E+01  0.37667916289E+02  0.51100000000E-03 0.  1.
         12    1    3    3    0    0  0.96903132010E+01 -0.41294463770E+02 -0.12161197258E+02  0.44125158660E+02  0.00000000000E+00 0. -1.
</event>
<event>
 7    1  0.2084210E-015  0.9000773E+02  0.7816164E-02  0.1186339E+00
        -11   -1    0    0    0    0  0.00000000000E+00  0.00000000000E+00  0.45593999997E+02  0.45594000000E+02  0.51100000000E-03 0.  1.
         11   -1    0    0    0    0 -0.00000000000E+00 -0.00000000000E+00 -0.45593999997E+02  0.45594000000E+02  0.51100000000E-03 0. -1.
    9900012    2    1    2    0    0  0.89170358499E+00  0.61699010569E+00  0.46606728263E+00  0.90007732748E+02  0.89999994020E+02 0.  0.
         12    1    1    2    0    0 -0.89170358499E+00 -0.61699010569E+00 -0.46606728263E+00  0.11802672519E+01  0.00000000000E+00 0. -1.
         11    1    3    3    0    0  0.32856762953E+02  0.89362483816E+01 -0.15149487195E+02  0.37268356141E+02  0.51100000000E-03 0. -1.
        -11    1    3    3    0    0  0.67378587673E+01  0.47470839115E+01 -0.16254575811E+01  0.84009320340E+01  0.51100000000E-03 0.  1.
        -12    1    3    3    0    0 -0.38702918136E+02 -0.13066342187E+02  0.17241012059E+02  0.44338444573E+02  0.00000000000E+00 0.  1.
</event>
<event>
 7    1  0.2084210E-015  0.9000767E+02  0.7816164E-02  0.1186339E+00
        -11   -1    0    0    0    0  0.00000000000E+00  0.00000000000E+00  0.45593999997E+02  0.45594000000E+02  0.51100000000E-03 0. -1.
         11   -1    0    0    0    0 -0.00000000000E+00 -0.00000000000E+00 -0.45593999997E+02  0.45594000000E+02  0.51100000000E-03 0.  1.
    9900012    2    1    2    0    0  0.40734991291E+00  0.10695622181E+01  0.28857505323E+00  0.90007672566E+02  0.89999933044E+02 0.  0.
         12    1    1    2    0    0 -0.40734991291E+00 -0.10695622181E+01 -0.28857505323E+00  0.11803274339E+01  0.00000000000E+00 0. -1.
         11    1    3    3    0    0 -0.11891307903E+01  0.38641856228E+01  0.14368904267E+02  0.14926867477E+02  0.51100000000E-03 0. -1.
        -11    1    3    3    0    0  0.33208452055E+02 -0.10585040058E+02  0.79757561630E+01  0.35755517722E+02  0.51100000000E-03 0.  1.
         12    1    3    3    0    0 -0.31611971352E+02  0.77904166532E+01 -0.22056085377E+02  0.39325287368E+02  0.00000000000E+00 0. -1.
</event>
<event>
 7    1  0.2084210E-015  0.9000764E+02  0.7816164E-02  0.1186339E+00
        -11   -1    0    0    0    0  0.00000000000E+00  0.00000000000E+00  0.45593999997E+02  0.45594000000E+02  0.51100000000E-03 0.  1.
         11   -1    0    0    0    0 -0.00000000000E+00 -0.00000000000E+00 -0.45593999997E+02  0.45594000000E+02  0.51100000000E-03 0. -1.
    9900012    2    1    2    0    0 -0.75980099018E-01  0.10556610756E+01 -0.52254047529E+00  0.90007643346E+02  0.89999903438E+02 0.  0.
         12    1    1    2    0    0  0.75980099018E-01 -0.10556610756E+01  0.52254047529E+00  0.11803566539E+01  0.00000000000E+00 0. -1.
         11    1    3    3    0    0  0.13298132833E+02  0.64679428693E+01 -0.98802546165E+01  0.17784657808E+02  0.51100000000E-03 0. -1.
        -11    1    3    3    0    0 -0.27812052136E+02  0.25034483004E+02  0.67534961506E+00  0.37425815698E+02  0.51100000000E-03 0.  1.
         12    1    3    3    0    0  0.14437939204E+02 -0.30446764798E+02  0.86823645262E+01  0.34797169840E+02  0.00000000000E+00 0. -1.
</event>
<event>
 7    1  0.2084210E-015  0.9000775E+02  0.7816164E-02  0.1186339E+00
        -11   -1    0    0    0    0  0.00000000000E+00  0.00000000000E+00  0.45593999997E+02  0.45594000000E+02  0.51100000000E-03 0. -1.
         11   -1    0    0    0    0 -0.00000000000E+00 -0.00000000000E+00 -0.45593999997E+02  0.45594000000E+02  0.51100000000E-03 0.  1.
    9900012    2    1    2    0    0 -0.92846100539E+00 -0.68494294676E+00  0.24860548352E+00  0.90007749448E+02  0.90000010941E+02 0.  0.
         12    1    1    2    0    0  0.92846100539E+00  0.68494294676E+00 -0.24860548352E+00  0.11802505519E+01  0.00000000000E+00 0. -1.
         11    1    3    3    0    0  0.28178222911E+01 -0.17709553023E+01  0.77910908992E+01  0.84721604569E+01  0.51100000000E-03 0. -1.
        -11    1    3    3    0    0  0.36259474643E+02 -0.13163118706E+02 -0.60111059636E+01  0.39040371292E+02  0.51100000000E-03 0.  1.
         12    1    3    3    0    0 -0.40005757939E+02  0.14249131062E+02 -0.15313794521E+01  0.42495217699E+02  0.00000000000E+00 0. -1.
</event>
<event>
 7    1  0.2084210E-015  0.9000779E+02  0.7816164E-02  0.1186339E+00
        -11   -1    0    0    0    0  0.00000000000E+00  0.00000000000E+00  0.45593999997E+02  0.45594000000E+02  0.51100000000E-03 0. -1.
         11   -1    0    0    0    0 -0.00000000000E+00 -0.00000000000E+00 -0.45593999997E+02  0.45594000000E+02  0.51100000000E-03 0.  1.
    9900012    2    1    2    0    0 -0.33330946120E+00  0.88703000650E-01 -0.11286888713E+01  0.90007787313E+02  0.90000049305E+02 0.  0.
         12    1    1    2    0    0  0.33330946120E+00 -0.88703000650E-01  0.11286888713E+01  0.11802126873E+01  0.00000000000E+00 0. -1.
         11    1    3    3    0    0  0.24222460425E+02 -0.58696049082E+01  0.63637342699E+01  0.25723082337E+02  0.51100000000E-03 0. -1.
        -11    1    3    3    0    0 -0.64057684946E+00  0.47090111653E+01  0.24143561950E+02  0.24606842722E+02  0.51100000000E-03 0.  1.
        -12    1    3    3    0    0 -0.23915193036E+02  0.12492967436E+01 -0.31635985091E+02  0.39677862253E+02  0.00000000000E+00 0.  1.
</event>
<event>
 7    1  0.2084210E-015  0.9000770E+02  0.7816164E-02  0.1186339E+00
        -11   -1    0    0    0    0  0.00000000000E+00  0.00000000000E+00  0.45593999997E+02  0.45594000000E+02  0.51100000000E-03 0.  1.
         11   -1    0    0    0    0 -0.00000000000E+00 -0.00000000000E+00 -0.45593999997E+02  0.45594000000E+02  0.51100000000E-03 0. -1.
    9900012    2    1    2    0    0 -0.16174523793E+00  0.10985464254E+01  0.40018804678E+00  0.90007696546E+02  0.89999957340E+02 0.  0.
         12    1    1    2    0    0  0.16174523793E+00 -0.10985464254E+01 -0.40018804678E+00  0.11803034540E+01  0.00000000000E+00 0. -1.
         11    1    3    3    0    0  0.15795976608E+02 -0.31922401471E+02 -0.22949941249E+02  0.42370418883E+02  0.51100000000E-03 0. -1.
        -11    1    3    3    0    0 -0.71304434262E+01 -0.13286795023E+00  0.51764981953E+01  0.88123215541E+01  0.51100000000E-03 0.  1.
        -12    1    3    3    0    0 -0.88272784195E+01  0.33153815847E+02  0.18173631100E+02  0.38824956109E+02  0.00000000000E+00 0.  1.
</event>
<event>
 7    1  0.2084210E-015  0.9000755E+02  0.7816164E-02  0.1186339E+00
        -11   -1    0    0    0    0  0.00000000000E+00  0.00000000000E+00  0.45593999997E+02  0.45594000000E+02  0.51100000000E-03 0.  1.
         11   -1    0    0    0    0 -0.00000000000E+00 -0.00000000000E+00 -0.45593999997E+02  0.45594000000E+02  0.51100000000E-03 0. -1.
    9900012    2    1    2    0    0  0.12936728336E+00  0.11726429551E+01 -0.40459550729E-01  0.90007549082E+02  0.89999807930E+02 0.  0.
         12    1    1    2    0    0 -0.12936728336E+00 -0.11726429551E+01  0.40459550729E-01  0.11804509178E+01  0.00000000000E+00 0. -1.
         11    1    3    3    0    0 -0.17011689877E+01 -0.72839427496E+01  0.98528841413E+00  0.75445736410E+01  0.51100000000E-03 0. -1.
        -11    1    3    3    0    0 -0.21078312947E+02  0.95966097001E+01 -0.34699971479E+02  0.41719039003E+02  0.51100000000E-03 0.  1.
         12    1    3    3    0    0  0.22908849219E+02 -0.11400239954E+01  0.33674223514E+02  0.40743936438E+02  0.00000000000E+00 0. -1.
</event>
<event>
 7    1  0.2084210E-015  0.9000760E+02  0.7816164E-02  0.1186339E+00
        -11   -1    0    0    0    0  0.00000000000E+00  0.00000000000E+00  0.45593999997E+02  0.45594000000E+02  0.51100000000E-03 0.  1.
         11   -1    0    0    0    0 -0.00000000000E+00 -0.00000000000E+00 -0.45593999997E+02  0.45594000000E+02  0.51100000000E-03 0. -1.
    9900012    2    1    2    0    0  0.34719757622E+00  0.10495035263E+01 -0.41391958060E+00  0.90007604631E+02  0.89999864212E+02 0.  0.
         12    1    1    2    0    0 -0.34719757622E+00 -0.10495035263E+01  0.41391958060E+00  0.11803953693E+01  0.00000000000E+00 0. -1.
         11    1    3    3    0    0 -0.33076275911E+02  0.18672231718E+02 -0.89660787221E+01  0.39026693857E+02  0.51100000000E-03 0. -1.
        -11    1    3    3    0    0 -0.50921159853E+01 -0.40606529866E+01 -0.47212419631E+01  0.80441701760E+01  0.51100000000E-03 0.  1.
        -12    1    3    3    0    0  0.38515589473E+02 -0.13562075205E+02  0.13273401105E+02  0.42936740598E+02  0.00000000000E+00 0.  1.
</event>
<event>
 7    1  0.2084210E-015  0.9000779E+02  0.7816164E-02  0.1186339E+00
        -11   -1    0    0    0    0  0.00000000000E+00  0.00000000000E+00  0.45593999997E+02  0.45594000000E+02  0.51100000000E-03 0. -1.
         11   -1    0    0    0    0 -0.00000000000E+00 -0.00000000000E+00 -0.45593999997E+02  0.45594000000E+02  0.51100000000E-03 0.  1.
    9900012    2    1    2    0    0  0.46916728218E+00  0.90688259826E+00 -0.59189671195E+00  0.90007789975E+02  0.90000052003E+02 0.  0.
         12    1    1    2    0    0 -0.46916728218E+00 -0.90688259826E+00  0.59189671195E+00  0.11802100251E+01  0.00000000000E+00 0. -1.
         11    1    3    3    0    0 -0.20607277166E+02 -0.25051803376E+02 -0.20589551068E+01  0.32503723186E+02  0.51100000000E-03 0. -1.
        -11    1    3    3    0    0 -0.40582091094E+00 -0.80596193498E+00  0.18961376049E+02  0.18982835593E+02  0.51100000000E-03 0.  1.
        -12    1    3    3    0    0  0.21482265359E+02  0.26764647909E+02 -0.17494317654E+02  0.38521231195E+02  0.00000000000E+00 0.  1.
</event>
<event>
 7    1  0.2084210E-015  0.9000774E+02  0.7816164E-02  0.1186339E+00
        -11   -1    0    0    0    0  0.00000000000E+00  0.00000000000E+00  0.45593999997E+02  0.45594000000E+02  0.51100000000E-03 0. -1.
         11   -1    0    0    0    0 -0.00000000000E+00 -0.00000000000E+00 -0.45593999997E+02  0.45594000000E+02  0.51100000000E-03 0.  1.
    9900012    2    1    2    0    0  0.11222315224E+01  0.32910392578E+00 -0.15906326101E+00  0.90007739815E+02  0.90000001180E+02 0.  0.
         12    1    1    2    0    0 -0.11222315224E+01 -0.32910392578E+00  0.15906326101E+00  0.11802601852E+01  0.00000000000E+00 0. -1.
         11    1    3    3    0    0  0.70771170140E+01  0.25869703767E+01  0.35400392011E+02  0.36193449072E+02  0.51100000000E-03 0. -1.
        -11    1    3    3    0    0  0.10868762131E+01 -0.17808151948E+01  0.87249819375E+01  0.89709482626E+01  0.51100000000E-03 0.  1.
        -12    1    3    3    0    0 -0.70417617047E+01 -0.47705125613E+00 -0.44284437209E+02  0.44843342480E+02  0.00000000000E+00 0.  1.
</event>
<event>
 7    1  0.2084210E-015  0.9000778E+02  0.7816164E-02  0.1186339E+00
        -11   -1    0    0    0    0  0.00000000000E+00  0.00000000000E+00  0.45593999997E+02  0.45594000000E+02  0.51100000000E-03 0.  1.
         11   -1    0    0    0    0 -0.00000000000E+00 -0.00000000000E+00 -0.45593999997E+02  0.45594000000E+02  0.51100000000E-03 0. -1.
    9900012    2    1    2    0    0 -0.13447077841E+00  0.20107058077E+00  0.11551666741E+01  0.90007778913E+02  0.90000040795E+02 0.  0.
         12    1    1    2    0    0  0.13447077841E+00 -0.20107058077E+00 -0.11551666741E+01  0.11802210867E+01  0.00000000000E+00 0. -1.
         11    1    3    3    0    0 -0.53145768597E+01 -0.29682021004E+01  0.14443040989E+02  0.15673429241E+02  0.51100000000E-03 0. -1.
        -11    1    3    3    0    0 -0.15882101784E+02 -0.13524971503E+02  0.21775793079E+02  0.30155450183E+02  0.51100000000E-03 0.  1.
         12    1    3    3    0    0  0.21062207865E+02  0.16694244184E+02 -0.35063667394E+02  0.44178899490E+02  0.00000000000E+00 0. -1.
</event>
<event>
 7    1  0.2084210E-015  0.9000776E+02  0.7816164E-02  0.1186339E+00
        -11   -1    0    0    0    0  0.00000000000E+00  0.00000000000E+00  0.45593999997E+02  0.45594000000E+02  0.51100000000E-03 0.  1.
         11   -1    0    0    0    0 -0.00000000000E+00 -0.00000000000E+00 -0.45593999997E+02  0.45594000000E+02  0.51100000000E-03 0. -1.
    9900012    2    1    2    0    0 -0.92889928327E+00 -0.24618365875E+00  0.68520568695E+00  0.90007759725E+02  0.90000021354E+02 0.  0.
         12    1    1    2    0    0  0.92889928327E+00  0.24618365875E+00 -0.68520568695E+00  0.11802402746E+01  0.00000000000E+00 0. -1.
         11    1    3    3    0    0  0.78274718534E+01  0.83845001580E-01  0.43509465497E+01  0.89558406495E+01  0.51100000000E-03 0. -1.
        -11    1    3    3    0    0  0.30042574580E+02  0.19356491837E+02 -0.99381575075E+01  0.37094434064E+02  0.51100000000E-03 0.  1.
         12    1    3    3    0    0 -0.38798945717E+02 -0.19686520497E+02  0.62724166447E+01  0.43957485012E+02  0.00000000000E+00 0. -1.
</event>
<event>
 7    1  0.2084210E-015  0.9000773E+02  0.7816164E-02  0.1186339E+00
        -11   -1    0    0    0    0  0.00000000000E+00  0.00000000000E+00  0.45593999997E+02  0.45594000000E+02  0.51100000000E-03 0.  1.
         11   -1    0    0    0    0 -0.00000000000E+00 -0.00000000000E+00 -0.45593999997E+02  0.45594000000E+02  0.51100000000E-03 0. -1.
    9900012    2    1    2    0    0 -0.21539168340E+00  0.11535888511E+01  0.12600021122E+00  0.90007730172E+02  0.89999991410E+02 0.  0.
         12    1    1    2    0    0  0.21539168340E+00 -0.11535888511E+01 -0.12600021122E+00  0.11802698284E+01  0.00000000000E+00 0. -1.
         11    1    3    3    0    0  0.76530919605E+01  0.78797539323E+01  0.37694540619E+01  0.11613316614E+02  0.51100000000E-03 0. -1.
        -11    1    3    3    0    0 -0.91748221315E+00  0.35469234152E+02 -0.68713572633E-01  0.35481164958E+02  0.51100000000E-03 0.  1.
         12    1    3    3    0    0 -0.69510014307E+01 -0.42195399233E+02 -0.35747402781E+01  0.42913248600E+02  0.00000000000E+00 0. -1.
</event>
<event>
 7    1  0.2084210E-015  0.9000756E+02  0.7816164E-02  0.1186339E+00
        -11   -1    0    0    0    0  0.00000000000E+00  0.00000000000E+00  0.45593999997E+02  0.45594000000E+02  0.51100000000E-03 0.  1.
         11   -1    0    0    0    0 -0.00000000000E+00 -0.00000000000E+00 -0.45593999997E+02  0.45594000000E+02  0.51100000000E-03 0. -1.
    9900012    2    1    2    0    0 -0.46853428601E+00 -0.92938754578E+00  0.55690818641E+00  0.90007562659E+02  0.89999821686E+02 0.  0.
         12    1    1    2    0    0  0.46853428601E+00  0.92938754578E+00 -0.55690818641E+00  0.11804373408E+01  0.00000000000E+00 0. -1.
         11    1    3    3    0    0 -0.30528329044E+01  0.27172213799E+01  0.10357610194E+02  0.11134773009E+02  0.51100000000E-03 0. -1.
        -11    1    3    3    0    0 -0.27771853407E+01  0.23140797369E+02  0.25296590527E+02  0.34396609627E+02  0.51100000000E-03 0.  1.
         12    1    3    3    0    0  0.53614839591E+01 -0.26787406294E+02 -0.35097292535E+02  0.44476180023E+02  0.00000000000E+00 0. -1.
</event>
<event>
 7    1  0.2084210E-015  0.9000773E+02  0.7816164E-02  0.1186339E+00
        -11   -1    0    0    0    0  0.00000000000E+00  0.00000000000E+00  0.45593999997E+02  0.45594000000E+02  0.51100000000E-03 0. -1.
         11   -1    0    0    0    0 -0.00000000000E+00 -0.00000000000E+00 -0.45593999997E+02  0.45594000000E+02  0.51100000000E-03 0.  1.
    9900012    2    1    2    0    0 -0.11614786021E+01  0.20832021214E+00  0.24805189147E-01  0.90007726662E+02  0.89999987854E+02 0.  0.
         12    1    1    2    0    0  0.11614786021E+01 -0.20832021214E+00 -0.24805189147E-01  0.11802733375E+01  0.00000000000E+00 0. -1.
         11    1    3    3    0    0 -0.10981227054E+01 -0.17861948964E+02  0.30449071007E+02  0.35318564802E+02  0.51100000000E-03 0. -1.
        -11    1    3    3    0    0 -0.14587708738E+02 -0.32079072525E+01 -0.15026115768E+00  0.14937017569E+02  0.51100000000E-03 0.  1.
        -12    1    3    3    0    0  0.14524352842E+02  0.21278176428E+02 -0.30274004660E+02  0.39752144291E+02  0.00000000000E+00 0.  1.
</event>
<event>
 7    1  0.2084210E-015  0.9000773E+02  0.7816164E-02  0.1186339E+00
        -11   -1    0    0    0    0  0.00000000000E+00  0.00000000000E+00  0.45593999997E+02  0.45594000000E+02  0.51100000000E-03 0.  1.
         11   -1    0    0    0    0 -0.00000000000E+00 -0.00000000000E+00 -0.45593999997E+02  0.45594000000E+02  0.51100000000E-03 0. -1.
    9900012    2    1    2    0    0 -0.76354579082E+00  0.78519605549E+00  0.43989762454E+00  0.90007726752E+02  0.89999987945E+02 0.  0.
         12    1    1    2    0    0  0.76354579082E+00 -0.78519605549E+00 -0.43989762454E+00  0.11802732482E+01  0.00000000000E+00 0. -1.
         11    1    3    3    0    0  0.12243073510E+01 -0.12132910951E+02 -0.95978416466E+01  0.15518537985E+02  0.51100000000E-03 0. -1.
        -11    1    3    3    0    0  0.17650819648E+02  0.76260662856E+01  0.36415759179E+02  0.41180284580E+02  0.51100000000E-03 0.  1.
         12    1    3    3    0    0 -0.19638672789E+02  0.52920407212E+01 -0.26378019908E+02  0.33308904188E+02  0.00000000000E+00 0. -1.
</event>
<event>
 7    1  0.2084210E-015  0.9000779E+02  0.7816164E-02  0.1186339E+00
        -11   -1    0    0    0    0  0.00000000000E+00  0.00000000000E+00  0.45593999997E+02  0.45594000000E+02  0.51100000000E-03 0. -1.
         11   -1    0    0    0    0 -0.00000000000E+00 -0.00000000000E+00 -0.45593999997E+02  0.45594000000E+02  0.51100000000E-03 0.  1.
    9900012    2    1    2    0    0 -0.11684600042E+00 -0.11636488991E+01 -0.15860781454E+00  0.90007793159E+02  0.90000055229E+02 0.  0.
         12    1    1    2    0    0  0.11684600042E+00  0.11636488991E+01  0.15860781454E+00  0.11802068408E+01  0.00000000000E+00 0. -1.
         11    1    3    3    0    0  0.17562381636E+02 -0.19358135110E+02 -0.98892769103E+01  0.27945884165E+02  0.51100000000E-03 0. -1.
        -11    1    3    3    0    0 -0.79637458252E+01 -0.43882433524E+01 -0.20896216815E+02  0.22788808761E+02  0.51100000000E-03 0.  1.
        -12    1    3    3    0    0 -0.97154818115E+01  0.22582729563E+02  0.30626885911E+02  0.39273100234E+02  0.00000000000E+00 0.  1.
</event>
<event>
 7    1  0.2084210E-015  0.9000772E+02  0.7816164E-02  0.1186339E+00
        -11   -1    0    0    0    0  0.00000000000E+00  0.00000000000E+00  0.45593999997E+02  0.45594000000E+02  0.51100000000E-03 0.  1.
         11   -1    0    0    0    0 -0.00000000000E+00 -0.00000000000E+00 -0.45593999997E+02  0.45594000000E+02  0.51100000000E-03 0. -1.
    9900012    2    1    2    0    0  0.46244823061E+00  0.17587300230E+00  0.10715723635E+01  0.90007721639E+02  0.89999982765E+02 0.  0.
         12    1    1    2    0    0 -0.46244823061E+00 -0.17587300230E+00 -0.10715723635E+01  0.11802783609E+01  0.00000000000E+00 0. -1.
         11    1    3    3    0    0  0.10736482673E+02 -0.12402418519E+01 -0.15664045315E+01  0.10920800495E+02  0.51100000000E-03 0. -1.
        -11    1    3    3    0    0  0.10234287570E+02  0.29262574600E+02 -0.20779837379E+02  0.37320779146E+02  0.51100000000E-03 0.  1.
         12    1    3    3    0    0 -0.20508322012E+02 -0.27846459745E+02  0.23417814274E+02  0.41766141999E+02  0.00000000000E+00 0. -1.
</event>
<event>
 7    1  0.2084210E-015  0.9000774E+02  0.7816164E-02  0.1186339E+00
        -11   -1    0    0    0    0  0.00000000000E+00  0.00000000000E+00  0.45593999997E+02  0.45594000000E+02  0.51100000000E-03 0. -1.
         11   -1    0    0    0    0 -0.00000000000E+00 -0.00000000000E+00 -0.45593999997E+02  0.45594000000E+02  0.51100000000E-03 0.  1.
    9900012    2    1    2    0    0 -0.11441154449E+01 -0.17572951269E+00  0.23051861948E+00  0.90007737382E+02  0.89999998716E+02 0.  0.
         12    1    1    2    0    0  0.11441154449E+01  0.17572951269E+00 -0.23051861948E+00  0.11802626177E+01  0.00000000000E+00 0. -1.
         11    1    3    3    0    0 -0.52529813010E+01  0.38138988621E+01  0.49071634126E+01  0.81375604513E+01  0.51100000000E-03 0. -1.
        -11    1    3    3    0    0 -0.15256644660E+02 -0.51906456751E+01 -0.39135823076E+02  0.42323996230E+02  0.51100000000E-03 0.  1.
         12    1    3    3    0    0  0.19365510516E+02  0.12010173004E+01  0.34459178283E+02  0.39546180701E+02  0.00000000000E+00 0. -1.
</event>
<event>
 7    1  0.2084210E-015  0.9000705E+02  0.7816164E-02  0.1186340E+00
        -11   -1    0    0    0    0  0.00000000000E+00  0.00000000000E+00  0.45593999997E+02  0.45594000000E+02  0.51100000000E-03 0.  1.
         11   -1    0    0    0    0 -0.00000000000E+00 -0.00000000000E+00 -0.45593999997E+02  0.45594000000E+02  0.51100000000E-03 0. -1.
    9900012    2    1    2    0    0 -0.88254100588E+00 -0.78315740476E+00 -0.49243603458E-01  0.90007051618E+02  0.89999303897E+02 0.  0.
         12    1    1    2    0    0  0.88254100588E+00  0.78315740476E+00  0.49243603458E-01  0.11809483817E+01  0.00000000000E+00 0. -1.
         11    1    3    3    0    0 -0.16049770010E+02 -0.16606096671E+02  0.30557055251E+02  0.38302626410E+02  0.51100000000E-03 0. -1.
        -11    1    3    3    0    0 -0.29656784271E+01  0.57725289413E+01  0.65089022756E+01  0.91914714821E+01  0.51100000000E-03 0.  1.
        -12    1    3    3    0    0  0.18132907431E+02  0.10050410324E+02 -0.37115201130E+02  0.42512953726E+02  0.00000000000E+00 0.  1.
</event>
<event>
 7    1  0.2084210E-015  0.9000776E+02  0.7816164E-02  0.1186339E+00
        -11   -1    0    0    0    0  0.00000000000E+00  0.00000000000E+00  0.45593999997E+02  0.45594000000E+02  0.51100000000E-03 0.  1.
         11   -1    0    0    0    0 -0.00000000000E+00 -0.00000000000E+00 -0.45593999997E+02  0.45594000000E+02  0.51100000000E-03 0. -1.
    9900012    2    1    2    0    0  0.19166043253E+00  0.11618692250E+01  0.79383156034E-01  0.90007756168E+02  0.90000017749E+02 0.  0.
         12    1    1    2    0    0 -0.19166043253E+00 -0.11618692250E+01 -0.79383156034E-01  0.11802438320E+01  0.00000000000E+00 0. -1.
         11    1    3    3    0    0 -0.35661472063E+01  0.29622366102E+01  0.88719381042E+01  0.10010171708E+02  0.51100000000E-03 0. -1.
        -11    1    3    3    0    0 -0.19242480228E+02  0.90531433734E+01  0.28068223765E+02  0.35214452088E+02  0.51100000000E-03 0.  1.
         12    1    3    3    0    0  0.23000287867E+02 -0.10853510759E+02 -0.36860778713E+02  0.44783132372E+02  0.00000000000E+00 0. -1.
</event>
<event>
 7    1  0.2084210E-015  0.9000768E+02  0.7816164E-02  0.1186339E+00
        -11   -1    0    0    0    0  0.00000000000E+00  0.00000000000E+00  0.45593999997E+02  0.45594000000E+02  0.51100000000E-03 0.  1.
         11   -1    0    0    0    0 -0.00000000000E+00 -0.00000000000E+00 -0.45593999997E+02  0.45594000000E+02  0.51100000000E-03 0. -1.
    9900012    2    1    2    0    0 -0.33781138190E+00 -0.64463669104E+00  0.92923280171E+00  0.90007683689E+02  0.89999944314E+02 0.  0.
         12    1    1    2    0    0  0.33781138190E+00  0.64463669104E+00 -0.92923280171E+00  0.11803163105E+01  0.00000000000E+00 0. -1.
         11    1    3    3    0    0  0.25465243442E+01  0.87784439891E+01 -0.21889082534E+01  0.93987863423E+01  0.51100000000E-03 0. -1.
        -11    1    3    3    0    0  0.14550563771E+01  0.36760735772E+01  0.40535638204E+02  0.40727983880E+02  0.51100000000E-03 0.  1.
         12    1    3    3    0    0 -0.43393921032E+01 -0.13099154257E+02 -0.37417497149E+02  0.39880913467E+02  0.00000000000E+00 0. -1.
</event>
<event>
 7    1  0.2084210E-015  0.9000774E+02  0.7816164E-02  0.1186339E+00
        -11   -1    0    0    0    0  0.00000000000E+00  0.00000000000E+00  0.45593999997E+02  0.45594000000E+02  0.51100000000E-03 0.  1.
         11   -1    0    0    0    0 -0.00000000000E+00 -0.00000000000E+00 -0.45593999997E+02  0.45594000000E+02  0.51100000000E-03 0. -1.
    9900012    2    1    2    0    0 -0.13400195372E+00 -0.17358985953E+00  0.11597044088E+01  0.90007743977E+02  0.90000005398E+02 0.  0.
         12    1    1    2    0    0  0.13400195372E+00  0.17358985953E+00 -0.11597044088E+01  0.11802560225E+01  0.00000000000E+00 0. -1.
         11    1    3    3    0    0 -0.41369013436E+02 -0.67080196793E+01 -0.10793854697E+02  0.43277015842E+02  0.51100000000E-03 0. -1.
        -11    1    3    3    0    0  0.63209446189E+01 -0.34722278007E+01  0.70431779526E+01  0.10080528890E+02  0.51100000000E-03 0.  1.
        -12    1    3    3    0    0  0.34914066863E+02  0.10006657620E+02  0.49103811530E+01  0.36650199246E+02  0.00000000000E+00 0.  1.
</event>
<event>
 7    1  0.2084210E-015  0.9000775E+02  0.7816164E-02  0.1186339E+00
        -11   -1    0    0    0    0  0.00000000000E+00  0.00000000000E+00  0.45593999997E+02  0.45594000000E+02  0.51100000000E-03 0.  1.
         11   -1    0    0    0    0 -0.00000000000E+00 -0.00000000000E+00 -0.45593999997E+02  0.45594000000E+02  0.51100000000E-03 0. -1.
    9900012    2    1    2    0    0  0.97665566842E+00  0.72536294663E-01 -0.65869598186E+00  0.90007746550E+02  0.90000008005E+02 0.  0.
         12    1    1    2    0    0 -0.97665566842E+00 -0.72536294663E-01  0.65869598186E+00  0.11802534496E+01  0.00000000000E+00 0. -1.
         11    1    3    3    0    0 -0.29824227749E+02  0.10192763205E+02  0.15919393938E+02  0.35310113086E+02  0.51100000000E-03 0. -1.
        -11    1    3    3    0    0 -0.14565677695E+01  0.71065499167E+01  0.78742563723E+01  0.10706472578E+02  0.51100000000E-03 0.  1.
        -12    1    3    3    0    0  0.32257451187E+02 -0.17226776827E+02 -0.24452346292E+02  0.43991160886E+02  0.00000000000E+00 0.  1.
</event>
<event>
 7    1  0.2084210E-015  0.9000793E+02  0.7816164E-02  0.1186339E+00
        -11   -1    0    0    0    0  0.00000000000E+00  0.00000000000E+00  0.45593999997E+02  0.45594000000E+02  0.51100000000E-03 0.  1.
         11   -1    0    0    0    0 -0.00000000000E+00 -0.00000000000E+00 -0.45593999997E+02  0.45594000000E+02  0.51100000000E-03 0. -1.
    9900012    2    1    2    0    0 -0.62977468945E+00 -0.99755831922E+00 -0.28805016688E-01  0.90007928609E+02  0.90000192466E+02 0.  0.
         12    1    1    2    0    0  0.62977468945E+00  0.99755831922E+00  0.28805016688E-01  0.11800713914E+01  0.00000000000E+00 0. -1.
         11    1    3    3    0    0 -0.96100943630E+01 -0.20498865488E+01  0.41632087588E+01  0.10671844075E+02  0.51100000000E-03 0. -1.
        -11    1    3    3    0    0 -0.16220398491E+02  0.31431237884E+00  0.31620391095E+02  0.35539404226E+02  0.51100000000E-03 0.  1.
         12    1    3    3    0    0  0.25200718165E+02  0.73801585077E+00 -0.35812404870E+02  0.43796680308E+02  0.00000000000E+00 0. -1.
</event>
<event>
 7    1  0.2084210E-015  0.9000773E+02  0.7816164E-02  0.1186339E+00
        -11   -1    0    0    0    0  0.00000000000E+00  0.00000000000E+00  0.45593999997E+02  0.45594000000E+02  0.51100000000E-03 0. -1.
         11   -1    0    0    0    0 -0.00000000000E+00 -0.00000000000E+00 -0.45593999997E+02  0.45594000000E+02  0.51100000000E-03 0.  1.
    9900012    2    1    2    0    0 -0.79460396148E+00 -0.87150122959E+00 -0.46186827637E-01  0.90007727543E+02  0.89999988747E+02 0.  0.
         12    1    1    2    0    0  0.79460396148E+00  0.87150122959E+00  0.46186827637E-01  0.11802724566E+01  0.00000000000E+00 0. -1.
         11    1    3    3    0    0  0.30459206929E+02  0.20185410011E+02  0.93212940012E+00  0.36552468173E+02  0.51100000000E-03 0. -1.
        -11    1    3    3    0    0  0.55568394825E+01  0.22880449125E+01 -0.72505097680E+01  0.94171920822E+01  0.51100000000E-03 0.  1.
        -12    1    3    3    0    0 -0.36810650373E+02 -0.23344956153E+02  0.62721935402E+01  0.44038067288E+02  0.00000000000E+00 0.  1.
</event>
<event>
 7    1  0.2084210E-015  0.9000797E+02  0.7816164E-02  0.1186339E+00
        -11   -1    0    0    0    0  0.00000000000E+00  0.00000000000E+00  0.45593999997E+02  0.45594000000E+02  0.51100000000E-03 0. -1.
         11   -1    0    0    0    0 -0.00000000000E+00 -0.00000000000E+00 -0.45593999997E+02  0.45594000000E+02  0.51100000000E-03 0.  1.
    9900012    2    1    2    0    0 -0.93809563299E+00 -0.62055690642E-01 -0.71316600682E+00  0.90007966069E+02  0.90000230421E+02 0.  0.
         12    1    1    2    0    0  0.93809563299E+00  0.62055690642E-01  0.71316600682E+00  0.11800339311E+01  0.00000000000E+00 0. -1.
         11    1    3    3    0    0  0.28122463105E+02  0.12386541693E+01  0.20246719154E+02  0.34674729012E+02  0.51100000000E-03 0. -1.
        -11    1    3    3    0    0  0.10210327935E+02  0.14199940452E+01  0.82628592101E+00  0.10341659843E+02  0.51100000000E-03 0.  1.
        -12    1    3    3    0    0 -0.39270886673E+02 -0.27207039052E+01 -0.21786171082E+02  0.44991577214E+02  0.00000000000E+00 0.  1.
</event>
<event>
 7    1  0.2084210E-015  0.9000772E+02  0.7816164E-02  0.1186339E+00
        -11   -1    0    0    0    0  0.00000000000E+00  0.00000000000E+00  0.45593999997E+02  0.45594000000E+02  0.51100000000E-03 0. -1.
         11   -1    0    0    0    0 -0.00000000000E+00 -0.00000000000E+00 -0.45593999997E+02  0.45594000000E+02  0.51100000000E-03 0.  1.
    9900012    2    1    2    0    0 -0.61193122728E+00  0.29870337911E+00 -0.96403922645E+00  0.90007722420E+02  0.89999983556E+02 0.  0.
         12    1    1    2    0    0  0.61193122728E+00 -0.29870337911E+00  0.96403922645E+00  0.11802775800E+01  0.00000000000E+00 0. -1.
         11    1    3    3    0    0  0.30683317339E+01 -0.91693481844E+01 -0.88567778431E+00  0.97095844996E+01  0.51100000000E-03 0. -1.
        -11    1    3    3    0    0  0.12159702761E+02  0.62574738637E+01 -0.37295241316E+02  0.39723410925E+02  0.51100000000E-03 0.  1.
         12    1    3    3    0    0 -0.15839965722E+02  0.32105776998E+01  0.37216879874E+02  0.40574726996E+02  0.00000000000E+00 0. -1.
</event>
<event>
 7    1  0.2138097E-015  0.9000779E+02  0.7816164E-02  0.1186339E+00
        -11   -1    0    0    0    0  0.00000000000E+00  0.00000000000E+00  0.45593999997E+02  0.45594000000E+02  0.51100000000E-03 0.  1.
         11   -1    0    0    0    0 -0.00000000000E+00 -0.00000000000E+00 -0.45593999997E+02  0.45594000000E+02  0.51100000000E-03 0. -1.
    9900012    2    1    2    0    0 -0.25093438913E+00  0.39785089806E+00  0.10824205715E+01  0.90007793366E+02  0.90000055439E+02 0.  0.
         12    1    1    2    0    0  0.25093438913E+00 -0.39785089806E+00 -0.10824205715E+01  0.11802066337E+01  0.00000000000E+00 0. -1.
         11    1    3    3    0    0  0.15879946575E+02  0.62796026095E+01 -0.33602148226E+02  0.37692313246E+02  0.51100000000E-03 0. -1.
        -11    1    3    3    0    0  0.32000741093E+01 -0.84870756173E+01 -0.32702123940E+01  0.96418471364E+01  0.51100000000E-03 0.  1.
        -12    1    3    3    0    0 -0.19330955074E+02  0.26053239059E+01  0.37954781192E+02  0.42673632984E+02  0.00000000000E+00 0.  1.
</event>
<event>
 7    1  0.2084210E-015  0.9000759E+02  0.7816164E-02  0.1186339E+00
        -11   -1    0    0    0    0  0.00000000000E+00  0.00000000000E+00  0.45593999997E+02  0.45594000000E+02  0.51100000000E-03 0.  1.
         11   -1    0    0    0    0 -0.00000000000E+00 -0.00000000000E+00 -0.45593999997E+02  0.45594000000E+02  0.51100000000E-03 0. -1.
    9900012    2    1    2    0    0 -0.91163579550E+00  0.68835008166E+00  0.29742225476E+00  0.90007590895E+02  0.89999850294E+02 0.  0.
         12    1    1    2    0    0  0.91163579550E+00 -0.68835008166E+00 -0.29742225476E+00  0.11804091054E+01  0.00000000000E+00 0. -1.
         11    1    3    3    0    0 -0.55679738292E+01  0.57489423284E+01  0.12749699155E+01  0.81042099556E+01  0.51100000000E-03 0. -1.
        -11    1    3    3    0    0 -0.17878537471E+02  0.21859454981E+02 -0.26321288507E+02  0.38604249806E+02  0.51100000000E-03 0.  1.
         12    1    3    3    0    0  0.22534875505E+02 -0.26920047228E+02  0.25343740846E+02  0.43299131133E+02  0.00000000000E+00 0. -1.
</event>
<event>
 7    1  0.2084210E-015  0.9000774E+02  0.7816164E-02  0.1186339E+00
        -11   -1    0    0    0    0  0.00000000000E+00  0.00000000000E+00  0.45593999997E+02  0.45594000000E+02  0.51100000000E-03 0. -1.
         11   -1    0    0    0    0 -0.00000000000E+00 -0.00000000000E+00 -0.45593999997E+02  0.45594000000E+02  0.51100000000E-03 0.  1.
    9900012    2    1    2    0    0  0.46512857525E+00  0.27845249059E+00 -0.10484000553E+01  0.90007736022E+02  0.89999997338E+02 0.  0.
         12    1    1    2    0    0 -0.46512857525E+00 -0.27845249059E+00  0.10484000553E+01  0.11802639777E+01  0.00000000000E+00 0. -1.
         11    1    3    3    0    0  0.19202763142E+02  0.20008978079E+02 -0.28189932298E+02  0.39544627945E+02  0.51100000000E-03 0. -1.
        -11    1    3    3    0    0  0.28475171935E+01  0.41636656623E+01 -0.33995134406E+01  0.60828577008E+01  0.51100000000E-03 0.  1.
        -12    1    3    3    0    0 -0.21585151761E+02 -0.23894191250E+02  0.30541045683E+02  0.44380250377E+02  0.00000000000E+00 0.  1.
</event>
<event>
 7    1  0.2084210E-015  0.9000772E+02  0.7816164E-02  0.1186339E+00
        -11   -1    0    0    0    0  0.00000000000E+00  0.00000000000E+00  0.45593999997E+02  0.45594000000E+02  0.51100000000E-03 0.  1.
         11   -1    0    0    0    0 -0.00000000000E+00 -0.00000000000E+00 -0.45593999997E+02  0.45594000000E+02  0.51100000000E-03 0. -1.
    9900012    2    1    2    0    0  0.47826667911E+00 -0.67766784736E+00  0.83969358447E+00  0.90007721201E+02  0.89999982321E+02 0.  0.
         12    1    1    2    0    0 -0.47826667911E+00  0.67766784736E+00 -0.83969358447E+00  0.11802787991E+01  0.00000000000E+00 0. -1.
         11    1    3    3    0    0 -0.18701147505E+02 -0.35627757678E+02 -0.78864247314E+01  0.41003240488E+02  0.51100000000E-03 0. -1.
        -11    1    3    3    0    0  0.38647210643E+01  0.23296205018E+01 -0.80699430915E+01  0.92459278793E+01  0.51100000000E-03 0.  1.
        -12    1    3    3    0    0  0.15314693120E+02  0.32620469329E+02  0.16796061407E+02  0.39758552834E+02  0.00000000000E+00 0.  1.
</event>
<event>
 7    1  0.2084210E-015  0.9000770E+02  0.7816164E-02  0.1186339E+00
        -11   -1    0    0    0    0  0.00000000000E+00  0.00000000000E+00  0.45593999997E+02  0.45594000000E+02  0.51100000000E-03 0. -1.
         11   -1    0    0    0    0 -0.00000000000E+00 -0.00000000000E+00 -0.45593999997E+02  0.45594000000E+02  0.51100000000E-03 0.  1.
    9900012    2    1    2    0    0  0.34055321778E+00  0.99820704364E+00 -0.52983099154E+00  0.90007697210E+02  0.89999958013E+02 0.  0.
         12    1    1    2    0    0 -0.34055321778E+00 -0.99820704364E+00  0.52983099154E+00  0.11803027898E+01  0.00000000000E+00 0. -1.
         11    1    3    3    0    0 -0.21435446309E+02 -0.35027136726E+02  0.42730247978E+01  0.41287254775E+02  0.51100000000E-03 0. -1.
        -11    1    3    3    0    0  0.13041460696E+02  0.23486683197E+01  0.15923498903E+01  0.13346592014E+02  0.51100000000E-03 0.  1.
        -12    1    3    3    0    0  0.87345388317E+01  0.33676675450E+02 -0.63952056796E+01  0.35373850421E+02  0.00000000000E+00 0.  1.
</event>
<event>
 7    1  0.2084210E-015  0.9000772E+02  0.7816164E-02  0.1186339E+00
        -11   -1    0    0    0    0  0.00000000000E+00  0.00000000000E+00  0.45593999997E+02  0.45594000000E+02  0.51100000000E-03 0.  1.
         11   -1    0    0    0    0 -0.00000000000E+00 -0.00000000000E+00 -0.45593999997E+02  0.45594000000E+02  0.51100000000E-03 0. -1.
    9900012    2    1    2    0    0  0.28174313877E+00 -0.86913874602E+00 -0.74718882134E+00  0.90007715081E+02  0.89999976120E+02 0.  0.
         12    1    1    2    0    0 -0.28174313877E+00  0.86913874602E+00  0.74718882134E+00  0.11802849193E+01  0.00000000000E+00 0. -1.
         11    1    3    3    0    0 -0.70930533608E+01  0.45534729000E+01 -0.18183732838E+02  0.20042296815E+02  0.51100000000E-03 0. -1.
        -11    1    3    3    0    0 -0.91263683440E+01  0.61529632182E+01 -0.22601911380E+02  0.25139529705E+02  0.51100000000E-03 0.  1.
        -12    1    3    3    0    0  0.16501164844E+02 -0.11575574864E+02  0.40038455397E+02  0.44825888560E+02  0.00000000000E+00 0.  1.
</event>
<event>
 7    1  0.2084210E-015  0.9000773E+02  0.7816164E-02  0.1186339E+00
        -11   -1    0    0    0    0  0.00000000000E+00  0.00000000000E+00  0.45593999997E+02  0.45594000000E+02  0.51100000000E-03 0.  1.
         11   -1    0    0    0    0 -0.00000000000E+00 -0.00000000000E+00 -0.45593999997E+02  0.45594000000E+02  0.51100000000E-03 0. -1.
    9900012    2    1    2    0    0  0.59332661950E+00  0.16461010340E+00  0.10069244656E+01  0.90007733148E+02  0.89999994425E+02 0.  0.
         12    1    1    2    0    0 -0.59332661950E+00 -0.16461010340E+00 -0.10069244656E+01  0.11802668524E+01  0.00000000000E+00 0. -1.
         11    1    3    3    0    0  0.32251234552E+02 -0.52803845697E+01 -0.18636064247E+02  0.37620838404E+02  0.51100000000E-03 0. -1.
        -11    1    3    3    0    0  0.70855486890E+01  0.58563110863E+01  0.72503203279E+01  0.11707626783E+02  0.51100000000E-03 0.  1.
        -12    1    3    3    0    0 -0.38743456621E+02 -0.41131641320E+00  0.12392668384E+02  0.40679267961E+02  0.00000000000E+00 0.  1.
</event>
<event>
 7    1  0.2084210E-015  0.9000779E+02  0.7816164E-02  0.1186339E+00
        -11   -1    0    0    0    0  0.00000000000E+00  0.00000000000E+00  0.45593999997E+02  0.45594000000E+02  0.51100000000E-03 0. -1.
         11   -1    0    0    0    0 -0.00000000000E+00 -0.00000000000E+00 -0.45593999997E+02  0.45594000000E+02  0.51100000000E-03 0.  1.
    9900012    2    1    2    0    0 -0.62263328672E+00  0.12394706410E+00 -0.99491954088E+00  0.90007788164E+02  0.90000050168E+02 0.  0.
         12    1    1    2    0    0  0.62263328672E+00 -0.12394706410E+00  0.99491954088E+00  0.11802118358E+01  0.00000000000E+00 0. -1.
         11    1    3    3    0    0  0.70124934525E+00 -0.77296338237E+01 -0.28984550036E+01  0.82849279636E+01  0.51100000000E-03 0. -1.
        -11    1    3    3    0    0  0.36022550086E+02  0.16100859637E+02  0.13588610113E+02  0.41731428454E+02  0.51100000000E-03 0.  1.
         12    1    3    3    0    0 -0.37346432718E+02 -0.82472787494E+01 -0.11685074650E+02  0.39991431746E+02  0.00000000000E+00 0. -1.
</event>
<event>
 8    1  0.2084210E-015  0.9000771E+02  0.7816164E-02  0.1186339E+00
        -11   -1    0    0    0    0  0.00000000000E+00  0.00000000000E+00  0.45593999997E+02  0.45594000000E+02  0.51100000000E-03 0.  1.
         11   -1    0    0    0    0 -0.00000000000E+00 -0.00000000000E+00 -0.45593999997E+02  0.45594000000E+02  0.51100000000E-03 0. -1.
    9900012    2    1    2    0    0 -0.13702816829E+00 -0.82641258897E+00  0.83147474499E+00  0.90007709893E+02  0.89999970863E+02 0.  0.
         23    2    3    3    0    0  0.71193930337E+01  0.21583233092E+02 -0.11577833461E+02  0.63383683181E+02  0.58025195889E+02 0.  0.
         12    1    1    2    0    0  0.13702816829E+00  0.82641258897E+00 -0.83147474499E+00  0.11802901074E+01  0.00000000000E+00 0. -1.
         11    1    4    4    0    0  0.13019185470E+02  0.15473826144E+02  0.21333092580E+02  0.29394545839E+02  0.51100000000E-03 0. -1.
        -11    1    4    4    0    0 -0.58997924365E+01  0.61094069484E+01 -0.32910926041E+02  0.33989137341E+02  0.51100000000E-03 0.  1.
         12    1    3    3    0    0 -0.72564212020E+01 -0.22409645681E+02  0.12409308206E+02  0.26624026712E+02  0.00000000000E+00 0. -1.
</event>
<event>
 7    1  0.2084210E-015  0.9000779E+02  0.7816164E-02  0.1186339E+00
        -11   -1    0    0    0    0  0.00000000000E+00  0.00000000000E+00  0.45593999997E+02  0.45594000000E+02  0.51100000000E-03 0. -1.
         11   -1    0    0    0    0 -0.00000000000E+00 -0.00000000000E+00 -0.45593999997E+02  0.45594000000E+02  0.51100000000E-03 0.  1.
    9900012    2    1    2    0    0  0.26964690895E+00 -0.86966734499E+00 -0.75091057480E+00  0.90007789240E+02  0.90000051258E+02 0.  0.
         12    1    1    2    0    0 -0.26964690895E+00  0.86966734499E+00  0.75091057480E+00  0.11802107599E+01  0.00000000000E+00 0. -1.
         11    1    3    3    0    0 -0.23770425666E+01  0.53842519743E+01 -0.73552634315E+01  0.94202123699E+01  0.51100000000E-03 0. -1.
        -11    1    3    3    0    0 -0.23901782917E+02 -0.45085863107E+01 -0.27901803434E+02  0.37015310511E+02  0.51100000000E-03 0.  1.
         12    1    3    3    0    0  0.26548472393E+02 -0.17453330086E+01  0.34506156290E+02  0.43572266359E+02  0.00000000000E+00 0. -1.
</event>
<event>
 7    1  0.2084210E-015  0.9000767E+02  0.7816164E-02  0.1186339E+00
        -11   -1    0    0    0    0  0.00000000000E+00  0.00000000000E+00  0.45593999997E+02  0.45594000000E+02  0.51100000000E-03 0.  1.
         11   -1    0    0    0    0 -0.00000000000E+00 -0.00000000000E+00 -0.45593999997E+02  0.45594000000E+02  0.51100000000E-03 0. -1.
    9900012    2    1    2    0    0  0.93722607874E+00 -0.33993915490E+00  0.63184858538E+00  0.90007667849E+02  0.89999928265E+02 0.  0.
         12    1    1    2    0    0 -0.93722607874E+00  0.33993915490E+00 -0.63184858538E+00  0.11803321509E+01  0.00000000000E+00 0. -1.
         11    1    3    3    0    0 -0.29044943698E+02 -0.19379721155E+02  0.78442218487E+01  0.35787066981E+02  0.51100000000E-03 0. -1.
        -11    1    3    3    0    0 -0.90002192182E+01 -0.10207751864E+01 -0.49472327283E+01  0.10320903056E+02  0.51100000000E-03 0.  1.
        -12    1    3    3    0    0  0.38982388995E+02  0.20060557186E+02 -0.22651405350E+01  0.43899697812E+02  0.00000000000E+00 0.  1.
</event>
<event>
 7    1  0.2084210E-015  0.9000765E+02  0.7816164E-02  0.1186339E+00
        -11   -1    0    0    0    0  0.00000000000E+00  0.00000000000E+00  0.45593999997E+02  0.45594000000E+02  0.51100000000E-03 0.  1.
         11   -1    0    0    0    0 -0.00000000000E+00 -0.00000000000E+00 -0.45593999997E+02  0.45594000000E+02  0.51100000000E-03 0. -1.
    9900012    2    1    2    0    0  0.57502459928E+00  0.10304486501E+01 -0.27503145724E-01  0.90007646607E+02  0.89999906742E+02 0.  0.
         12    1    1    2    0    0 -0.57502459928E+00 -0.10304486501E+01  0.27503145724E-01  0.11803533934E+01  0.00000000000E+00 0. -1.
         11    1    3    3    0    0 -0.32777174250E+02  0.13522748589E+02 -0.18891266853E+02  0.40175712125E+02  0.51100000000E-03 0. -1.
        -11    1    3    3    0    0  0.66132747508E+01  0.93100807683E+01  0.27122924695E+01  0.11737526892E+02  0.51100000000E-03 0.  1.
        -12    1    3    3    0    0  0.26738924098E+02 -0.21802380707E+02  0.16151471237E+02  0.38094407589E+02  0.00000000000E+00 0.  1.
</event>
<event>
 7    1  0.2084210E-015  0.9000768E+02  0.7816164E-02  0.1186339E+00
        -11   -1    0    0    0    0  0.00000000000E+00  0.00000000000E+00  0.45593999997E+02  0.45594000000E+02  0.51100000000E-03 0.  1.
         11   -1    0    0    0    0 -0.00000000000E+00 -0.00000000000E+00 -0.45593999997E+02  0.45594000000E+02  0.51100000000E-03 0. -1.
    9900012    2    1    2    0    0 -0.55908351484E+00 -0.38200356507E+00  0.96677974098E+00  0.90007676244E+02  0.89999936771E+02 0.  0.
         12    1    1    2    0    0  0.55908351484E+00  0.38200356507E+00 -0.96677974098E+00  0.11803237555E+01  0.00000000000E+00 0. -1.
         11    1    3    3    0    0  0.24606898053E+01  0.74755354829E+01  0.75059030244E+01  0.10875532426E+02  0.51100000000E-03 0. -1.
        -11    1    3    3    0    0  0.30281893307E+02 -0.26872045902E+02 -0.44104790510E+01  0.40725326750E+02  0.51100000000E-03 0.  1.
         12    1    3    3    0    0 -0.33301666627E+02  0.19014506854E+02 -0.21286442324E+01  0.38406817068E+02  0.00000000000E+00 0. -1.
</event>
<event>
 7    1  0.2084210E-015  0.9000762E+02  0.7816164E-02  0.1186339E+00
        -11   -1    0    0    0    0  0.00000000000E+00  0.00000000000E+00  0.45593999997E+02  0.45594000000E+02  0.51100000000E-03 0.  1.
         11   -1    0    0    0    0 -0.00000000000E+00 -0.00000000000E+00 -0.45593999997E+02  0.45594000000E+02  0.51100000000E-03 0. -1.
    9900012    2    1    2    0    0 -0.10470600496E+01 -0.11127544824E+00  0.53345236215E+00  0.90007623621E+02  0.89999883453E+02 0.  0.
         12    1    1    2    0    0  0.10470600496E+01  0.11127544824E+00 -0.53345236215E+00  0.11803763787E+01  0.00000000000E+00 0. -1.
         11    1    3    3    0    0 -0.10018481434E+02 -0.17714779014E+01  0.69544900770E+00  0.10197634715E+02  0.51100000000E-03 0. -1.
        -11    1    3    3    0    0  0.31688844818E+02  0.17598993824E+02  0.23618482801E+02  0.43263612882E+02  0.51100000000E-03 0.  1.
         12    1    3    3    0    0 -0.22717423434E+02 -0.15938791371E+02 -0.23780479446E+02  0.36546376025E+02  0.00000000000E+00 0. -1.
</event>
<event>
 7    1  0.2084210E-015  0.9000777E+02  0.7816164E-02  0.1186339E+00
        -11   -1    0    0    0    0  0.00000000000E+00  0.00000000000E+00  0.45593999997E+02  0.45594000000E+02  0.51100000000E-03 0.  1.
         11   -1    0    0    0    0 -0.00000000000E+00 -0.00000000000E+00 -0.45593999997E+02  0.45594000000E+02  0.51100000000E-03 0. -1.
    9900012    2    1    2    0    0  0.11518234499E+01  0.39824588092E-01 -0.25429067267E+00  0.90007768241E+02  0.90000029982E+02 0.  0.
         12    1    1    2    0    0 -0.11518234499E+01 -0.39824588092E-01  0.25429067267E+00  0.11802317585E+01  0.00000000000E+00 0. -1.
         11    1    3    3    0    0  0.21715828543E+02 -0.50071822458E+01  0.11876741584E+02  0.25252842895E+02  0.51100000000E-03 0. -1.
        -11    1    3    3    0    0  0.97343549697E+01  0.24643503351E+02  0.56686316035E+00  0.26502476454E+02  0.51100000000E-03 0.  1.
         12    1    3    3    0    0 -0.30298360063E+02 -0.19596496517E+02 -0.12697895417E+02  0.38252448892E+02  0.00000000000E+00 0. -1.
</event>
<event>
 7    1  0.2084210E-015  0.9000770E+02  0.7816164E-02  0.1186339E+00
        -11   -1    0    0    0    0  0.00000000000E+00  0.00000000000E+00  0.45593999997E+02  0.45594000000E+02  0.51100000000E-03 0.  1.
         11   -1    0    0    0    0 -0.00000000000E+00 -0.00000000000E+00 -0.45593999997E+02  0.45594000000E+02  0.51100000000E-03 0. -1.
    9900012    2    1    2    0    0  0.96407400760E+00 -0.64896029432E+00  0.20620195888E+00  0.90007700291E+02  0.89999961135E+02 0.  0.
         12    1    1    2    0    0 -0.96407400760E+00  0.64896029432E+00 -0.20620195888E+00  0.11802997092E+01  0.00000000000E+00 0. -1.
         11    1    3    3    0    0  0.53688541372E+01 -0.52251183258E+01 -0.15884504270E+02  0.17562571919E+02  0.51100000000E-03 0. -1.
        -11    1    3    3    0    0  0.32022836071E+02  0.10558084392E+02  0.79253844701E+01  0.34637362708E+02  0.51100000000E-03 0.  1.
         12    1    3    3    0    0 -0.36427616201E+02 -0.59819263609E+01  0.81653217583E+01  0.37807765664E+02  0.00000000000E+00 0. -1.
</event>
<event>
 7    1  0.2084210E-015  0.9000771E+02  0.7816164E-02  0.1186339E+00
        -11   -1    0    0    0    0  0.00000000000E+00  0.00000000000E+00  0.45593999997E+02  0.45594000000E+02  0.51100000000E-03 0.  1.
         11   -1    0    0    0    0 -0.00000000000E+00 -0.00000000000E+00 -0.45593999997E+02  0.45594000000E+02  0.51100000000E-03 0. -1.
    9900012    2    1    2    0    0 -0.90439866545E+00 -0.28261154840E+00  0.70375406451E+00  0.90007713587E+02  0.89999974606E+02 0.  0.
         12    1    1    2    0    0  0.90439866545E+00  0.28261154840E+00 -0.70375406451E+00  0.11802864130E+01  0.00000000000E+00 0. -1.
         11    1    3    3    0    0 -0.33292745787E+01  0.45873696982E+01  0.24038697664E+01  0.61568352327E+01  0.51100000000E-03 0. -1.
        -11    1    3    3    0    0 -0.34398959248E+02  0.95824490090E+01  0.17628322707E+02  0.39822976887E+02  0.51100000000E-03 0.  1.
         12    1    3    3    0    0  0.36823835162E+02 -0.14452430256E+02 -0.19328438409E+02  0.44027901468E+02  0.00000000000E+00 0. -1.
</event>
<event>
 7    1  0.2084210E-015  0.9000772E+02  0.7816164E-02  0.1186339E+00
        -11   -1    0    0    0    0  0.00000000000E+00  0.00000000000E+00  0.45593999997E+02  0.45594000000E+02  0.51100000000E-03 0. -1.
         11   -1    0    0    0    0 -0.00000000000E+00 -0.00000000000E+00 -0.45593999997E+02  0.45594000000E+02  0.51100000000E-03 0.  1.
    9900012    2    1    2    0    0 -0.20054842402E+00 -0.41838940730E+00 -0.10852664008E+01  0.90007715065E+02  0.89999976104E+02 0.  0.
         12    1    1    2    0    0  0.20054842402E+00  0.41838940730E+00  0.10852664008E+01  0.11802849347E+01  0.00000000000E+00 0. -1.
         11    1    3    3    0    0 -0.67186923340E+01 -0.10592051214E+01 -0.62364361675E+01  0.92279942838E+01  0.51100000000E-03 0. -1.
        -11    1    3    3    0    0  0.12348848495E+02 -0.86398208436E+00 -0.36579221418E+02  0.38617094194E+02  0.51100000000E-03 0.  1.
         12    1    3    3    0    0 -0.58307045853E+01  0.15047977984E+01  0.41730391184E+02  0.42162626588E+02  0.00000000000E+00 0. -1.
</event>
<event>
 7    1  0.2084210E-015  0.9000760E+02  0.7816164E-02  0.1186339E+00
        -11   -1    0    0    0    0  0.00000000000E+00  0.00000000000E+00  0.45593999997E+02  0.45594000000E+02  0.51100000000E-03 0. -1.
         11   -1    0    0    0    0 -0.00000000000E+00 -0.00000000000E+00 -0.45593999997E+02  0.45594000000E+02  0.51100000000E-03 0.  1.
    9900012    2    1    2    0    0 -0.48884433941E+00  0.80556030769E+00 -0.71094397890E+00  0.90007602805E+02  0.89999862362E+02 0.  0.
         12    1    1    2    0    0  0.48884433941E+00 -0.80556030769E+00  0.71094397890E+00  0.11803971953E+01  0.00000000000E+00 0. -1.
         11    1    3    3    0    0  0.21562169850E+01 -0.17355514119E+02  0.34338650642E+00  0.17492314214E+02  0.51100000000E-03 0. -1.
        -11    1    3    3    0    0 -0.78979952724E+01 -0.26437391467E+02  0.15193328206E+00  0.27592337358E+02  0.51100000000E-03 0.  1.
        -12    1    3    3    0    0  0.52529339479E+01  0.44598465894E+02 -0.12062637674E+01  0.44922951232E+02  0.00000000000E+00 0.  1.
</event>
<event>
 7    1  0.2084210E-015  0.9000775E+02  0.7816164E-02  0.1186339E+00
        -11   -1    0    0    0    0  0.00000000000E+00  0.00000000000E+00  0.45593999997E+02  0.45594000000E+02  0.51100000000E-03 0.  1.
         11   -1    0    0    0    0 -0.00000000000E+00 -0.00000000000E+00 -0.45593999997E+02  0.45594000000E+02  0.51100000000E-03 0. -1.
    9900012    2    1    2    0    0 -0.54836700069E+00  0.78201291964E+00  0.69334739925E+00  0.90007753759E+02  0.90000015308E+02 0.  0.
         12    1    1    2    0    0  0.54836700069E+00 -0.78201291964E+00 -0.69334739925E+00  0.11802462412E+01  0.00000000000E+00 0. -1.
         11    1    3    3    0    0 -0.31812746164E+02  0.12734630096E+02 -0.14624862892E+02  0.37257324610E+02  0.51100000000E-03 0. -1.
        -11    1    3    3    0    0 -0.80326910437E+01  0.11681043910E+01 -0.10896908898E+01  0.81899951019E+01  0.51100000000E-03 0.  1.
        -12    1    3    3    0    0  0.39297070207E+02 -0.13120721567E+02  0.16407901181E+02  0.44560434047E+02  0.00000000000E+00 0.  1.
</event>
<event>
 7    1  0.2084210E-015  0.9000822E+02  0.7816164E-02  0.1186338E+00
        -11   -1    0    0    0    0  0.00000000000E+00  0.00000000000E+00  0.45593999997E+02  0.45594000000E+02  0.51100000000E-03 0. -1.
         11   -1    0    0    0    0 -0.00000000000E+00 -0.00000000000E+00 -0.45593999997E+02  0.45594000000E+02  0.51100000000E-03 0.  1.
    9900012    2    1    2    0    0 -0.40292352386E+00 -0.10346466159E+01 -0.39880813431E+00  0.90008216582E+02  0.90000484239E+02 0.  0.
         12    1    1    2    0    0  0.40292352386E+00  0.10346466159E+01  0.39880813431E+00  0.11797834182E+01  0.00000000000E+00 0. -1.
         11    1    3    3    0    0  0.25793147980E+02  0.78514301258E+01  0.96913160631E+01  0.28650533067E+02  0.51100000000E-03 0. -1.
        -11    1    3    3    0    0  0.12173839389E+02 -0.79381191230E+01  0.10379129161E+02  0.17858959182E+02  0.51100000000E-03 0.  1.
        -12    1    3    3    0    0 -0.38369910892E+02 -0.94795761870E+00 -0.20469253359E+02  0.43498724333E+02  0.00000000000E+00 0.  1.
</event>
<event>
 7    1  0.2084210E-015  0.9000775E+02  0.7816164E-02  0.1186339E+00
        -11   -1    0    0    0    0  0.00000000000E+00  0.00000000000E+00  0.45593999997E+02  0.45594000000E+02  0.51100000000E-03 0.  1.
         11   -1    0    0    0    0 -0.00000000000E+00 -0.00000000000E+00 -0.45593999997E+02  0.45594000000E+02  0.51100000000E-03 0. -1.
    9900012    2    1    2    0    0 -0.10247429144E+01 -0.18115968949E+00  0.55683727485E+00  0.90007752304E+02  0.90000013834E+02 0.  0.
         12    1    1    2    0    0  0.10247429144E+01  0.18115968949E+00 -0.55683727485E+00  0.11802476962E+01  0.00000000000E+00 0. -1.
         11    1    3    3    0    0  0.36537982366E+02  0.54113409888E+01 -0.17583149698E+02  0.40908115579E+02  0.51100000000E-03 0. -1.
        -11    1    3    3    0    0  0.15640476383E-01  0.54084216313E+01  0.60612564918E+01  0.81234290596E+01  0.51100000000E-03 0.  1.
        -12    1    3    3    0    0 -0.37578365757E+02 -0.11000922310E+02  0.12078730481E+02  0.40976207665E+02  0.00000000000E+00 0.  1.
</event>
<event>
 7    1  0.2084210E-015  0.9000789E+02  0.7816164E-02  0.1186339E+00
        -11   -1    0    0    0    0  0.00000000000E+00  0.00000000000E+00  0.45593999997E+02  0.45594000000E+02  0.51100000000E-03 0. -1.
         11   -1    0    0    0    0 -0.00000000000E+00 -0.00000000000E+00 -0.45593999997E+02  0.45594000000E+02  0.51100000000E-03 0.  1.
    9900012    2    1    2    0    0 -0.58431058531E+00 -0.99893750708E+00 -0.23098856381E+00  0.90007893768E+02  0.90000157165E+02 0.  0.
         12    1    1    2    0    0  0.58431058531E+00  0.99893750708E+00  0.23098856381E+00  0.11801062324E+01  0.00000000000E+00 0. -1.
         11    1    3    3    0    0  0.90198487766E+01 -0.33764219661E+01  0.19774312833E+01  0.98319953208E+01  0.51100000000E-03 0. -1.
        -11    1    3    3    0    0  0.14739913998E+02 -0.30936924849E+02 -0.14369855079E+02  0.37159805154E+02  0.51100000000E-03 0.  1.
         12    1    3    3    0    0 -0.24344073360E+02  0.33314409308E+02  0.12161435232E+02  0.43016093293E+02  0.00000000000E+00 0. -1.
</event>
<event>
 7    1  0.2084210E-015  0.9000777E+02  0.7816164E-02  0.1186339E+00
        -11   -1    0    0    0    0  0.00000000000E+00  0.00000000000E+00  0.45593999997E+02  0.45594000000E+02  0.51100000000E-03 0. -1.
         11   -1    0    0    0    0 -0.00000000000E+00 -0.00000000000E+00 -0.45593999997E+02  0.45594000000E+02  0.51100000000E-03 0.  1.
    9900012    2    1    2    0    0 -0.10795800582E+01  0.32466674647E+00  0.34935103261E+00  0.90007767929E+02  0.90000029665E+02 0.  0.
         12    1    1    2    0    0  0.10795800582E+01 -0.32466674647E+00 -0.34935103261E+00  0.11802320714E+01  0.00000000000E+00 0. -1.
         11    1    3    3    0    0  0.15802480667E+02 -0.25486875318E+02  0.24598005279E+02  0.38786093805E+02  0.51100000000E-03 0. -1.
        -11    1    3    3    0    0 -0.49997291074E+01  0.24651286096E+01  0.79519094900E+01  0.97111798978E+01  0.51100000000E-03 0.  1.
        -12    1    3    3    0    0 -0.11882331618E+02  0.23346413455E+02 -0.32200563736E+02  0.41510494225E+02  0.00000000000E+00 0.  1.
</event>
<event>
 7    1  0.2084210E-015  0.9000777E+02  0.7816164E-02  0.1186339E+00
        -11   -1    0    0    0    0  0.00000000000E+00  0.00000000000E+00  0.45593999997E+02  0.45594000000E+02  0.51100000000E-03 0.  1.
         11   -1    0    0    0    0 -0.00000000000E+00 -0.00000000000E+00 -0.45593999997E+02  0.45594000000E+02  0.51100000000E-03 0. -1.
    9900012    2    1    2    0    0  0.20165614424E+00 -0.44226907036E+00  0.10754882457E+01  0.90007770320E+02  0.90000032088E+02 0.  0.
         12    1    1    2    0    0 -0.20165614424E+00  0.44226907036E+00 -0.10754882457E+01  0.11802296801E+01  0.00000000000E+00 0. -1.
         11    1    3    3    0    0  0.21463606655E+01  0.13909546359E+01 -0.36547458499E+02  0.36636844050E+02  0.51100000000E-03 0. -1.
        -11    1    3    3    0    0  0.31762257299E+01  0.82386198240E+01 -0.43930744216E+01  0.98621686067E+01  0.51100000000E-03 0.  1.
        -12    1    3    3    0    0 -0.51209302512E+01 -0.10071843530E+02  0.42016021167E+02  0.43508757663E+02  0.00000000000E+00 0.  1.
</event>
<event>
 7    1  0.2084210E-015  0.9000778E+02  0.7816164E-02  0.1186339E+00
        -11   -1    0    0    0    0  0.00000000000E+00  0.00000000000E+00  0.45593999997E+02  0.45594000000E+02  0.51100000000E-03 0.  1.
         11   -1    0    0    0    0 -0.00000000000E+00 -0.00000000000E+00 -0.45593999997E+02  0.45594000000E+02  0.51100000000E-03 0. -1.
    9900012    2    1    2    0    0 -0.23720476622E+00  0.74164831858E+00  0.88690879588E+00  0.90007781570E+02  0.90000043487E+02 0.  0.
         12    1    1    2    0    0  0.23720476622E+00 -0.74164831858E+00 -0.88690879588E+00  0.11802184297E+01  0.00000000000E+00 0. -1.
         11    1    3    3    0    0  0.23056686586E+02  0.28916081073E+02 -0.21994712189E+02  0.43029268010E+02  0.51100000000E-03 0. -1.
        -11    1    3    3    0    0 -0.16103943909E+01 -0.18922166908E+01  0.10398693820E+02  0.10691430565E+02  0.51100000000E-03 0.  1.
        -12    1    3    3    0    0 -0.21683496961E+02 -0.26282216064E+02  0.12482927165E+02  0.36287082995E+02  0.00000000000E+00 0.  1.
</event>
<event>
 7    1  0.2084210E-015  0.9000772E+02  0.7816164E-02  0.1186339E+00
        -11   -1    0    0    0    0  0.00000000000E+00  0.00000000000E+00  0.45593999997E+02  0.45594000000E+02  0.51100000000E-03 0. -1.
         11   -1    0    0    0    0 -0.00000000000E+00 -0.00000000000E+00 -0.45593999997E+02  0.45594000000E+02  0.51100000000E-03 0.  1.
    9900012    2    1    2    0    0  0.71816686415E+00 -0.86630827468E+00  0.35611483567E+00  0.90007715523E+02  0.89999976567E+02 0.  0.
         12    1    1    2    0    0 -0.71816686415E+00  0.86630827468E+00 -0.35611483567E+00  0.11802844775E+01  0.00000000000E+00 0. -1.
         11    1    3    3    0    0 -0.97081754980E+00 -0.91952020465E+01 -0.25519845936E+01  0.95920202783E+01  0.51100000000E-03 0. -1.
        -11    1    3    3    0    0 -0.27676913672E+02  0.78801849075E+01 -0.26307570077E+02  0.38989705157E+02  0.51100000000E-03 0.  1.
         12    1    3    3    0    0  0.29365898086E+02  0.44870886436E+00  0.29215669507E+02  0.41425990088E+02  0.00000000000E+00 0. -1.
</event>
<event>
 7    1  0.2413217E-015  0.9000763E+02  0.7816164E-02  0.1186339E+00
        -11   -1    0    0    0    0  0.00000000000E+00  0.00000000000E+00  0.45593999997E+02  0.45594000000E+02  0.51100000000E-03 0.  1.
         11   -1    0    0    0    0 -0.00000000000E+00 -0.00000000000E+00 -0.45593999997E+02  0.45594000000E+02  0.51100000000E-03 0. -1.
    9900012    2    1    2    0    0 -0.11372407850E+00  0.49685018488E+00  0.10646450503E+01  0.90007634652E+02  0.89999894629E+02 0.  0.
         12    1    1    2    0    0  0.11372407850E+00 -0.49685018488E+00 -0.10646450503E+01  0.11803653482E+01  0.00000000000E+00 0. -1.
         11    1    3    3    0    0 -0.10485850718E+02 -0.27280997999E+02 -0.21731955342E+02  0.36420925309E+02  0.51100000000E-03 0. -1.
        -11    1    3    3    0    0 -0.74674451622E+01 -0.20807678447E+00 -0.60509207914E+01  0.96135152720E+01  0.51100000000E-03 0.  1.
        -12    1    3    3    0    0  0.17839571802E+02  0.27985924968E+02  0.28847521184E+02  0.43973194071E+02  0.00000000000E+00 0.  1.
</event>
<event>
 7    1  0.2084210E-015  0.9000772E+02  0.7816164E-02  0.1186339E+00
        -11   -1    0    0    0    0  0.00000000000E+00  0.00000000000E+00  0.45593999997E+02  0.45594000000E+02  0.51100000000E-03 0. -1.
         11   -1    0    0    0    0 -0.00000000000E+00 -0.00000000000E+00 -0.45593999997E+02  0.45594000000E+02  0.51100000000E-03 0.  1.
    9900012    2    1    2    0    0  0.42000363412E+00  0.10680599053E+01  0.27550655089E+00  0.90007720849E+02  0.89999981965E+02 0.  0.
         12    1    1    2    0    0 -0.42000363412E+00 -0.10680599053E+01 -0.27550655089E+00  0.11802791507E+01  0.00000000000E+00 0. -1.
         11    1    3    3    0    0 -0.79834721368E+01 -0.26995362495E+01 -0.11319109979E+01  0.85032079882E+01  0.51100000000E-03 0. -1.
        -11    1    3    3    0    0 -0.35840829857E+02  0.40278906162E+01 -0.62433180249E+01  0.36602841528E+02  0.51100000000E-03 0.  1.
         12    1    3    3    0    0  0.44244305628E+02 -0.26029446135E+00  0.76507355736E+01  0.44901671334E+02  0.00000000000E+00 0. -1.
</event>
<event>
 7    1  0.2084210E-015  0.9000776E+02  0.7816164E-02  0.1186339E+00
        -11   -1    0    0    0    0  0.00000000000E+00  0.00000000000E+00  0.45593999997E+02  0.45594000000E+02  0.51100000000E-03 0. -1.
         11   -1    0    0    0    0 -0.00000000000E+00 -0.00000000000E+00 -0.45593999997E+02  0.45594000000E+02  0.51100000000E-03 0.  1.
    9900012    2    1    2    0    0  0.10452253935E+01  0.43863128495E+00 -0.32874222286E+00  0.90007760628E+02  0.90000022268E+02 0.  0.
         12    1    1    2    0    0 -0.10452253935E+01 -0.43863128495E+00  0.32874222286E+00  0.11802393725E+01  0.00000000000E+00 0. -1.
         11    1    3    3    0    0 -0.31174657923E+00  0.36505186204E+02  0.15656428271E+01  0.36540074486E+02  0.51100000000E-03 0. -1.
        -11    1    3    3    0    0  0.44387446752E+01  0.80071849315E+01  0.89210838148E+00  0.91985500186E+01  0.51100000000E-03 0.  1.
        -12    1    3    3    0    0 -0.30817727025E+01 -0.44073739851E+02 -0.27864934314E+01  0.44269136123E+02  0.00000000000E+00 0.  1.
</event>
<event>
 7    1  0.2084210E-015  0.9000774E+02  0.7816164E-02  0.1186339E+00
        -11   -1    0    0    0    0  0.00000000000E+00  0.00000000000E+00  0.45593999997E+02  0.45594000000E+02  0.51100000000E-03 0.  1.
         11   -1    0    0    0    0 -0.00000000000E+00 -0.00000000000E+00 -0.45593999997E+02  0.45594000000E+02  0.51100000000E-03 0. -1.
    9900012    2    1    2    0    0  0.11738166933E+01  0.48420890867E-01  0.11320430184E+00  0.90007743491E+02  0.90000004906E+02 0.  0.
         12    1    1    2    0    0 -0.11738166933E+01 -0.48420890867E-01 -0.11320430184E+00  0.11802565086E+01  0.00000000000E+00 0. -1.
         11    1    3    3    0    0  0.69897524940E+01 -0.12769760141E-01 -0.64974144929E+01  0.95432278789E+01  0.51100000000E-03 0. -1.
        -11    1    3    3    0    0  0.34946765020E+02  0.12650350045E+01 -0.10090986017E+02  0.36396492935E+02  0.51100000000E-03 0.  1.
         12    1    3    3    0    0 -0.40762700821E+02 -0.12038443535E+01  0.16701604812E+02  0.44068022678E+02  0.00000000000E+00 0. -1.
</event>
<event>
 7    1  0.2084210E-015  0.9000768E+02  0.7816164E-02  0.1186339E+00
        -11   -1    0    0    0    0  0.00000000000E+00  0.00000000000E+00  0.45593999997E+02  0.45594000000E+02  0.51100000000E-03 0.  1.
         11   -1    0    0    0    0 -0.00000000000E+00 -0.00000000000E+00 -0.45593999997E+02  0.45594000000E+02  0.51100000000E-03 0. -1.
    9900012    2    1    2    0    0  0.84167249612E+00 -0.51869258383E+00  0.64474232472E+00  0.90007683410E+02  0.89999944031E+02 0.  0.
         12    1    1    2    0    0 -0.84167249612E+00  0.51869258383E+00 -0.64474232472E+00  0.11803165900E+01  0.00000000000E+00 0. -1.
         11    1    3    3    0    0  0.26577913812E+02  0.10670817328E+02 -0.22943709580E+02  0.36696943396E+02  0.51100000000E-03 0. -1.
        -11    1    3    3    0    0  0.34252226382E+01  0.36242990510E+01 -0.69554745806E+01  0.85584064308E+01  0.51100000000E-03 0.  1.
        -12    1    3    3    0    0 -0.29161463954E+02 -0.14813808963E+02  0.30543926486E+02  0.44752333583E+02  0.00000000000E+00 0.  1.
</event>
<event>
 7    1  0.2084210E-015  0.9000791E+02  0.7816164E-02  0.1186339E+00
        -11   -1    0    0    0    0  0.00000000000E+00  0.00000000000E+00  0.45593999997E+02  0.45594000000E+02  0.51100000000E-03 0.  1.
         11   -1    0    0    0    0 -0.00000000000E+00 -0.00000000000E+00 -0.45593999997E+02  0.45594000000E+02  0.51100000000E-03 0. -1.
    9900012    2    1    2    0    0  0.72226720572E+00 -0.93306474506E+00  0.18418922531E-01  0.90007907211E+02  0.90000170786E+02 0.  0.
         12    1    1    2    0    0 -0.72226720572E+00  0.93306474506E+00 -0.18418922531E-01  0.11800927894E+01  0.00000000000E+00 0. -1.
         11    1    3    3    0    0  0.83468053219E+01  0.23661640787E+02 -0.17490167621E+02  0.30585100417E+02  0.51100000000E-03 0. -1.
        -11    1    3    3    0    0 -0.14388867511E+02  0.12504803626E+02  0.53426073223E+01  0.19797804809E+02  0.51100000000E-03 0.  1.
        -12    1    3    3    0    0  0.67643293951E+01 -0.37099509158E+02  0.12165979221E+02  0.39625001985E+02  0.00000000000E+00 0.  1.
</event>
<event>
 7    1  0.2084210E-015  0.9000776E+02  0.7816164E-02  0.1186339E+00
        -11   -1    0    0    0    0  0.00000000000E+00  0.00000000000E+00  0.45593999997E+02  0.45594000000E+02  0.51100000000E-03 0.  1.
         11   -1    0    0    0    0 -0.00000000000E+00 -0.00000000000E+00 -0.45593999997E+02  0.45594000000E+02  0.51100000000E-03 0. -1.
    9900012    2    1    2    0    0  0.11523265934E+01 -0.10923082053E+00  0.23059907559E+00  0.90007761090E+02  0.90000022737E+02 0.  0.
         12    1    1    2    0    0 -0.11523265934E+01  0.10923082053E+00 -0.23059907559E+00  0.11802389095E+01  0.00000000000E+00 0. -1.
         11    1    3    3    0    0  0.75231793815E+00 -0.78800998652E+01  0.51430451561E+01  0.94399613296E+01  0.51100000000E-03 0. -1.
        -11    1    3    3    0    0 -0.27358465261E+02  0.69173019429E+01  0.26449546231E+02  0.38677036904E+02  0.51100000000E-03 0.  1.
         12    1    3    3    0    0  0.27758473916E+02  0.85356710172E+00 -0.31361992312E+02  0.41890762857E+02  0.00000000000E+00 0. -1.
</event>
<event>
 7    1  0.2564020E-015  0.9000767E+02  0.7816164E-02  0.1186339E+00
        -11   -1    0    0    0    0  0.00000000000E+00  0.00000000000E+00  0.45593999997E+02  0.45594000000E+02  0.51100000000E-03 0. -1.
         11   -1    0    0    0    0 -0.00000000000E+00 -0.00000000000E+00 -0.45593999997E+02  0.45594000000E+02  0.51100000000E-03 0.  1.
    9900012    2    1    2    0    0 -0.10658500939E+01 -0.50061803890E+00 -0.80703486678E-01  0.90007674665E+02  0.89999935171E+02 0.  0.
         12    1    1    2    0    0  0.10658500939E+01  0.50061803890E+00  0.80703486678E-01  0.11803253349E+01  0.00000000000E+00 0. -1.
         11    1    3    3    0    0  0.37037321119E+02 -0.38476192399E+01  0.17445505043E+02  0.41120712250E+02  0.51100000000E-03 0. -1.
        -11    1    3    3    0    0  0.26729595989E+00  0.11851180536E+01 -0.95622861873E+01  0.96391529358E+01  0.51100000000E-03 0.  1.
        -12    1    3    3    0    0 -0.38370467173E+02  0.21618831473E+01 -0.79639223425E+01  0.39247809479E+02  0.00000000000E+00 0.  1.
</event>
<event>
 7    1  0.2084210E-015  0.9000775E+02  0.7816164E-02  0.1186339E+00
        -11   -1    0    0    0    0  0.00000000000E+00  0.00000000000E+00  0.45593999997E+02  0.45594000000E+02  0.51100000000E-03 0.  1.
         11   -1    0    0    0    0 -0.00000000000E+00 -0.00000000000E+00 -0.45593999997E+02  0.45594000000E+02  0.51100000000E-03 0. -1.
    9900012    2    1    2    0    0 -0.99810046287E+00 -0.22715380101E+00 -0.58753288938E+00  0.90007746519E+02  0.90000007973E+02 0.  0.
         12    1    1    2    0    0  0.99810046287E+00  0.22715380101E+00  0.58753288938E+00  0.11802534810E+01  0.00000000000E+00 0. -1.
         11    1    3    3    0    0  0.12613066026E+02  0.30406324386E+01 -0.41547621483E+02  0.43526310794E+02  0.51100000000E-03 0. -1.
        -11    1    3    3    0    0  0.27606771883E+00  0.52588947790E+01  0.65244365697E+01  0.83845369876E+01  0.51100000000E-03 0.  1.
        -12    1    3    3    0    0 -0.13887234208E+02 -0.85266810186E+01  0.34435652023E+02  0.38096898738E+02  0.00000000000E+00 0.  1.
</event>
<event>
 7    1  0.2084210E-015  0.9000774E+02  0.7816164E-02  0.1186339E+00
        -11   -1    0    0    0    0  0.00000000000E+00  0.00000000000E+00  0.45593999997E+02  0.45594000000E+02  0.51100000000E-03 0. -1.
         11   -1    0    0    0    0 -0.00000000000E+00 -0.00000000000E+00 -0.45593999997E+02  0.45594000000E+02  0.51100000000E-03 0.  1.
    9900012    2    1    2    0    0 -0.49243150914E+00  0.10709631479E+01 -0.59717613606E-01  0.90007738568E+02  0.89999999917E+02 0.  0.
         12    1    1    2    0    0  0.49243150914E+00 -0.10709631479E+01  0.59717613606E-01  0.11802614323E+01  0.00000000000E+00 0. -1.
         11    1    3    3    0    0 -0.44223850373E+01  0.86734866632E+01 -0.15009682000E+01  0.98508764135E+01  0.51100000000E-03 0. -1.
        -11    1    3    3    0    0  0.56450164819E+00 -0.42277847358E+02 -0.10073384047E+02  0.43465021635E+02  0.51100000000E-03 0.  1.
         12    1    3    3    0    0  0.33654518800E+01  0.34675323843E+02  0.11514634633E+02  0.36691840519E+02  0.00000000000E+00 0. -1.
</event>
<event>
 7    1  0.2084210E-015  0.9000753E+02  0.7816164E-02  0.1186339E+00
        -11   -1    0    0    0    0  0.00000000000E+00  0.00000000000E+00  0.45593999997E+02  0.45594000000E+02  0.51100000000E-03 0. -1.
         11   -1    0    0    0    0 -0.00000000000E+00 -0.00000000000E+00 -0.45593999997E+02  0.45594000000E+02  0.51100000000E-03 0.  1.
    9900012    2    1    2    0    0  0.40854980137E+00  0.79708334507E+00 -0.76893237843E+00  0.90007528992E+02  0.89999787574E+02 0.  0.
         12    1    1    2    0    0 -0.40854980137E+00 -0.79708334507E+00  0.76893237843E+00  0.11804710084E+01  0.00000000000E+00 0. -1.
         11    1    3    3    0    0  0.46149036531E+00 -0.64486223015E+01 -0.93326604333E+01  0.11353248609E+02  0.51100000000E-03 0. -1.
        -11    1    3    3    0    0  0.23988276771E+02  0.24268674922E+02 -0.18357509636E+02  0.38747956916E+02  0.51100000000E-03 0.  1.
         12    1    3    3    0    0 -0.24041217335E+02 -0.17022969275E+02  0.26921237690E+02  0.39906323467E+02  0.00000000000E+00 0. -1.
</event>
<event>
 7    1  0.2084210E-015  0.9000776E+02  0.7816164E-02  0.1186339E+00
        -11   -1    0    0    0    0  0.00000000000E+00  0.00000000000E+00  0.45593999997E+02  0.45594000000E+02  0.51100000000E-03 0.  1.
         11   -1    0    0    0    0 -0.00000000000E+00 -0.00000000000E+00 -0.45593999997E+02  0.45594000000E+02  0.51100000000E-03 0. -1.
    9900012    2    1    2    0    0  0.88952272765E+00 -0.27569892394E+00  0.72505113456E+00  0.90007762851E+02  0.90000024521E+02 0.  0.
         12    1    1    2    0    0 -0.88952272765E+00  0.27569892394E+00 -0.72505113456E+00  0.11802371488E+01  0.00000000000E+00 0. -1.
         11    1    3    3    0    0  0.19131731437E+02  0.40484781319E+01 -0.28287024597E+02  0.34388502203E+02  0.51100000000E-03 0. -1.
        -11    1    3    3    0    0  0.11628662285E+02  0.31172714150E+01 -0.16720575081E+01  0.12154790997E+02  0.51100000000E-03 0.  1.
        -12    1    3    3    0    0 -0.29870870995E+02 -0.74414484708E+01  0.30684133240E+02  0.43464469651E+02  0.00000000000E+00 0.  1.
</event>
<event>
 7    1  0.2084210E-015  0.9000754E+02  0.7816164E-02  0.1186339E+00
        -11   -1    0    0    0    0  0.00000000000E+00  0.00000000000E+00  0.45593999997E+02  0.45594000000E+02  0.51100000000E-03 0.  1.
         11   -1    0    0    0    0 -0.00000000000E+00 -0.00000000000E+00 -0.45593999997E+02  0.45594000000E+02  0.51100000000E-03 0. -1.
    9900012    2    1    2    0    0 -0.10743914201E+01  0.48872006769E+00 -0.18016352319E-01  0.90007538727E+02  0.89999797438E+02 0.  0.
         12    1    1    2    0    0  0.10743914201E+01 -0.48872006769E+00  0.18016352319E-01  0.11804612730E+01  0.00000000000E+00 0. -1.
         11    1    3    3    0    0  0.61503787569E+00 -0.13114015160E+02 -0.31826384389E+02  0.34427814464E+02  0.51100000000E-03 0. -1.
        -11    1    3    3    0    0 -0.13376563822E+01 -0.21370397565E+01 -0.10310668995E+02  0.10614431634E+02  0.51100000000E-03 0.  1.
        -12    1    3    3    0    0 -0.35177291358E+00  0.15739774984E+02  0.42119037032E+02  0.44965292629E+02  0.00000000000E+00 0.  1.
</event>
<event>
 7    1  0.2084210E-015  0.9000773E+02  0.7816164E-02  0.1186339E+00
        -11   -1    0    0    0    0  0.00000000000E+00  0.00000000000E+00  0.45593999997E+02  0.45594000000E+02  0.51100000000E-03 0. -1.
         11   -1    0    0    0    0 -0.00000000000E+00 -0.00000000000E+00 -0.45593999997E+02  0.45594000000E+02  0.51100000000E-03 0.  1.
    9900012    2    1    2    0    0 -0.88635167638E+00 -0.30778850501E+00 -0.71601688433E+00  0.90007731710E+02  0.89999992968E+02 0.  0.
         12    1    1    2    0    0  0.88635167638E+00  0.30778850501E+00  0.71601688433E+00  0.11802682901E+01  0.00000000000E+00 0. -1.
         11    1    3    3    0    0  0.14488435063E+02 -0.25668890744E+02 -0.20047132767E+02  0.35646798384E+02  0.51100000000E-03 0. -1.
        -11    1    3    3    0    0 -0.33698701720E+01 -0.70403828572E+01 -0.73373145361E+01  0.10712572082E+02  0.51100000000E-03 0.  1.
        -12    1    3    3    0    0 -0.12004916568E+02  0.32401485096E+02  0.26668430418E+02  0.43648361243E+02  0.00000000000E+00 0.  1.
</event>
<event>
 7    1  0.2084210E-015  0.9000775E+02  0.7816164E-02  0.1186339E+00
        -11   -1    0    0    0    0  0.00000000000E+00  0.00000000000E+00  0.45593999997E+02  0.45594000000E+02  0.51100000000E-03 0.  1.
         11   -1    0    0    0    0 -0.00000000000E+00 -0.00000000000E+00 -0.45593999997E+02  0.45594000000E+02  0.51100000000E-03 0. -1.
    9900012    2    1    2    0    0  0.10604478622E+00  0.31511929981E+00  0.11324518341E+01  0.90007748829E+02  0.90000010314E+02 0.  0.
         12    1    1    2    0    0 -0.10604478622E+00 -0.31511929981E+00 -0.11324518341E+01  0.11802511708E+01  0.00000000000E+00 0. -1.
         11    1    3    3    0    0 -0.18744593265E+02  0.85399573550E+01 -0.33970345239E+02  0.39727509414E+02  0.51100000000E-03 0. -1.
        -11    1    3    3    0    0 -0.64864905460E+01  0.40977472473E+01  0.57042058747E+01  0.95605469000E+01  0.51100000000E-03 0.  1.
        -12    1    3    3    0    0  0.25337128597E+02 -0.12322585302E+02  0.29398591199E+02  0.40719692515E+02  0.00000000000E+00 0.  1.
</event>
<event>
 7    1  0.2084210E-015  0.9000776E+02  0.7816164E-02  0.1186339E+00
        -11   -1    0    0    0    0  0.00000000000E+00  0.00000000000E+00  0.45593999997E+02  0.45594000000E+02  0.51100000000E-03 0. -1.
         11   -1    0    0    0    0 -0.00000000000E+00 -0.00000000000E+00 -0.45593999997E+02  0.45594000000E+02  0.51100000000E-03 0.  1.
    9900012    2    1    2    0    0  0.83957285005E+00 -0.79899611345E+00 -0.22288424713E+00  0.90007764961E+02  0.90000026658E+02 0.  0.
         12    1    1    2    0    0 -0.83957285005E+00  0.79899611345E+00  0.22288424713E+00  0.11802350391E+01  0.00000000000E+00 0. -1.
         11    1    3    3    0    0 -0.16277575739E+02  0.41283333990E+01  0.32623736859E+02  0.36692108355E+02  0.51100000000E-03 0. -1.
        -11    1    3    3    0    0 -0.18508894811E+01 -0.10448430209E+02  0.41349299036E+01  0.11388289217E+02  0.51100000000E-03 0.  1.
        -12    1    3    3    0    0  0.18968038070E+02  0.55211006970E+01 -0.36981551010E+02  0.41927367390E+02  0.00000000000E+00 0.  1.
</event>
<event>
 7    1  0.3098687E-015  0.9000779E+02  0.7816164E-02  0.1186339E+00
        -11   -1    0    0    0    0  0.00000000000E+00  0.00000000000E+00  0.45593999997E+02  0.45594000000E+02  0.51100000000E-03 0. -1.
         11   -1    0    0    0    0 -0.00000000000E+00 -0.00000000000E+00 -0.45593999997E+02  0.45594000000E+02  0.51100000000E-03 0.  1.
    9900012    2    1    2    0    0  0.29533059183E+00  0.92690184263E+00 -0.66822194590E+00  0.90007793343E+02  0.90000055415E+02 0.  0.
         12    1    1    2    0    0 -0.29533059183E+00 -0.92690184263E+00  0.66822194590E+00  0.11802066570E+01  0.00000000000E+00 0. -1.
         11    1    3    3    0    0 -0.52800528576E+01  0.27955344604E+02  0.30214964779E+02  0.41500895737E+02  0.51100000000E-03 0. -1.
        -11    1    3    3    0    0 -0.16643898686E+01  0.38915811233E+01 -0.89861222954E+01  0.99330252916E+01  0.51100000000E-03 0.  1.
        -12    1    3    3    0    0  0.72397733180E+01 -0.30920023885E+02 -0.21897064429E+02  0.38573872315E+02  0.00000000000E+00 0.  1.
</event>
<event>
 7    1  0.2084210E-015  0.9000761E+02  0.7816164E-02  0.1186339E+00
        -11   -1    0    0    0    0  0.00000000000E+00  0.00000000000E+00  0.45593999997E+02  0.45594000000E+02  0.51100000000E-03 0. -1.
         11   -1    0    0    0    0 -0.00000000000E+00 -0.00000000000E+00 -0.45593999997E+02  0.45594000000E+02  0.51100000000E-03 0.  1.
    9900012    2    1    2    0    0 -0.93102413215E+00 -0.37573683543E+00 -0.62075438526E+00  0.90007610187E+02  0.89999869841E+02 0.  0.
         12    1    1    2    0    0  0.93102413215E+00  0.37573683543E+00  0.62075438526E+00  0.11803898131E+01  0.00000000000E+00 0. -1.
         11    1    3    3    0    0 -0.36055439140E+00 -0.14042733993E+02 -0.36007098471E+02  0.38650220155E+02  0.51100000000E-03 0. -1.
        -11    1    3    3    0    0 -0.53963492707E+01 -0.10110021600E+02  0.50790889084E+01  0.12535161212E+02  0.51100000000E-03 0.  1.
        -12    1    3    3    0    0  0.48258795299E+01  0.23777018757E+02  0.30307255177E+02  0.38822228821E+02  0.00000000000E+00 0.  1.
</event>
<event>
 7    1  0.2084210E-015  0.9000796E+02  0.7816164E-02  0.1186339E+00
        -11   -1    0    0    0    0  0.00000000000E+00  0.00000000000E+00  0.45593999997E+02  0.45594000000E+02  0.51100000000E-03 0.  1.
         11   -1    0    0    0    0 -0.00000000000E+00 -0.00000000000E+00 -0.45593999997E+02  0.45594000000E+02  0.51100000000E-03 0. -1.
    9900012    2    1    2    0    0 -0.99287128862E+00  0.40032248321E+00  0.49643391956E+00  0.90007958423E+02  0.90000222674E+02 0.  0.
         12    1    1    2    0    0  0.99287128862E+00 -0.40032248321E+00 -0.49643391956E+00  0.11800415767E+01  0.00000000000E+00 0. -1.
         11    1    3    3    0    0  0.20177373545E+02 -0.76402539736E+01 -0.30248604354E+02  0.37154783670E+02  0.51100000000E-03 0. -1.
        -11    1    3    3    0    0  0.19250865413E+00 -0.69093658441E+01 -0.50556925374E+01  0.85636687957E+01  0.51100000000E-03 0.  1.
        -12    1    3    3    0    0 -0.21362753488E+02  0.14949942301E+02  0.35800730811E+02  0.44289505958E+02  0.00000000000E+00 0.  1.
</event>
<event>
 7    1  0.2084210E-015  0.9000790E+02  0.7816164E-02  0.1186339E+00
        -11   -1    0    0    0    0  0.00000000000E+00  0.00000000000E+00  0.45593999997E+02  0.45594000000E+02  0.51100000000E-03 0.  1.
         11   -1    0    0    0    0 -0.00000000000E+00 -0.00000000000E+00 -0.45593999997E+02  0.45594000000E+02  0.51100000000E-03 0. -1.
    9900012    2    1    2    0    0 -0.28960957856E+00  0.10543658223E+01  0.44393367154E+00  0.90007899114E+02  0.90000162583E+02 0.  0.
         12    1    1    2    0    0  0.28960957856E+00 -0.10543658223E+01 -0.44393367154E+00  0.11801008855E+01  0.00000000000E+00 0. -1.
         11    1    3    3    0    0 -0.48763338237E+01  0.65795857625E+01 -0.52401247761E+01  0.97225762170E+01  0.51100000000E-03 0. -1.
        -11    1    3    3    0    0  0.16009673240E+02  0.24835942677E+02  0.28162090764E+02  0.40819566906E+02  0.51100000000E-03 0.  1.
         12    1    3    3    0    0 -0.11422948995E+02 -0.30361162617E+02 -0.22478032316E+02  0.39465755992E+02  0.00000000000E+00 0. -1.
</event>
<event>
 7    1  0.2084210E-015  0.9000773E+02  0.7816164E-02  0.1186339E+00
        -11   -1    0    0    0    0  0.00000000000E+00  0.00000000000E+00  0.45593999997E+02  0.45594000000E+02  0.51100000000E-03 0.  1.
         11   -1    0    0    0    0 -0.00000000000E+00 -0.00000000000E+00 -0.45593999997E+02  0.45594000000E+02  0.51100000000E-03 0. -1.
    9900012    2    1    2    0    0  0.31487108730E+00 -0.25644393267E+00  0.11082083336E+01  0.90007731809E+02  0.89999993069E+02 0.  0.
         12    1    1    2    0    0 -0.31487108730E+00  0.25644393267E+00 -0.11082083336E+01  0.11802681911E+01  0.00000000000E+00 0. -1.
         11    1    3    3    0    0  0.38128506229E+02 -0.93516904435E+01 -0.13189243228E+02  0.41414891508E+02  0.51100000000E-03 0. -1.
        -11    1    3    3    0    0 -0.21180985785E+01  0.97739749863E+01 -0.34028459343E+00  0.10006633924E+02  0.51100000000E-03 0.  1.
        -12    1    3    3    0    0 -0.35695536563E+02 -0.67872847540E+00  0.14637736155E+02  0.38586206377E+02  0.00000000000E+00 0.  1.
</event>
<event>
 7    1  0.2084210E-015  0.9000764E+02  0.7816164E-02  0.1186339E+00
        -11   -1    0    0    0    0  0.00000000000E+00  0.00000000000E+00  0.45593999997E+02  0.45594000000E+02  0.51100000000E-03 0.  1.
         11   -1    0    0    0    0 -0.00000000000E+00 -0.00000000000E+00 -0.45593999997E+02  0.45594000000E+02  0.51100000000E-03 0. -1.
    9900012    2    1    2    0    0  0.10617033399E+01 -0.56785624514E-01 -0.51264353471E+00  0.90007643282E+02  0.89999903373E+02 0.  0.
         12    1    1    2    0    0 -0.10617033399E+01  0.56785624514E-01  0.51264353471E+00  0.11803567185E+01  0.00000000000E+00 0. -1.
         11    1    3    3    0    0  0.15623917506E+02 -0.29100553857E+02 -0.21350071080E+02  0.39329055015E+02  0.51100000000E-03 0. -1.
        -11    1    3    3    0    0 -0.70991121782E+01 -0.49540763516E+01 -0.22075720869E+01  0.89338480509E+01  0.51100000000E-03 0.  1.
        -12    1    3    3    0    0 -0.74631019876E+01  0.33997844584E+02  0.23044999632E+02  0.41744740216E+02  0.00000000000E+00 0.  1.
</event>
<event>
 7    1  0.2084210E-015  0.9000769E+02  0.7816164E-02  0.1186339E+00
        -11   -1    0    0    0    0  0.00000000000E+00  0.00000000000E+00  0.45593999997E+02  0.45594000000E+02  0.51100000000E-03 0.  1.
         11   -1    0    0    0    0 -0.00000000000E+00 -0.00000000000E+00 -0.45593999997E+02  0.45594000000E+02  0.51100000000E-03 0. -1.
    9900012    2    1    2    0    0  0.10795506502E+01  0.43399144924E+00  0.19838508489E+00  0.90007688674E+02  0.89999949365E+02 0.  0.
         12    1    1    2    0    0 -0.10795506502E+01 -0.43399144924E+00 -0.19838508489E+00  0.11803113260E+01  0.00000000000E+00 0. -1.
         11    1    3    3    0    0 -0.10045605110E+02 -0.29046238720E+01  0.64355607331E+01  0.12278740329E+02  0.51100000000E-03 0. -1.
        -11    1    3    3    0    0  0.21371946496E+01  0.29875082985E+02  0.22600984600E+02  0.37521896134E+02  0.51100000000E-03 0.  1.
         12    1    3    3    0    0  0.89879611107E+01 -0.26536467663E+02 -0.28838160248E+02  0.40207052211E+02  0.00000000000E+00 0. -1.
</event>
<event>
 7    1  0.2084210E-015  0.9000726E+02  0.7816164E-02  0.1186340E+00
        -11   -1    0    0    0    0  0.00000000000E+00  0.00000000000E+00  0.45593999997E+02  0.45594000000E+02  0.51100000000E-03 0.  1.
         11   -1    0    0    0    0 -0.00000000000E+00 -0.00000000000E+00 -0.45593999997E+02  0.45594000000E+02  0.51100000000E-03 0. -1.
    9900012    2    1    2    0    0 -0.69827218232E+00 -0.88702287149E+00  0.34605064053E+00  0.90007260968E+02  0.89999516012E+02 0.  0.
         12    1    1    2    0    0  0.69827218232E+00  0.88702287149E+00 -0.34605064053E+00  0.11807390317E+01  0.00000000000E+00 0. -1.
         11    1    3    3    0    0 -0.18664067080E+02 -0.30733180268E+02 -0.18751610913E+02  0.40552418935E+02  0.51100000000E-03 0. -1.
        -11    1    3    3    0    0 -0.57949330846E+01 -0.38679560052E+00  0.71024173104E+01  0.91747039300E+01  0.51100000000E-03 0.  1.
        -12    1    3    3    0    0  0.23760727982E+02  0.30232952997E+02  0.11995244243E+02  0.40280138103E+02  0.00000000000E+00 0.  1.
</event>
<event>
 7    1  0.2084210E-015  0.9000777E+02  0.7816164E-02  0.1186339E+00
        -11   -1    0    0    0    0  0.00000000000E+00  0.00000000000E+00  0.45593999997E+02  0.45594000000E+02  0.51100000000E-03 0.  1.
         11   -1    0    0    0    0 -0.00000000000E+00 -0.00000000000E+00 -0.45593999997E+02  0.45594000000E+02  0.51100000000E-03 0. -1.
    9900012    2    1    2    0    0  0.10322714835E+01 -0.56560222171E+00  0.86345288468E-01  0.90007768752E+02  0.90000030500E+02 0.  0.
         12    1    1    2    0    0 -0.10322714835E+01  0.56560222171E+00 -0.86345288468E-01  0.11802312476E+01  0.00000000000E+00 0. -1.
         11    1    3    3    0    0  0.33342005400E+02 -0.18481279269E+02 -0.15786715795E+02  0.41260967068E+02  0.51100000000E-03 0. -1.
        -11    1    3    3    0    0  0.14183070795E+01  0.67500536917E+01  0.10862052026E+02  0.12866973004E+02  0.51100000000E-03 0.  1.
        -12    1    3    3    0    0 -0.33728040996E+02  0.11165623356E+02  0.50110090575E+01  0.35879828680E+02  0.00000000000E+00 0.  1.
</event>
<event>
 7    1  0.2084210E-015  0.9000762E+02  0.7816164E-02  0.1186339E+00
        -11   -1    0    0    0    0  0.00000000000E+00  0.00000000000E+00  0.45593999997E+02  0.45594000000E+02  0.51100000000E-03 0.  1.
         11   -1    0    0    0    0 -0.00000000000E+00 -0.00000000000E+00 -0.45593999997E+02  0.45594000000E+02  0.51100000000E-03 0. -1.
    9900012    2    1    2    0    0 -0.25368404242E+00  0.72639328083E+00  0.89515660031E+00  0.90007615261E+02  0.89999874983E+02 0.  0.
         12    1    1    2    0    0  0.25368404242E+00 -0.72639328083E+00 -0.89515660031E+00  0.11803847385E+01  0.00000000000E+00 0. -1.
         11    1    3    3    0    0 -0.31304224451E+01  0.10843252876E+02 -0.34899733283E+02  0.36679245645E+02  0.51100000000E-03 0. -1.
        -11    1    3    3    0    0 -0.64140542513E+01  0.10717393823E+02  0.21419531713E+01  0.12672434097E+02  0.51100000000E-03 0.  1.
        -12    1    3    3    0    0  0.92907926540E+01 -0.20834253418E+02  0.33652936712E+02  0.40655935519E+02  0.00000000000E+00 0.  1.
</event>
<event>
 7    1  0.2084210E-015  0.9000766E+02  0.7816164E-02  0.1186339E+00
        -11   -1    0    0    0    0  0.00000000000E+00  0.00000000000E+00  0.45593999997E+02  0.45594000000E+02  0.51100000000E-03 0.  1.
         11   -1    0    0    0    0 -0.00000000000E+00 -0.00000000000E+00 -0.45593999997E+02  0.45594000000E+02  0.51100000000E-03 0. -1.
    9900012    2    1    2    0    0 -0.11660738160E+01  0.63990078970E-01  0.17138852459E+00  0.90007662378E+02  0.89999922722E+02 0.  0.
         12    1    1    2    0    0  0.11660738160E+01 -0.63990078970E-01 -0.17138852459E+00  0.11803376216E+01  0.00000000000E+00 0. -1.
         11    1    3    3    0    0 -0.25542806852E+02  0.16233139773E+02  0.14848775672E+02  0.33711065661E+02  0.51100000000E-03 0. -1.
        -11    1    3    3    0    0 -0.59751540487E+01  0.11673173767E+02 -0.25354371566E+01  0.13356417691E+02  0.51100000000E-03 0.  1.
        -12    1    3    3    0    0  0.30351887084E+02 -0.27842323461E+02 -0.12141949991E+02  0.42940179027E+02  0.00000000000E+00 0.  1.
</event>
<event>
 7    1  0.2084210E-015  0.9000763E+02  0.7816164E-02  0.1186339E+00
        -11   -1    0    0    0    0  0.00000000000E+00  0.00000000000E+00  0.45593999997E+02  0.45594000000E+02  0.51100000000E-03 0.  1.
         11   -1    0    0    0    0 -0.00000000000E+00 -0.00000000000E+00 -0.45593999997E+02  0.45594000000E+02  0.51100000000E-03 0. -1.
    9900012    2    1    2    0    0 -0.25624442777E+00  0.28659208090E+00  0.11160047153E+01  0.90007634484E+02  0.89999894459E+02 0.  0.
         12    1    1    2    0    0  0.25624442777E+00 -0.28659208090E+00 -0.11160047153E+01  0.11803655163E+01  0.00000000000E+00 0. -1.
         11    1    3    3    0    0  0.11434209115E+02 -0.15254161342E+00 -0.57734791877E+01  0.12810053443E+02  0.51100000000E-03 0. -1.
        -11    1    3    3    0    0  0.24584432721E+01  0.34102200349E+02  0.18507272945E+02  0.38878312259E+02  0.51100000000E-03 0.  1.
         12    1    3    3    0    0 -0.14148896815E+02 -0.33663066655E+02 -0.11617789042E+02  0.38319268781E+02  0.00000000000E+00 0. -1.
</event>
<event>
 7    1  0.2254514E-015  0.9000782E+02  0.7816164E-02  0.1186339E+00
        -11   -1    0    0    0    0  0.00000000000E+00  0.00000000000E+00  0.45593999997E+02  0.45594000000E+02  0.51100000000E-03 0.  1.
         11   -1    0    0    0    0 -0.00000000000E+00 -0.00000000000E+00 -0.45593999997E+02  0.45594000000E+02  0.51100000000E-03 0. -1.
    9900012    2    1    2    0    0  0.75071923787E+00 -0.27976526696E+00  0.86659113616E+00  0.90007818583E+02  0.90000080989E+02 0.  0.
         12    1    1    2    0    0 -0.75071923787E+00  0.27976526696E+00 -0.86659113616E+00  0.11801814165E+01  0.00000000000E+00 0. -1.
         11    1    3    3    0    0 -0.29835576854E+02 -0.11351201040E+02 -0.16877032066E+02  0.36108802567E+02  0.51100000000E-03 0. -1.
        -11    1    3    3    0    0 -0.37298710548E+01  0.19443286245E+01 -0.86744645890E+01  0.96404713605E+01  0.51100000000E-03 0.  1.
        -12    1    3    3    0    0  0.34316167146E+02  0.91271071484E+01  0.26418087791E+02  0.44258544656E+02  0.00000000000E+00 0.  1.
</event>
<event>
 7    1  0.2084210E-015  0.9000766E+02  0.7816164E-02  0.1186339E+00
        -11   -1    0    0    0    0  0.00000000000E+00  0.00000000000E+00  0.45593999997E+02  0.45594000000E+02  0.51100000000E-03 0. -1.
         11   -1    0    0    0    0 -0.00000000000E+00 -0.00000000000E+00 -0.45593999997E+02  0.45594000000E+02  0.51100000000E-03 0.  1.
    9900012    2    1    2    0    0 -0.10967380811E+01  0.43118648318E+00  0.66745814379E-01  0.90007656319E+02  0.89999916582E+02 0.  0.
         12    1    1    2    0    0  0.10967380811E+01 -0.43118648318E+00 -0.66745814379E-01  0.11803436811E+01  0.00000000000E+00 0. -1.
         11    1    3    3    0    0 -0.44041576416E+01  0.25865550105E+01 -0.61293336041E+01  0.79784460922E+01  0.51100000000E-03 0. -1.
        -11    1    3    3    0    0 -0.35049203415E+02 -0.18856001032E+02  0.55902673550E+01  0.40190129687E+02  0.51100000000E-03 0.  1.
         12    1    3    3    0    0  0.38356622975E+02  0.16700632505E+02  0.60581206345E+00  0.41839080539E+02  0.00000000000E+00 0. -1.
</event>
<event>
 7    1  0.2084210E-015  0.9000755E+02  0.7816164E-02  0.1186339E+00
        -11   -1    0    0    0    0  0.00000000000E+00  0.00000000000E+00  0.45593999997E+02  0.45594000000E+02  0.51100000000E-03 0.  1.
         11   -1    0    0    0    0 -0.00000000000E+00 -0.00000000000E+00 -0.45593999997E+02  0.45594000000E+02  0.51100000000E-03 0. -1.
    9900012    2    1    2    0    0 -0.78347410395E+00 -0.87735430870E+00  0.99376674236E-01  0.90007551789E+02  0.89999810673E+02 0.  0.
         12    1    1    2    0    0  0.78347410395E+00  0.87735430870E+00 -0.99376674236E-01  0.11804482106E+01  0.00000000000E+00 0. -1.
         11    1    3    3    0    0 -0.91777696800E+00  0.36285643078E+01  0.83650790500E+01  0.91642425368E+01  0.51100000000E-03 0. -1.
        -11    1    3    3    0    0  0.13644451796E+02  0.21841785382E+02  0.25287981130E+02  0.36093166159E+02  0.51100000000E-03 0.  1.
         12    1    3    3    0    0 -0.13510148932E+02 -0.26347703998E+02 -0.33553683506E+02  0.44750143094E+02  0.00000000000E+00 0. -1.
</event>
<event>
 7    1  0.2084210E-015  0.9000833E+02  0.7816164E-02  0.1186338E+00
        -11   -1    0    0    0    0  0.00000000000E+00  0.00000000000E+00  0.45593999997E+02  0.45594000000E+02  0.51100000000E-03 0.  1.
         11   -1    0    0    0    0 -0.00000000000E+00 -0.00000000000E+00 -0.45593999997E+02  0.45594000000E+02  0.51100000000E-03 0. -1.
    9900012    2    1    2    0    0  0.40918470014E+00  0.77507863101E+00  0.78958939140E+00  0.90008326142E+02  0.90000595246E+02 0.  0.
         12    1    1    2    0    0 -0.40918470014E+00 -0.77507863101E+00 -0.78958939140E+00  0.11796738575E+01  0.00000000000E+00 0. -1.
         11    1    3    3    0    0  0.37657226268E+02  0.22197825979E+02 -0.14831873208E+01  0.43737969926E+02  0.51100000000E-03 0. -1.
        -11    1    3    3    0    0 -0.26109635598E+01 -0.80932278367E+01  0.33533411017E+01  0.91412452288E+01  0.51100000000E-03 0.  1.
        -12    1    3    3    0    0 -0.34637078008E+02 -0.13329519511E+02 -0.10805643895E+01  0.37129110987E+02  0.00000000000E+00 0.  1.
</event>
<event>
 7    1  0.2084210E-015  0.9000770E+02  0.7816164E-02  0.1186339E+00
        -11   -1    0    0    0    0  0.00000000000E+00  0.00000000000E+00  0.45593999997E+02  0.45594000000E+02  0.51100000000E-03 0. -1.
         11   -1    0    0    0    0 -0.00000000000E+00 -0.00000000000E+00 -0.45593999997E+02  0.45594000000E+02  0.51100000000E-03 0.  1.
    9900012    2    1    2    0    0  0.93392976353E+00 -0.64950677660E+00 -0.31467686852E+00  0.90007701145E+02  0.89999962000E+02 0.  0.
         12    1    1    2    0    0 -0.93392976353E+00  0.64950677660E+00  0.31467686852E+00  0.11802988552E+01  0.00000000000E+00 0. -1.
         11    1    3    3    0    0  0.39352411363E+01  0.44187657618E+01 -0.10881111296E+02  0.12385887007E+02  0.51100000000E-03 0. -1.
        -11    1    3    3    0    0  0.21970335969E+02  0.27918090235E+02  0.47415106131E+01  0.35841279945E+02  0.51100000000E-03 0.  1.
         12    1    3    3    0    0 -0.24971647342E+02 -0.32986362773E+02  0.58249238144E+01  0.41780534192E+02  0.00000000000E+00 0. -1.
</event>
<event>
 7    1  0.2084210E-015  0.9000774E+02  0.7816164E-02  0.1186339E+00
        -11   -1    0    0    0    0  0.00000000000E+00  0.00000000000E+00  0.45593999997E+02  0.45594000000E+02  0.51100000000E-03 0. -1.
         11   -1    0    0    0    0 -0.00000000000E+00 -0.00000000000E+00 -0.45593999997E+02  0.45594000000E+02  0.51100000000E-03 0.  1.
    9900012    2    1    2    0    0  0.44235139249E+00  0.83278135827E+00  0.70979601129E+00  0.90007741586E+02  0.90000002975E+02 0.  0.
         12    1    1    2    0    0 -0.44235139249E+00 -0.83278135827E+00 -0.70979601129E+00  0.11802584136E+01  0.00000000000E+00 0. -1.
         11    1    3    3    0    0 -0.28439099739E+00 -0.71135808389E+01 -0.28391621879E+01  0.76645125599E+01  0.51100000000E-03 0. -1.
        -11    1    3    3    0    0 -0.32188294217E+02 -0.13847629392E+02 -0.15731773987E+02  0.38410048652E+02  0.51100000000E-03 0.  1.
         12    1    3    3    0    0  0.32915036607E+02  0.21793991590E+02  0.19280732186E+02  0.43933180375E+02  0.00000000000E+00 0. -1.
</event>
<event>
 7    1  0.2084210E-015  0.9000753E+02  0.7816164E-02  0.1186339E+00
        -11   -1    0    0    0    0  0.00000000000E+00  0.00000000000E+00  0.45593999997E+02  0.45594000000E+02  0.51100000000E-03 0. -1.
         11   -1    0    0    0    0 -0.00000000000E+00 -0.00000000000E+00 -0.45593999997E+02  0.45594000000E+02  0.51100000000E-03 0.  1.
    9900012    2    1    2    0    0 -0.94771371262E+00 -0.51093194386E+00 -0.48404325293E+00  0.90007529499E+02  0.89999788088E+02 0.  0.
         12    1    1    2    0    0  0.94771371262E+00  0.51093194386E+00  0.48404325293E+00  0.11804705007E+01  0.00000000000E+00 0. -1.
         11    1    3    3    0    0  0.20876816291E+01 -0.10052747506E+02 -0.10968788938E+01  0.10325661750E+02  0.51100000000E-03 0. -1.
        -11    1    3    3    0    0  0.23750736473E+02 -0.16252770813E+02  0.22501117506E+02  0.36531497798E+02  0.51100000000E-03 0.  1.
         12    1    3    3    0    0 -0.26786131814E+02  0.25794586376E+02 -0.21888281865E+02  0.43150369951E+02  0.00000000000E+00 0. -1.
</event>
<event>
 7    1  0.2084210E-015  0.9000768E+02  0.7816164E-02  0.1186339E+00
        -11   -1    0    0    0    0  0.00000000000E+00  0.00000000000E+00  0.45593999997E+02  0.45594000000E+02  0.51100000000E-03 0. -1.
         11   -1    0    0    0    0 -0.00000000000E+00 -0.00000000000E+00 -0.45593999997E+02  0.45594000000E+02  0.51100000000E-03 0.  1.
    9900012    2    1    2    0    0 -0.21805499053E-01 -0.52347276790E+00 -0.10576630951E+01  0.90007682059E+02  0.89999942662E+02 0.  0.
         12    1    1    2    0    0  0.21805499053E-01  0.52347276790E+00  0.10576630951E+01  0.11803179408E+01  0.00000000000E+00 0. -1.
         11    1    3    3    0    0 -0.43870448360E+01  0.35829258954E+01  0.28156280861E+02  0.28720370341E+02  0.51100000000E-03 0. -1.
        -11    1    3    3    0    0 -0.11664410990E+02  0.17867829444E+02  0.45466075485E-01  0.21338225798E+02  0.51100000000E-03 0.  1.
        -12    1    3    3    0    0  0.16029650326E+02 -0.21974228107E+02 -0.29259410031E+02  0.39949085920E+02  0.00000000000E+00 0.  1.
</event>
<event>
 7    1  0.2084210E-015  0.9000748E+02  0.7816164E-02  0.1186340E+00
        -11   -1    0    0    0    0  0.00000000000E+00  0.00000000000E+00  0.45593999997E+02  0.45594000000E+02  0.51100000000E-03 0. -1.
         11   -1    0    0    0    0 -0.00000000000E+00 -0.00000000000E+00 -0.45593999997E+02  0.45594000000E+02  0.51100000000E-03 0.  1.
    9900012    2    1    2    0    0 -0.39372755484E+00  0.28977933871E+00 -0.10745400931E+01  0.90007478986E+02  0.89999736908E+02 0.  0.
         12    1    1    2    0    0  0.39372755484E+00 -0.28977933871E+00  0.10745400931E+01  0.11805210139E+01  0.00000000000E+00 0. -1.
         11    1    3    3    0    0 -0.55703383677E+01  0.35106929755E+01  0.75661647430E+01  0.10029979256E+02  0.51100000000E-03 0. -1.
        -11    1    3    3    0    0 -0.15522300017E+02 -0.36864791740E+02 -0.37594848021E+01  0.40175718961E+02  0.51100000000E-03 0.  1.
         12    1    3    3    0    0  0.20698910830E+02  0.33643878103E+02 -0.48812200340E+01  0.39801780769E+02  0.00000000000E+00 0. -1.
</event>
<event>
 7    1  0.2084210E-015  0.9000778E+02  0.7816164E-02  0.1186339E+00
        -11   -1    0    0    0    0  0.00000000000E+00  0.00000000000E+00  0.45593999997E+02  0.45594000000E+02  0.51100000000E-03 0.  1.
         11   -1    0    0    0    0 -0.00000000000E+00 -0.00000000000E+00 -0.45593999997E+02  0.45594000000E+02  0.51100000000E-03 0. -1.
    9900012    2    1    2    0    0  0.21334092944E+00 -0.10458237229E+01  0.50365409023E+00  0.90007775846E+02  0.90000037687E+02 0.  0.
         12    1    1    2    0    0 -0.21334092944E+00  0.10458237229E+01 -0.50365409023E+00  0.11802241542E+01  0.00000000000E+00 0. -1.
         11    1    3    3    0    0  0.37499433849E+02  0.37758801881E+01 -0.57307906823E-01  0.37689097822E+02  0.51100000000E-03 0. -1.
        -11    1    3    3    0    0  0.30020095257E+01  0.91812024205E+01  0.35185227214E+00  0.96659370658E+01  0.51100000000E-03 0.  1.
        -12    1    3    3    0    0 -0.40288102445E+02 -0.14002906332E+02  0.20910972491E+00  0.42652740958E+02  0.00000000000E+00 0.  1.
</event>
<event>
 7    1  0.2084210E-015  0.9000763E+02  0.7816164E-02  0.1186339E+00
        -11   -1    0    0    0    0  0.00000000000E+00  0.00000000000E+00  0.45593999997E+02  0.45594000000E+02  0.51100000000E-03 0. -1.
         11   -1    0    0    0    0 -0.00000000000E+00 -0.00000000000E+00 -0.45593999997E+02  0.45594000000E+02  0.51100000000E-03 0.  1.
    9900012    2    1    2    0    0 -0.11008149200E+01 -0.37726821669E+00 -0.19787616341E+00  0.90007627274E+02  0.89999887154E+02 0.  0.
         12    1    1    2    0    0  0.11008149200E+01  0.37726821669E+00  0.19787616341E+00  0.11803727256E+01  0.00000000000E+00 0. -1.
         11    1    3    3    0    0  0.83471528357E+01 -0.21590628582E+01  0.95844909913E+01  0.12891818363E+02  0.51100000000E-03 0. -1.
        -11    1    3    3    0    0  0.84354020511E+01 -0.23647960657E+02  0.21468977938E+02  0.33034815952E+02  0.51100000000E-03 0.  1.
         12    1    3    3    0    0 -0.17883369807E+02  0.25429755298E+02 -0.31251345093E+02  0.44080992959E+02  0.00000000000E+00 0. -1.
</event>
<event>
 7    1  0.2084210E-015  0.9000770E+02  0.7816164E-02  0.1186339E+00
        -11   -1    0    0    0    0  0.00000000000E+00  0.00000000000E+00  0.45593999997E+02  0.45594000000E+02  0.51100000000E-03 0.  1.
         11   -1    0    0    0    0 -0.00000000000E+00 -0.00000000000E+00 -0.45593999997E+02  0.45594000000E+02  0.51100000000E-03 0. -1.
    9900012    2    1    2    0    0  0.37955808794E+00 -0.10520964922E+01  0.37701440156E+00  0.90007698670E+02  0.89999959492E+02 0.  0.
         12    1    1    2    0    0 -0.37955808794E+00  0.10520964922E+01 -0.37701440156E+00  0.11803013302E+01  0.00000000000E+00 0. -1.
         11    1    3    3    0    0 -0.24598689634E+01  0.55309146396E+01 -0.52484762930E+01  0.80117710730E+01  0.51100000000E-03 0. -1.
        -11    1    3    3    0    0 -0.24301847554E+02  0.22555848208E+02  0.21069876994E+02  0.39284676398E+02  0.51100000000E-03 0.  1.
         12    1    3    3    0    0  0.27141274605E+02 -0.29138859340E+02 -0.15444386299E+02  0.42711251199E+02  0.00000000000E+00 0. -1.
</event>
<event>
 7    1  0.2084210E-015  0.9000771E+02  0.7816164E-02  0.1186339E+00
        -11   -1    0    0    0    0  0.00000000000E+00  0.00000000000E+00  0.45593999997E+02  0.45594000000E+02  0.51100000000E-03 0. -1.
         11   -1    0    0    0    0 -0.00000000000E+00 -0.00000000000E+00 -0.45593999997E+02  0.45594000000E+02  0.51100000000E-03 0.  1.
    9900012    2    1    2    0    0 -0.40646843236E+00 -0.54525852703E+00 -0.96466163521E+00  0.90007705326E+02  0.89999966236E+02 0.  0.
         12    1    1    2    0    0  0.40646843236E+00  0.54525852703E+00  0.96466163521E+00  0.11802946743E+01  0.00000000000E+00 0. -1.
         11    1    3    3    0    0  0.27752973241E+02 -0.14921821193E+02  0.16857244115E+02  0.35735905625E+02  0.51100000000E-03 0. -1.
        -11    1    3    3    0    0  0.42294004826E+01 -0.56572536494E+01  0.60705088455E+01  0.93136150446E+01  0.51100000000E-03 0.  1.
        -12    1    3    3    0    0 -0.32388842156E+02  0.20033816315E+02 -0.23892414595E+02  0.44958184656E+02  0.00000000000E+00 0.  1.
</event>
<event>
 7    1  0.2084210E-015  0.9000777E+02  0.7816164E-02  0.1186339E+00
        -11   -1    0    0    0    0  0.00000000000E+00  0.00000000000E+00  0.45593999997E+02  0.45594000000E+02  0.51100000000E-03 0.  1.
         11   -1    0    0    0    0 -0.00000000000E+00 -0.00000000000E+00 -0.45593999997E+02  0.45594000000E+02  0.51100000000E-03 0. -1.
    9900012    2    1    2    0    0  0.98083244299E+00  0.18705157541E+00  0.62921698794E+00  0.90007773500E+02  0.90000035310E+02 0.  0.
         12    1    1    2    0    0 -0.98083244299E+00 -0.18705157541E+00 -0.62921698794E+00  0.11802264999E+01  0.00000000000E+00 0. -1.
         11    1    3    3    0    0 -0.37226660005E+02 -0.94368793915E+01 -0.12082105212E+01  0.38423152925E+02  0.51100000000E-03 0. -1.
        -11    1    3    3    0    0 -0.28250246470E+01  0.12948225018E+01  0.86258224475E+01  0.91685409267E+01  0.51100000000E-03 0.  1.
        -12    1    3    3    0    0  0.41032517095E+02  0.83291084651E+01 -0.67883949383E+01  0.42416079649E+02  0.00000000000E+00 0.  1.
</event>
<event>
 7    1  0.2084210E-015  0.9000776E+02  0.7816164E-02  0.1186339E+00
        -11   -1    0    0    0    0  0.00000000000E+00  0.00000000000E+00  0.45593999997E+02  0.45594000000E+02  0.51100000000E-03 0.  1.
         11   -1    0    0    0    0 -0.00000000000E+00 -0.00000000000E+00 -0.45593999997E+02  0.45594000000E+02  0.51100000000E-03 0. -1.
    9900012    2    1    2    0    0  0.10981870668E+01  0.20838176070E+00  0.37885440387E+00  0.90007759155E+02  0.90000020776E+02 0.  0.
         12    1    1    2    0    0 -0.10981870668E+01 -0.20838176070E+00 -0.37885440387E+00  0.11802408446E+01  0.00000000000E+00 0. -1.
         11    1    3    3    0    0  0.98694803610E+00 -0.14492190552E+02 -0.31172116917E+02  0.34390384219E+02  0.51100000000E-03 0. -1.
        -11    1    3    3    0    0 -0.47233277934E+01 -0.33031530016E+01 -0.91707560568E+01  0.10831593240E+02  0.51100000000E-03 0.  1.
        -12    1    3    3    0    0  0.48345668240E+01  0.18003725314E+02  0.40721727377E+02  0.44785781696E+02  0.00000000000E+00 0.  1.
</event>
<event>
 7    1  0.2084210E-015  0.9000771E+02  0.7816164E-02  0.1186339E+00
        -11   -1    0    0    0    0  0.00000000000E+00  0.00000000000E+00  0.45593999997E+02  0.45594000000E+02  0.51100000000E-03 0.  1.
         11   -1    0    0    0    0 -0.00000000000E+00 -0.00000000000E+00 -0.45593999997E+02  0.45594000000E+02  0.51100000000E-03 0. -1.
    9900012    2    1    2    0    0  0.34548335217E+00  0.51895715432E+00  0.10021983846E+01  0.90007713223E+02  0.89999974237E+02 0.  0.
         12    1    1    2    0    0 -0.34548335217E+00 -0.51895715432E+00 -0.10021983846E+01  0.11802867774E+01  0.00000000000E+00 0. -1.
         11    1    3    3    0    0 -0.18580996117E+02  0.17462220056E+02 -0.30921579986E+02  0.40079005166E+02  0.51100000000E-03 0. -1.
        -11    1    3    3    0    0  0.14759694189E+01  0.77021394582E+01  0.94822907418E+01  0.12305091464E+02  0.51100000000E-03 0.  1.
        -12    1    3    3    0    0  0.17450510051E+02 -0.24645402360E+02  0.22441487629E+02  0.37623616593E+02  0.00000000000E+00 0.  1.
</event>
<event>
 7    1  0.2084210E-015  0.9000775E+02  0.7816164E-02  0.1186339E+00
        -11   -1    0    0    0    0  0.00000000000E+00  0.00000000000E+00  0.45593999997E+02  0.45594000000E+02  0.51100000000E-03 0. -1.
         11   -1    0    0    0    0 -0.00000000000E+00 -0.00000000000E+00 -0.45593999997E+02  0.45594000000E+02  0.51100000000E-03 0.  1.
    9900012    2    1    2    0    0 -0.19456617471E+00  0.10709092671E+01 -0.45638645304E+00  0.90007749497E+02  0.90000010991E+02 0.  0.
         12    1    1    2    0    0  0.19456617471E+00 -0.10709092671E+01  0.45638645304E+00  0.11802505028E+01  0.00000000000E+00 0. -1.
         11    1    3    3    0    0 -0.16012822363E+02 -0.63986686392E+01  0.37482006886E+02  0.41258384370E+02  0.51100000000E-03 0. -1.
        -11    1    3    3    0    0  0.39312578097E+01  0.99544924114E+01 -0.20965117576E+01  0.10906056526E+02  0.51100000000E-03 0.  1.
        -12    1    3    3    0    0  0.11886998379E+02 -0.24849145051E+01 -0.35841881582E+02  0.37843308601E+02  0.00000000000E+00 0.  1.
</event>
<event>
 7    1  0.2084210E-015  0.9000772E+02  0.7816164E-02  0.1186339E+00
        -11   -1    0    0    0    0  0.00000000000E+00  0.00000000000E+00  0.45593999997E+02  0.45594000000E+02  0.51100000000E-03 0. -1.
         11   -1    0    0    0    0 -0.00000000000E+00 -0.00000000000E+00 -0.45593999997E+02  0.45594000000E+02  0.51100000000E-03 0.  1.
    9900012    2    1    2    0    0 -0.32691395687E+00 -0.40626477644E+00 -0.10588372056E+01  0.90007720359E+02  0.89999981467E+02 0.  0.
         12    1    1    2    0    0  0.32691395687E+00  0.40626477644E+00  0.10588372056E+01  0.11802796413E+01  0.00000000000E+00 0. -1.
         11    1    3    3    0    0  0.53809312769E+01 -0.18107641003E+01 -0.32715617332E+01  0.65525876163E+01  0.51100000000E-03 0. -1.
        -11    1    3    3    0    0 -0.11893407758E+02  0.45771482498E+01 -0.39325698919E+02  0.41339013413E+02  0.51100000000E-03 0.  1.
         12    1    3    3    0    0  0.61855625239E+01 -0.31726489259E+01  0.41538423447E+02  0.42116119330E+02  0.00000000000E+00 0. -1.
</event>
<event>
 7    1  0.2084210E-015  0.9000773E+02  0.7816164E-02  0.1186339E+00
        -11   -1    0    0    0    0  0.00000000000E+00  0.00000000000E+00  0.45593999997E+02  0.45594000000E+02  0.51100000000E-03 0.  1.
         11   -1    0    0    0    0 -0.00000000000E+00 -0.00000000000E+00 -0.45593999997E+02  0.45594000000E+02  0.51100000000E-03 0. -1.
    9900012    2    1    2    0    0 -0.42985745117E-01  0.97616064066E+00  0.66203427243E+00  0.90007734458E+02  0.89999995753E+02 0.  0.
         12    1    1    2    0    0  0.42985745117E-01 -0.97616064066E+00 -0.66203427243E+00  0.11802655415E+01  0.00000000000E+00 0. -1.
         11    1    3    3    0    0 -0.33753812041E+02 -0.33756627091E+01  0.16885693489E+02  0.37892500194E+02  0.51100000000E-03 0. -1.
        -11    1    3    3    0    0 -0.43344315752E+01 -0.71440430920E+01 -0.79196802563E+01  0.11512861695E+02  0.51100000000E-03 0.  1.
        -12    1    3    3    0    0  0.38045257871E+02  0.11495866442E+02 -0.83039789603E+01  0.40602372570E+02  0.00000000000E+00 0.  1.
</event>
<event>
 7    1  0.2084210E-015  0.9000772E+02  0.7816164E-02  0.1186339E+00
        -11   -1    0    0    0    0  0.00000000000E+00  0.00000000000E+00  0.45593999997E+02  0.45594000000E+02  0.51100000000E-03 0. -1.
         11   -1    0    0    0    0 -0.00000000000E+00 -0.00000000000E+00 -0.45593999997E+02  0.45594000000E+02  0.51100000000E-03 0.  1.
    9900012    2    1    2    0    0  0.55214000675E+00  0.29405232153E+00 -0.10008649246E+01  0.90007722087E+02  0.89999983218E+02 0.  0.
         12    1    1    2    0    0 -0.55214000675E+00 -0.29405232153E+00  0.10008649246E+01  0.11802779131E+01  0.00000000000E+00 0. -1.
         11    1    3    3    0    0  0.28742528398E+02 -0.23707507529E+02 -0.16583909361E+02  0.40782409222E+02  0.51100000000E-03 0. -1.
        -11    1    3    3    0    0 -0.13952685365E+01 -0.53149927868E+01  0.64469749905E+01  0.84710925743E+01  0.51100000000E-03 0.  1.
        -12    1    3    3    0    0 -0.26795119855E+02  0.29316552638E+02  0.91360694461E+01  0.40754220291E+02  0.00000000000E+00 0.  1.
</event>
<event>
 7    1  0.2084210E-015  0.9000762E+02  0.7816164E-02  0.1186339E+00
        -11   -1    0    0    0    0  0.00000000000E+00  0.00000000000E+00  0.45593999997E+02  0.45594000000E+02  0.51100000000E-03 0.  1.
         11   -1    0    0    0    0 -0.00000000000E+00 -0.00000000000E+00 -0.45593999997E+02  0.45594000000E+02  0.51100000000E-03 0. -1.
    9900012    2    1    2    0    0  0.10567676134E+01 -0.41572195510E+00  0.32203310906E+00  0.90007623850E+02  0.89999883685E+02 0.  0.
         12    1    1    2    0    0 -0.10567676134E+01  0.41572195510E+00 -0.32203310906E+00  0.11803761502E+01  0.00000000000E+00 0. -1.
         11    1    3    3    0    0  0.82850653208E+01  0.30373793140E+01  0.47936179410E+01  0.10042248438E+02  0.51100000000E-03 0. -1.
        -11    1    3    3    0    0  0.31111546661E+02 -0.42618030828E+01  0.17315919772E+02  0.35859899316E+02  0.51100000000E-03 0.  1.
         12    1    3    3    0    0 -0.38339844368E+02  0.80870181366E+00 -0.21787504604E+02  0.44105476096E+02  0.00000000000E+00 0. -1.
</event>
<event>
 7    1  0.2084210E-015  0.9000770E+02  0.7816164E-02  0.1186339E+00
        -11   -1    0    0    0    0  0.00000000000E+00  0.00000000000E+00  0.45593999997E+02  0.45594000000E+02  0.51100000000E-03 0. -1.
         11   -1    0    0    0    0 -0.00000000000E+00 -0.00000000000E+00 -0.45593999997E+02  0.45594000000E+02  0.51100000000E-03 0.  1.
    9900012    2    1    2    0    0  0.34944739828E+00  0.33667619165E+00 -0.10759429233E+01  0.90007696007E+02  0.89999956794E+02 0.  0.
         12    1    1    2    0    0 -0.34944739828E+00 -0.33667619165E+00  0.10759429233E+01  0.11803039932E+01  0.00000000000E+00 0. -1.
         11    1    3    3    0    0 -0.84677300597E+01  0.33748515206E+02 -0.18253883237E+01  0.34842456483E+02  0.51100000000E-03 0. -1.
        -11    1    3    3    0    0 -0.37762014936E+01  0.90299206012E+01  0.44264312727E+01  0.10742088152E+02  0.51100000000E-03 0.  1.
        -12    1    3    3    0    0  0.12593378952E+02 -0.42441759616E+02 -0.36769858723E+01  0.44423151372E+02  0.00000000000E+00 0.  1.
</event>
<event>
 7    1  0.2084210E-015  0.9000775E+02  0.7816164E-02  0.1186339E+00
        -11   -1    0    0    0    0  0.00000000000E+00  0.00000000000E+00  0.45593999997E+02  0.45594000000E+02  0.51100000000E-03 0.  1.
         11   -1    0    0    0    0 -0.00000000000E+00 -0.00000000000E+00 -0.45593999997E+02  0.45594000000E+02  0.51100000000E-03 0. -1.
    9900012    2    1    2    0    0  0.49634291725E+00  0.13592315576E-01  0.10707266546E+01  0.90007747226E+02  0.90000008689E+02 0.  0.
         12    1    1    2    0    0 -0.49634291725E+00 -0.13592315576E-01 -0.10707266546E+01  0.11802527744E+01  0.00000000000E+00 0. -1.
         11    1    3    3    0    0  0.11115775088E+02  0.56314805826E+00  0.74692487151E+01  0.13404001946E+02  0.51100000000E-03 0. -1.
        -11    1    3    3    0    0 -0.24026224561E+02 -0.13147914271E+02  0.27008868352E+02  0.38465648133E+02  0.51100000000E-03 0.  1.
         12    1    3    3    0    0  0.13406792391E+02  0.12598358528E+02 -0.33407390413E+02  0.38138097147E+02  0.00000000000E+00 0. -1.
</event>
<event>
 7    1  0.2084210E-015  0.9000779E+02  0.7816164E-02  0.1186339E+00
        -11   -1    0    0    0    0  0.00000000000E+00  0.00000000000E+00  0.45593999997E+02  0.45594000000E+02  0.51100000000E-03 0. -1.
         11   -1    0    0    0    0 -0.00000000000E+00 -0.00000000000E+00 -0.45593999997E+02  0.45594000000E+02  0.51100000000E-03 0.  1.
    9900012    2    1    2    0    0  0.21169882622E+00  0.51378361204E+00 -0.10412010275E+01  0.90007792572E+02  0.90000054634E+02 0.  0.
         12    1    1    2    0    0 -0.21169882622E+00 -0.51378361204E+00  0.10412010275E+01  0.11802074278E+01  0.00000000000E+00 0. -1.
         11    1    3    3    0    0 -0.73141185819E+01 -0.51846738441E+01  0.45534788168E+01  0.10055413621E+02  0.51100000000E-03 0. -1.
        -11    1    3    3    0    0 -0.27799657960E+02 -0.46088580153E+01 -0.25596713800E+02  0.38069072914E+02  0.51100000000E-03 0.  1.
         12    1    3    3    0    0  0.35325475369E+02  0.10307315472E+02  0.20002033955E+02  0.41883306037E+02  0.00000000000E+00 0. -1.
</event>
<event>
 7    1  0.2084210E-015  0.9000777E+02  0.7816164E-02  0.1186339E+00
        -11   -1    0    0    0    0  0.00000000000E+00  0.00000000000E+00  0.45593999997E+02  0.45594000000E+02  0.51100000000E-03 0.  1.
         11   -1    0    0    0    0 -0.00000000000E+00 -0.00000000000E+00 -0.45593999997E+02  0.45594000000E+02  0.51100000000E-03 0. -1.
    9900012    2    1    2    0    0  0.10029103993E+01 -0.19832225663E+00  0.58972843621E+00  0.90007770948E+02  0.90000032725E+02 0.  0.
         12    1    1    2    0    0 -0.10029103993E+01  0.19832225663E+00 -0.58972843621E+00  0.11802290519E+01  0.00000000000E+00 0. -1.
         11    1    3    3    0    0  0.10265483670E+02  0.77699433244E+01 -0.88686841033E+01  0.15633481129E+02  0.51100000000E-03 0. -1.
        -11    1    3    3    0    0  0.29479162993E+02  0.55394662255E+01 -0.58908772469E+01  0.30568107102E+02  0.51100000000E-03 0.  1.
         12    1    3    3    0    0 -0.38741736263E+02 -0.13507731807E+02  0.15349289786E+02  0.43806182716E+02  0.00000000000E+00 0. -1.
</event>
<event>
 7    1  0.2084210E-015  0.9000776E+02  0.7816164E-02  0.1186339E+00
        -11   -1    0    0    0    0  0.00000000000E+00  0.00000000000E+00  0.45593999997E+02  0.45594000000E+02  0.51100000000E-03 0.  1.
         11   -1    0    0    0    0 -0.00000000000E+00 -0.00000000000E+00 -0.45593999997E+02  0.45594000000E+02  0.51100000000E-03 0. -1.
    9900012    2    1    2    0    0  0.84906798708E+00  0.51415347127E+00  0.63851824796E+00  0.90007756046E+02  0.90000017625E+02 0.  0.
         12    1    1    2    0    0 -0.84906798708E+00 -0.51415347127E+00 -0.63851824796E+00  0.11802439543E+01  0.00000000000E+00 0. -1.
         11    1    3    3    0    0  0.56530597475E+01  0.20980184629E+01 -0.60434434214E+01  0.85370940389E+01  0.51100000000E-03 0. -1.
        -11    1    3    3    0    0 -0.93351794584E+01  0.26100866715E+02 -0.26272911625E+02  0.38192495393E+02  0.51100000000E-03 0.  1.
         12    1    3    3    0    0  0.45311876980E+01 -0.27684731707E+02  0.32954873294E+02  0.43278166614E+02  0.00000000000E+00 0. -1.
</event>
<event>
 7    1  0.2084210E-015  0.9000769E+02  0.7816164E-02  0.1186339E+00
        -11   -1    0    0    0    0  0.00000000000E+00  0.00000000000E+00  0.45593999997E+02  0.45594000000E+02  0.51100000000E-03 0. -1.
         11   -1    0    0    0    0 -0.00000000000E+00 -0.00000000000E+00 -0.45593999997E+02  0.45594000000E+02  0.51100000000E-03 0.  1.
    9900012    2    1    2    0    0  0.80099503006E+00  0.29177786425E+00 -0.81633086674E+00  0.90007693496E+02  0.89999954250E+02 0.  0.
         12    1    1    2    0    0 -0.80099503006E+00 -0.29177786425E+00  0.81633086674E+00  0.11803065044E+01  0.00000000000E+00 0. -1.
         11    1    3    3    0    0  0.21305359752E+01  0.96632553662E+01  0.17609726428E+01  0.10050806571E+02  0.51100000000E-03 0. -1.
        -11    1    3    3    0    0 -0.18220121204E+02  0.12656264986E+01 -0.36376175620E+02  0.40703817759E+02  0.51100000000E-03 0.  1.
         12    1    3    3    0    0  0.16890580259E+02 -0.10637104001E+02  0.33798872111E+02  0.39253069166E+02  0.00000000000E+00 0. -1.
</event>
<event>
 7    1  0.2084210E-015  0.9000772E+02  0.7816164E-02  0.1186339E+00
        -11   -1    0    0    0    0  0.00000000000E+00  0.00000000000E+00  0.45593999997E+02  0.45594000000E+02  0.51100000000E-03 0.  1.
         11   -1    0    0    0    0 -0.00000000000E+00 -0.00000000000E+00 -0.45593999997E+02  0.45594000000E+02  0.51100000000E-03 0. -1.
    9900012    2    1    2    0    0 -0.92252598977E+00 -0.76848613265E-01  0.73218646895E+00  0.90007721670E+02  0.89999982796E+02 0.  0.
         12    1    1    2    0    0  0.92252598977E+00  0.76848613265E-01 -0.73218646895E+00  0.11802783301E+01  0.00000000000E+00 0. -1.
         11    1    3    3    0    0  0.32320722823E+02 -0.50119312096E+01 -0.14924113201E+02  0.35951046346E+02  0.51100000000E-03 0. -1.
        -11    1    3    3    0    0  0.33516178688E+01 -0.56586928871E+01 -0.71018365073E+01  0.96793713415E+01  0.51100000000E-03 0.  1.
        -12    1    3    3    0    0 -0.36594866682E+02  0.10593775483E+02  0.22758136177E+02  0.44377303982E+02  0.00000000000E+00 0.  1.
</event>
<event>
 7    1  0.2084210E-015  0.9000777E+02  0.7816164E-02  0.1186339E+00
        -11   -1    0    0    0    0  0.00000000000E+00  0.00000000000E+00  0.45593999997E+02  0.45594000000E+02  0.51100000000E-03 0.  1.
         11   -1    0    0    0    0 -0.00000000000E+00 -0.00000000000E+00 -0.45593999997E+02  0.45594000000E+02  0.51100000000E-03 0. -1.
    9900012    2    1    2    0    0  0.53942590593E+00  0.10006595725E+01  0.31724719467E+00  0.90007768806E+02  0.90000030555E+02 0.  0.
         12    1    1    2    0    0 -0.53942590593E+00 -0.10006595725E+01 -0.31724719467E+00  0.11802311937E+01  0.00000000000E+00 0. -1.
         11    1    3    3    0    0  0.29582214400E+01 -0.16928955766E+02 -0.34335797556E+02  0.38396453111E+02  0.51100000000E-03 0. -1.
        -11    1    3    3    0    0 -0.49866327724E+01  0.91968527321E+00 -0.57691547146E+01  0.76808511111E+01  0.51100000000E-03 0.  1.
        -12    1    3    3    0    0  0.25678372384E+01  0.17009930066E+02  0.40422199466E+02  0.43930464584E+02  0.00000000000E+00 0.  1.
</event>
<event>
 7    1  0.2084210E-015  0.9000766E+02  0.7816164E-02  0.1186339E+00
        -11   -1    0    0    0    0  0.00000000000E+00  0.00000000000E+00  0.45593999997E+02  0.45594000000E+02  0.51100000000E-03 0.  1.
         11   -1    0    0    0    0 -0.00000000000E+00 -0.00000000000E+00 -0.45593999997E+02  0.45594000000E+02  0.51100000000E-03 0. -1.
    9900012    2    1    2    0    0  0.77985829739E+00 -0.64499050420E+00 -0.60745353926E+00  0.90007664659E+02  0.89999925033E+02 0.  0.
         12    1    1    2    0    0 -0.77985829739E+00  0.64499050420E+00  0.60745353926E+00  0.11803353409E+01  0.00000000000E+00 0. -1.
         11    1    3    3    0    0 -0.21962040908E+01  0.93206720484E+01  0.48872403041E+01  0.10750970091E+02  0.51100000000E-03 0. -1.
        -11    1    3    3    0    0 -0.17099998748E+02  0.23752386025E+02  0.17177299088E+02  0.33935901392E+02  0.51100000000E-03 0.  1.
         12    1    3    3    0    0  0.20076061137E+02 -0.33718048578E+02 -0.22671992931E+02  0.45320793176E+02  0.00000000000E+00 0. -1.
</event>
<event>
 7    1  0.2447913E-015  0.9000771E+02  0.7816164E-02  0.1186339E+00
        -11   -1    0    0    0    0  0.00000000000E+00  0.00000000000E+00  0.45593999997E+02  0.45594000000E+02  0.51100000000E-03 0. -1.
         11   -1    0    0    0    0 -0.00000000000E+00 -0.00000000000E+00 -0.45593999997E+02  0.45594000000E+02  0.51100000000E-03 0.  1.
    9900012    2    1    2    0    0  0.10887280614E+01  0.11249632146E+00 -0.44170404633E+00  0.90007709070E+02  0.89999970030E+02 0.  0.
         12    1    1    2    0    0 -0.10887280614E+01 -0.11249632146E+00  0.44170404633E+00  0.11802909296E+01  0.00000000000E+00 0. -1.
         11    1    3    3    0    0 -0.18104840337E+02 -0.17644781543E+01  0.36363447883E+02  0.40659549542E+02  0.51100000000E-03 0. -1.
        -11    1    3    3    0    0  0.69698633243E+01 -0.56946816921E+01  0.85056546435E+00  0.90405672501E+01  0.51100000000E-03 0.  1.
        -12    1    3    3    0    0  0.12223705074E+02  0.75716561679E+01 -0.37655717393E+02  0.40307592278E+02  0.00000000000E+00 0.  1.
</event>
<event>
 7    1  0.2084210E-015  0.9000776E+02  0.7816164E-02  0.1186339E+00
        -11   -1    0    0    0    0  0.00000000000E+00  0.00000000000E+00  0.45593999997E+02  0.45594000000E+02  0.51100000000E-03 0.  1.
         11   -1    0    0    0    0 -0.00000000000E+00 -0.00000000000E+00 -0.45593999997E+02  0.45594000000E+02  0.51100000000E-03 0. -1.
    9900012    2    1    2    0    0 -0.10192067632E+01  0.56757708482E+00 -0.17898083437E+00  0.90007762603E+02  0.90000024270E+02 0.  0.
         12    1    1    2    0    0  0.10192067632E+01 -0.56757708482E+00  0.17898083437E+00  0.11802373966E+01  0.00000000000E+00 0. -1.
         11    1    3    3    0    0  0.47318645895E+01  0.12811928019E+02 -0.37807314851E+01  0.14171449216E+02  0.51100000000E-03 0. -1.
        -11    1    3    3    0    0  0.27722196159E+02  0.14066793721E+02  0.10273545370E+02  0.32740503664E+02  0.51100000000E-03 0.  1.
         12    1    3    3    0    0 -0.33473267512E+02 -0.26311144655E+02 -0.66717947195E+01  0.43095809723E+02  0.00000000000E+00 0. -1.
</event>
<event>
 7    1  0.2084210E-015  0.9000766E+02  0.7816164E-02  0.1186339E+00
        -11   -1    0    0    0    0  0.00000000000E+00  0.00000000000E+00  0.45593999997E+02  0.45594000000E+02  0.51100000000E-03 0.  1.
         11   -1    0    0    0    0 -0.00000000000E+00 -0.00000000000E+00 -0.45593999997E+02  0.45594000000E+02  0.51100000000E-03 0. -1.
    9900012    2    1    2    0    0 -0.69333503020E+00  0.52418166774E+00  0.79857891148E+00  0.90007657608E+02  0.89999917888E+02 0.  0.
         12    1    1    2    0    0  0.69333503020E+00 -0.52418166774E+00 -0.79857891148E+00  0.11803423922E+01  0.00000000000E+00 0. -1.
         11    1    3    3    0    0  0.46490454824E+00  0.43299058536E-01 -0.91755855795E+01  0.91874578658E+01  0.51100000000E-03 0. -1.
        -11    1    3    3    0    0  0.57648488826E+01 -0.38771908265E+02  0.11752036607E+02  0.40921934435E+02  0.51100000000E-03 0.  1.
         12    1    3    3    0    0 -0.69230884610E+01  0.39252790875E+02 -0.17778721163E+01  0.39898265308E+02  0.00000000000E+00 0. -1.
</event>
<event>
 7    1  0.2084210E-015  0.9000778E+02  0.7816164E-02  0.1186339E+00
        -11   -1    0    0    0    0  0.00000000000E+00  0.00000000000E+00  0.45593999997E+02  0.45594000000E+02  0.51100000000E-03 0.  1.
         11   -1    0    0    0    0 -0.00000000000E+00 -0.00000000000E+00 -0.45593999997E+02  0.45594000000E+02  0.51100000000E-03 0. -1.
    9900012    2    1    2    0    0  0.15401787193E+00 -0.14101278510E+00  0.11616034204E+01  0.90007776031E+02  0.90000037875E+02 0.  0.
         12    1    1    2    0    0 -0.15401787193E+00  0.14101278510E+00 -0.11616034204E+01  0.11802239689E+01  0.00000000000E+00 0. -1.
         11    1    3    3    0    0  0.27764839619E+02 -0.44549552509E+01 -0.28945257642E+02  0.40355431922E+02  0.51100000000E-03 0. -1.
        -11    1    3    3    0    0  0.45508136830E+00 -0.84668939357E+01  0.84338835490E+01  0.11959338776E+02  0.51100000000E-03 0.  1.
        -12    1    3    3    0    0 -0.28065903116E+02  0.12780836401E+02  0.21672977513E+02  0.37693005334E+02  0.00000000000E+00 0.  1.
</event>
<event>
 7    1  0.2084210E-015  0.9000776E+02  0.7816164E-02  0.1186339E+00
        -11   -1    0    0    0    0  0.00000000000E+00  0.00000000000E+00  0.45593999997E+02  0.45594000000E+02  0.51100000000E-03 0.  1.
         11   -1    0    0    0    0 -0.00000000000E+00 -0.00000000000E+00 -0.45593999997E+02  0.45594000000E+02  0.51100000000E-03 0. -1.
    9900012    2    1    2    0    0 -0.27785484346E+00 -0.52849438050E+00  0.10180694824E+01  0.90007756341E+02  0.90000017924E+02 0.  0.
         12    1    1    2    0    0  0.27785484346E+00  0.52849438050E+00 -0.10180694824E+01  0.11802436593E+01  0.00000000000E+00 0. -1.
         11    1    3    3    0    0  0.32272110661E+01  0.10888965333E+02  0.11274123377E+01  0.11412953874E+02  0.51100000000E-03 0. -1.
        -11    1    3    3    0    0 -0.82009024879E+01  0.25394439033E+02 -0.22798153068E+02  0.35098263761E+02  0.51100000000E-03 0.  1.
         12    1    3    3    0    0  0.46958365783E+01 -0.36811898747E+02  0.22688810213E+02  0.43496538706E+02  0.00000000000E+00 0. -1.
</event>
<event>
 7    1  0.2093836E-015  0.9000746E+02  0.7816164E-02  0.1186340E+00
        -11   -1    0    0    0    0  0.00000000000E+00  0.00000000000E+00  0.45593999997E+02  0.45594000000E+02  0.51100000000E-03 0.  1.
         11   -1    0    0    0    0 -0.00000000000E+00 -0.00000000000E+00 -0.45593999997E+02  0.45594000000E+02  0.51100000000E-03 0. -1.
    9900012    2    1    2    0    0  0.27336879154E+00 -0.69072497085E+00  0.91751758791E+00  0.90007461985E+02  0.89999719682E+02 0.  0.
         12    1    1    2    0    0 -0.27336879154E+00  0.69072497085E+00 -0.91751758791E+00  0.11805380153E+01  0.00000000000E+00 0. -1.
         11    1    3    3    0    0 -0.30659468182E+02  0.17121233452E+02 -0.89860857332E+01  0.36247611799E+02  0.51100000000E-03 0. -1.
        -11    1    3    3    0    0 -0.62328113675E+01  0.15412329403E+01 -0.61466498681E+01  0.88884555116E+01  0.51100000000E-03 0.  1.
        -12    1    3    3    0    0  0.37165648341E+02 -0.19353191363E+02  0.16050253189E+02  0.44871394674E+02  0.00000000000E+00 0.  1.
</event>
<event>
 7    1  0.2084210E-015  0.9000804E+02  0.7816164E-02  0.1186338E+00
        -11   -1    0    0    0    0  0.00000000000E+00  0.00000000000E+00  0.45593999997E+02  0.45594000000E+02  0.51100000000E-03 0.  1.
         11   -1    0    0    0    0 -0.00000000000E+00 -0.00000000000E+00 -0.45593999997E+02  0.45594000000E+02  0.51100000000E-03 0. -1.
    9900012    2    1    2    0    0 -0.86203273532E+00  0.27615607898E+00  0.75692226021E+00  0.90008044948E+02  0.90000310341E+02 0.  0.
         12    1    1    2    0    0  0.86203273532E+00 -0.27615607898E+00 -0.75692226021E+00  0.11799550520E+01  0.00000000000E+00 0. -1.
         11    1    3    3    0    0  0.27790713236E+01 -0.90481028200E+01  0.56005989176E+00  0.94818283789E+01  0.51100000000E-03 0. -1.
        -11    1    3    3    0    0  0.30520939007E+02  0.26489888234E+02 -0.85459382312E+01  0.41307081198E+02  0.51100000000E-03 0.  1.
         12    1    3    3    0    0 -0.34162043066E+02 -0.17165629335E+02  0.87428005996E+01  0.39219135371E+02  0.00000000000E+00 0. -1.
</event>
<event>
 7    1  0.2084210E-015  0.9000754E+02  0.7816164E-02  0.1186339E+00
        -11   -1    0    0    0    0  0.00000000000E+00  0.00000000000E+00  0.45593999997E+02  0.45594000000E+02  0.51100000000E-03 0.  1.
         11   -1    0    0    0    0 -0.00000000000E+00 -0.00000000000E+00 -0.45593999997E+02  0.45594000000E+02  0.51100000000E-03 0. -1.
    9900012    2    1    2    0    0  0.98106840026E+00  0.64138983104E+00  0.14004307118E+00  0.90007538995E+02  0.89999797710E+02 0.  0.
         12    1    1    2    0    0 -0.98106840026E+00 -0.64138983104E+00 -0.14004307118E+00  0.11804610045E+01  0.00000000000E+00 0. -1.
         11    1    3    3    0    0  0.12346722985E-01 -0.44217088955E+01  0.77651952415E+01  0.89358782107E+01  0.51100000000E-03 0. -1.
        -11    1    3    3    0    0  0.32374477549E+02 -0.19838113587E+02  0.66074640918E+01  0.38539799290E+02  0.51100000000E-03 0.  1.
         12    1    3    3    0    0 -0.31405755872E+02  0.24901212313E+02 -0.14232616262E+02  0.42531861495E+02  0.00000000000E+00 0. -1.
</event>
<event>
 7    1  0.2084210E-015  0.9000771E+02  0.7816164E-02  0.1186339E+00
        -11   -1    0    0    0    0  0.00000000000E+00  0.00000000000E+00  0.45593999997E+02  0.45594000000E+02  0.51100000000E-03 0.  1.
         11   -1    0    0    0    0 -0.00000000000E+00 -0.00000000000E+00 -0.45593999997E+02  0.45594000000E+02  0.51100000000E-03 0. -1.
    9900012    2    1    2    0    0  0.14092851034E+00  0.23811805756E+00  0.11473939319E+01  0.90007714488E+02  0.89999975519E+02 0.  0.
         12    1    1    2    0    0 -0.14092851034E+00 -0.23811805756E+00 -0.11473939319E+01  0.11802855118E+01  0.00000000000E+00 0. -1.
         11    1    3    3    0    0  0.20367919598E+02  0.24328901304E+02 -0.65649424671E+01  0.32401328017E+02  0.51100000000E-03 0. -1.
        -11    1    3    3    0    0  0.41188040155E+01 -0.11575860858E+02  0.23128713049E+02  0.26189739759E+02  0.51100000000E-03 0.  1.
        -12    1    3    3    0    0 -0.24345795103E+02 -0.12514922389E+02 -0.15416376650E+02  0.31416646712E+02  0.00000000000E+00 0.  1.
</event>
<event>
 7    1  0.2084210E-015  0.9000773E+02  0.7816164E-02  0.1186339E+00
        -11   -1    0    0    0    0  0.00000000000E+00  0.00000000000E+00  0.45593999997E+02  0.45594000000E+02  0.51100000000E-03 0. -1.
         11   -1    0    0    0    0 -0.00000000000E+00 -0.00000000000E+00 -0.45593999997E+02  0.45594000000E+02  0.51100000000E-03 0.  1.
    9900012    2    1    2    0    0 -0.10387256488E+01 -0.55863476102E+00 -0.44985673342E-01  0.90007725676E+02  0.89999986855E+02 0.  0.
         12    1    1    2    0    0  0.10387256488E+01  0.55863476102E+00  0.44985673342E-01  0.11802743243E+01  0.00000000000E+00 0. -1.
         11    1    3    3    0    0 -0.10536734878E+02 -0.30749605215E+01 -0.28087623147E+01  0.11329929837E+02  0.51100000000E-03 0. -1.
        -11    1    3    3    0    0  0.11982336216E+02 -0.26734618939E+02 -0.24818770783E+02  0.38396453150E+02  0.51100000000E-03 0.  1.
         12    1    3    3    0    0 -0.24843269866E+01  0.29250944700E+02  0.27582547425E+02  0.40281342689E+02  0.00000000000E+00 0. -1.
</event>
<event>
 7    1  0.2084210E-015  0.9000782E+02  0.7816164E-02  0.1186339E+00
        -11   -1    0    0    0    0  0.00000000000E+00  0.00000000000E+00  0.45593999997E+02  0.45594000000E+02  0.51100000000E-03 0.  1.
         11   -1    0    0    0    0 -0.00000000000E+00 -0.00000000000E+00 -0.45593999997E+02  0.45594000000E+02  0.51100000000E-03 0. -1.
    9900012    2    1    2    0    0  0.39630982983E+00 -0.92837746155E-01  0.11077655167E+01  0.90007820027E+02  0.90000082451E+02 0.  0.
         12    1    1    2    0    0 -0.39630982983E+00  0.92837746155E-01 -0.11077655167E+01  0.11801799729E+01  0.00000000000E+00 0. -1.
         11    1    3    3    0    0 -0.17409208445E+00 -0.57050616166E+01  0.91789680139E+01  0.10808861650E+02  0.51100000000E-03 0. -1.
        -11    1    3    3    0    0  0.36205332602E+02 -0.10388724334E+02  0.50239888357E+01  0.37999896924E+02  0.51100000000E-03 0.  1.
         12    1    3    3    0    0 -0.35634930688E+02  0.16000948205E+02 -0.13095191333E+02  0.41199061453E+02  0.00000000000E+00 0. -1.
</event>
<event>
 7    1  0.2084210E-015  0.9000766E+02  0.7816164E-02  0.1186339E+00
        -11   -1    0    0    0    0  0.00000000000E+00  0.00000000000E+00  0.45593999997E+02  0.45594000000E+02  0.51100000000E-03 0.  1.
         11   -1    0    0    0    0 -0.00000000000E+00 -0.00000000000E+00 -0.45593999997E+02  0.45594000000E+02  0.51100000000E-03 0. -1.
    9900012    2    1    2    0    0 -0.69807272624E+00 -0.55142507580E+00  0.77576883125E+00  0.90007664275E+02  0.89999924643E+02 0.  0.
         12    1    1    2    0    0  0.69807272624E+00  0.55142507580E+00 -0.77576883125E+00  0.11803357255E+01  0.00000000000E+00 0. -1.
         11    1    3    3    0    0 -0.63151529509E+01  0.23488615225E+02 -0.27459545297E+02  0.36682732043E+02  0.51100000000E-03 0. -1.
        -11    1    3    3    0    0  0.27798713042E+01 -0.51674075185E+01 -0.94265501009E+01  0.11103586447E+02  0.51100000000E-03 0.  1.
        -12    1    3    3    0    0  0.28372089205E+01 -0.18872632782E+02  0.37661864229E+02  0.42221345784E+02  0.00000000000E+00 0.  1.
</event>
<event>
 7    1  0.2084210E-015  0.9000783E+02  0.7816164E-02  0.1186339E+00
        -11   -1    0    0    0    0  0.00000000000E+00  0.00000000000E+00  0.45593999997E+02  0.45594000000E+02  0.51100000000E-03 0.  1.
         11   -1    0    0    0    0 -0.00000000000E+00 -0.00000000000E+00 -0.45593999997E+02  0.45594000000E+02  0.51100000000E-03 0. -1.
    9900012    2    1    2    0    0  0.15258353864E-01  0.10808787213E+01  0.47356754649E+00  0.90007831432E+02  0.90000094007E+02 0.  0.
         12    1    1    2    0    0 -0.15258353864E-01 -0.10808787213E+01 -0.47356754649E+00  0.11801685679E+01  0.00000000000E+00 0. -1.
         11    1    3    3    0    0  0.34286734698E+00 -0.97117477847E+01 -0.87416581640E+00  0.97570369061E+01  0.51100000000E-03 0. -1.
        -11    1    3    3    0    0 -0.32068707853E+02  0.16392995123E+02  0.21779605908E+02  0.42088995548E+02  0.51100000000E-03 0.  1.
         12    1    3    3    0    0  0.31741098860E+02 -0.56003686174E+01 -0.20431872545E+02  0.38161798978E+02  0.00000000000E+00 0. -1.
</event>
<event>
 7    1  0.2084210E-015  0.9000769E+02  0.7816164E-02  0.1186339E+00
        -11   -1    0    0    0    0  0.00000000000E+00  0.00000000000E+00  0.45593999997E+02  0.45594000000E+02  0.51100000000E-03 0.  1.
         11   -1    0    0    0    0 -0.00000000000E+00 -0.00000000000E+00 -0.45593999997E+02  0.45594000000E+02  0.51100000000E-03 0. -1.
    9900012    2    1    2    0    0  0.20224046315E+00  0.85403678648E+00  0.78920644448E+00  0.90007692053E+02  0.89999952788E+02 0.  0.
         12    1    1    2    0    0 -0.20224046315E+00 -0.85403678648E+00 -0.78920644448E+00  0.11803079469E+01  0.00000000000E+00 0. -1.
         11    1    3    3    0    0  0.26572763413E+01 -0.89653926113E+00 -0.10017786228E+02  0.10402929461E+02  0.51100000000E-03 0. -1.
        -11    1    3    3    0    0  0.22292276558E+02 -0.20073518802E+02 -0.18691984963E+02  0.35345184302E+02  0.51100000000E-03 0.  1.
         12    1    3    3    0    0 -0.24747312436E+02  0.21824094850E+02  0.29498977636E+02  0.44259578290E+02  0.00000000000E+00 0. -1.
</event>
<event>
 7    1  0.2084210E-015  0.9000769E+02  0.7816164E-02  0.1186339E+00
        -11   -1    0    0    0    0  0.00000000000E+00  0.00000000000E+00  0.45593999997E+02  0.45594000000E+02  0.51100000000E-03 0. -1.
         11   -1    0    0    0    0 -0.00000000000E+00 -0.00000000000E+00 -0.45593999997E+02  0.45594000000E+02  0.51100000000E-03 0.  1.
    9900012    2    1    2    0    0  0.11149720700E+01 -0.38718633865E+00 -0.76225953277E-02  0.90007688989E+02  0.89999949684E+02 0.  0.
         12    1    1    2    0    0 -0.11149720700E+01  0.38718633865E+00  0.76225953277E-02  0.11803110106E+01  0.00000000000E+00 0. -1.
         11    1    3    3    0    0  0.10087415912E+02 -0.23159390736E+02  0.23223337573E+02  0.34313798206E+02  0.51100000000E-03 0. -1.
        -11    1    3    3    0    0  0.58959923443E+01 -0.40885306098E+01  0.87808109975E+01  0.11339376099E+02  0.51100000000E-03 0.  1.
        -12    1    3    3    0    0 -0.14868436186E+02  0.26860735007E+02 -0.32011771166E+02  0.44354514685E+02  0.00000000000E+00 0.  1.
</event>
<event>
 7    1  0.2084210E-015  0.9000769E+02  0.7816164E-02  0.1186339E+00
        -11   -1    0    0    0    0  0.00000000000E+00  0.00000000000E+00  0.45593999997E+02  0.45594000000E+02  0.51100000000E-03 0. -1.
         11   -1    0    0    0    0 -0.00000000000E+00 -0.00000000000E+00 -0.45593999997E+02  0.45594000000E+02  0.51100000000E-03 0.  1.
    9900012    2    1    2    0    0 -0.65058489345E+00 -0.54175974912E+00 -0.82241748118E+00  0.90007688667E+02  0.89999949357E+02 0.  0.
         12    1    1    2    0    0  0.65058489345E+00  0.54175974912E+00  0.82241748118E+00  0.11803113330E+01  0.00000000000E+00 0. -1.
         11    1    3    3    0    0  0.10160388385E+02  0.29166445653E+00 -0.18953638899E+00  0.10166340767E+02  0.51100000000E-03 0. -1.
        -11    1    3    3    0    0  0.31147340751E+02  0.52522383761E+01 -0.15143573240E+02  0.35029568289E+02  0.51100000000E-03 0.  1.
         12    1    3    3    0    0 -0.41958314029E+02 -0.60856625818E+01  0.14510692148E+02  0.44811779610E+02  0.00000000000E+00 0. -1.
</event>
<event>
 7    1  0.2084210E-015  0.9000779E+02  0.7816164E-02  0.1186339E+00
        -11   -1    0    0    0    0  0.00000000000E+00  0.00000000000E+00  0.45593999997E+02  0.45594000000E+02  0.51100000000E-03 0.  1.
         11   -1    0    0    0    0 -0.00000000000E+00 -0.00000000000E+00 -0.45593999997E+02  0.45594000000E+02  0.51100000000E-03 0. -1.
    9900012    2    1    2    0    0 -0.20712231235E+00 -0.73680557828E+00  0.89838994969E+00  0.90007793826E+02  0.90000055904E+02 0.  0.
         12    1    1    2    0    0  0.20712231235E+00  0.73680557828E+00 -0.89838994969E+00  0.11802061744E+01  0.00000000000E+00 0. -1.
         11    1    3    3    0    0 -0.79074531752E+01  0.14294503258E+02 -0.95470619806E+01  0.18921073750E+02  0.51100000000E-03 0. -1.
        -11    1    3    3    0    0 -0.29677901106E+02 -0.57618799973E+00  0.88674833426E+01  0.30979704126E+02  0.51100000000E-03 0.  1.
         12    1    3    3    0    0  0.37378231969E+02 -0.14455120837E+02  0.15779685877E+01  0.40107015950E+02  0.00000000000E+00 0. -1.
</event>
<event>
 7    1  0.2084210E-015  0.9000750E+02  0.7816164E-02  0.1186340E+00
        -11   -1    0    0    0    0  0.00000000000E+00  0.00000000000E+00  0.45593999997E+02  0.45594000000E+02  0.51100000000E-03 0.  1.
         11   -1    0    0    0    0 -0.00000000000E+00 -0.00000000000E+00 -0.45593999997E+02  0.45594000000E+02  0.51100000000E-03 0. -1.
    9900012    2    1    2    0    0 -0.11090696232E+01  0.40356977764E+00  0.26046627901E-01  0.90007499080E+02  0.89999757268E+02 0.  0.
         12    1    1    2    0    0  0.11090696232E+01 -0.40356977764E+00 -0.26046627901E-01  0.11805009197E+01  0.00000000000E+00 0. -1.
         11    1    3    3    0    0  0.30565264745E+01 -0.20883744061E+02 -0.28723944196E+02  0.35644608155E+02  0.51100000000E-03 0. -1.
        -11    1    3    3    0    0  0.38587867781E+00 -0.88679440323E+01 -0.38912446932E+01  0.96918068098E+01  0.51100000000E-03 0.  1.
        -12    1    3    3    0    0 -0.45514747756E+01  0.30155257871E+02  0.32641235517E+02  0.44671084115E+02  0.00000000000E+00 0.  1.
</event>
<event>
 7    1  0.2084210E-015  0.9000794E+02  0.7816164E-02  0.1186339E+00
        -11   -1    0    0    0    0  0.00000000000E+00  0.00000000000E+00  0.45593999997E+02  0.45594000000E+02  0.51100000000E-03 0. -1.
         11   -1    0    0    0    0 -0.00000000000E+00 -0.00000000000E+00 -0.45593999997E+02  0.45594000000E+02  0.51100000000E-03 0.  1.
    9900012    2    1    2    0    0  0.78915365578E+00  0.65760367186E+00 -0.58080773881E+00  0.90007939107E+02  0.90000203103E+02 0.  0.
         12    1    1    2    0    0 -0.78915365578E+00 -0.65760367186E+00  0.58080773881E+00  0.11800608930E+01  0.00000000000E+00 0. -1.
         11    1    3    3    0    0  0.20646349963E+02  0.18432248112E+02 -0.25396483077E+02  0.37563291791E+02  0.51100000000E-03 0. -1.
        -11    1    3    3    0    0  0.29076543980E+00  0.90681402187E+01 -0.22276157761E+01  0.93422686684E+01  0.51100000000E-03 0.  1.
        -12    1    3    3    0    0 -0.20147961747E+02 -0.26842784659E+02  0.27043291114E+02  0.43102378648E+02  0.00000000000E+00 0.  1.
</event>
<event>
 7    1  0.2084210E-015  0.9000772E+02  0.7816164E-02  0.1186339E+00
        -11   -1    0    0    0    0  0.00000000000E+00  0.00000000000E+00  0.45593999997E+02  0.45594000000E+02  0.51100000000E-03 0. -1.
         11   -1    0    0    0    0 -0.00000000000E+00 -0.00000000000E+00 -0.45593999997E+02  0.45594000000E+02  0.51100000000E-03 0.  1.
    9900012    2    1    2    0    0  0.88327952841E+00 -0.39853828066E+00 -0.67383189073E+00  0.90007718295E+02  0.89999979376E+02 0.  0.
         12    1    1    2    0    0 -0.88327952841E+00  0.39853828066E+00  0.67383189073E+00  0.11802817051E+01  0.00000000000E+00 0. -1.
         11    1    3    3    0    0 -0.87192016625E+01  0.92089639742E+01 -0.30911620913E+02  0.33411941022E+02  0.51100000000E-03 0. -1.
        -11    1    3    3    0    0  0.13263800627E+02  0.42950251581E+01 -0.77693098020E+01  0.15960508239E+02  0.51100000000E-03 0.  1.
         12    1    3    3    0    0 -0.36613194358E+01 -0.13902527413E+02  0.38007098824E+02  0.40635269035E+02  0.00000000000E+00 0. -1.
</event>
<event>
 7    1  0.2084210E-015  0.9000777E+02  0.7816164E-02  0.1186339E+00
        -11   -1    0    0    0    0  0.00000000000E+00  0.00000000000E+00  0.45593999997E+02  0.45594000000E+02  0.51100000000E-03 0.  1.
         11   -1    0    0    0    0 -0.00000000000E+00 -0.00000000000E+00 -0.45593999997E+02  0.45594000000E+02  0.51100000000E-03 0. -1.
    9900012    2    1    2    0    0 -0.75760206595E+00  0.74677583770E+00  0.51117559751E+00  0.90007773101E+02  0.90000034906E+02 0.  0.
         12    1    1    2    0    0  0.75760206595E+00 -0.74677583770E+00 -0.51117559751E+00  0.11802268992E+01  0.00000000000E+00 0. -1.
         11    1    3    3    0    0  0.37058406090E+01 -0.52469111767E+01 -0.67175443822E+01  0.92945540131E+01  0.51100000000E-03 0. -1.
        -11    1    3    3    0    0  0.25099107022E+02 -0.25726384886E+02  0.98708630693E+01  0.37272590339E+02  0.51100000000E-03 0.  1.
         12    1    3    3    0    0 -0.29562549697E+02  0.31720071901E+02 -0.26421430895E+01  0.43440628748E+02  0.00000000000E+00 0. -1.
</event>
<event>
 7    1  0.2084210E-015  0.9000797E+02  0.7816164E-02  0.1186339E+00
        -11   -1    0    0    0    0  0.00000000000E+00  0.00000000000E+00  0.45593999997E+02  0.45594000000E+02  0.51100000000E-03 0. -1.
         11   -1    0    0    0    0 -0.00000000000E+00 -0.00000000000E+00 -0.45593999997E+02  0.45594000000E+02  0.51100000000E-03 0.  1.
    9900012    2    1    2    0    0  0.72516223222E+00 -0.30583350161E+00 -0.87924206763E+00  0.90007974150E+02  0.90000238608E+02 0.  0.
         12    1    1    2    0    0 -0.72516223222E+00  0.30583350161E+00  0.87924206763E+00  0.11800258502E+01  0.00000000000E+00 0. -1.
         11    1    3    3    0    0  0.17639659746E+02  0.30994003885E+02 -0.20323915693E+02  0.41046892966E+02  0.51100000000E-03 0. -1.
        -11    1    3    3    0    0 -0.62436020385E+01 -0.25442800487E+01 -0.60641729311E+01  0.90680825416E+01  0.51100000000E-03 0.  1.
        -12    1    3    3    0    0 -0.10670895475E+02 -0.28755557338E+02  0.25508846556E+02  0.39892998643E+02  0.00000000000E+00 0.  1.
</event>
<event>
 7    1  0.2084210E-015  0.9000769E+02  0.7816164E-02  0.1186339E+00
        -11   -1    0    0    0    0  0.00000000000E+00  0.00000000000E+00  0.45593999997E+02  0.45594000000E+02  0.51100000000E-03 0.  1.
         11   -1    0    0    0    0 -0.00000000000E+00 -0.00000000000E+00 -0.45593999997E+02  0.45594000000E+02  0.51100000000E-03 0. -1.
    9900012    2    1    2    0    0  0.10432413697E+01  0.54961665377E+00  0.51925874761E-01  0.90007691855E+02  0.89999952587E+02 0.  0.
         12    1    1    2    0    0 -0.10432413697E+01 -0.54961665377E+00 -0.51925874761E-01  0.11803081453E+01  0.00000000000E+00 0. -1.
         11    1    3    3    0    0 -0.12019514906E+02 -0.23314830246E+02 -0.27827642158E+02  0.38241701274E+02  0.51100000000E-03 0. -1.
        -11    1    3    3    0    0 -0.43616775199E+01  0.10251635905E+02 -0.49446040361E+01  0.12188903923E+02  0.51100000000E-03 0.  1.
        -12    1    3    3    0    0  0.17424433796E+02  0.13612810995E+02  0.32824172069E+02  0.39577086657E+02  0.00000000000E+00 0.  1.
</event>
<event>
 7    1  0.2084210E-015  0.9000771E+02  0.7816164E-02  0.1186339E+00
        -11   -1    0    0    0    0  0.00000000000E+00  0.00000000000E+00  0.45593999997E+02  0.45594000000E+02  0.51100000000E-03 0. -1.
         11   -1    0    0    0    0 -0.00000000000E+00 -0.00000000000E+00 -0.45593999997E+02  0.45594000000E+02  0.51100000000E-03 0.  1.
    9900012    2    1    2    0    0 -0.20505560275E+00 -0.11603271559E+01  0.68328890193E-01  0.90007713702E+02  0.89999974722E+02 0.  0.
         12    1    1    2    0    0  0.20505560275E+00  0.11603271559E+01 -0.68328890193E-01  0.11802862984E+01  0.00000000000E+00 0. -1.
         11    1    3    3    0    0  0.15414932345E+02  0.32638352495E+02  0.14443781304E+02  0.38878078803E+02  0.51100000000E-03 0. -1.
        -11    1    3    3    0    0  0.15493256632E+01 -0.27283045252E+01  0.83905834633E+01  0.89580101980E+01  0.51100000000E-03 0.  1.
        -12    1    3    3    0    0 -0.17169313611E+02 -0.31070375126E+02 -0.22766035877E+02  0.42171624701E+02  0.00000000000E+00 0.  1.
</event>
<event>
 8    1  0.2084210E-015  0.9000773E+02  0.7816164E-02  0.1186339E+00
        -11   -1    0    0    0    0  0.00000000000E+00  0.00000000000E+00  0.45593999997E+02  0.45594000000E+02  0.51100000000E-03 0.  1.
         11   -1    0    0    0    0 -0.00000000000E+00 -0.00000000000E+00 -0.45593999997E+02  0.45594000000E+02  0.51100000000E-03 0. -1.
    9900012    2    1    2    0    0  0.15250642622E+00  0.87788470200E+00 -0.77401060493E+00  0.90007732159E+02  0.89999993423E+02 0.  0.
         23    2    3    3    0    0 -0.24304667217E+02  0.12184073359E+02 -0.10232064484E+01  0.63062503581E+02  0.56891685810E+02 0.  0.
         12    1    1    2    0    0 -0.15250642622E+00 -0.87788470200E+00  0.77401060493E+00  0.11802678410E+01  0.00000000000E+00 0. -1.
         11    1    4    4    0    0 -0.17014524425E+02 -0.17126951227E+02 -0.16384466882E+02  0.29176655995E+02  0.51100000000E-03 0. -1.
        -11    1    4    4    0    0 -0.72901427914E+01  0.29311024587E+02  0.15361260434E+02  0.33885847586E+02  0.51100000000E-03 0.  1.
         12    1    3    3    0    0  0.24457173643E+02 -0.11306188657E+02  0.24919584352E+00  0.26945228578E+02  0.00000000000E+00 0. -1.
</event>
<event>
 7    1  0.2084210E-015  0.9000774E+02  0.7816164E-02  0.1186339E+00
        -11   -1    0    0    0    0  0.00000000000E+00  0.00000000000E+00  0.45593999997E+02  0.45594000000E+02  0.51100000000E-03 0.  1.
         11   -1    0    0    0    0 -0.00000000000E+00 -0.00000000000E+00 -0.45593999997E+02  0.45594000000E+02  0.51100000000E-03 0. -1.
    9900012    2    1    2    0    0  0.24997401293E+00 -0.11082899183E+01  0.31973453914E+00  0.90007735739E+02  0.89999997051E+02 0.  0.
         12    1    1    2    0    0 -0.24997401293E+00  0.11082899183E+01 -0.31973453914E+00  0.11802642609E+01  0.00000000000E+00 0. -1.
         11    1    3    3    0    0  0.34498905319E+02 -0.16653864096E+02  0.92817911139E+01  0.39416713511E+02  0.51100000000E-03 0. -1.
        -11    1    3    3    0    0 -0.94387556911E+00 -0.54662672505E+01  0.62672131463E+01  0.83695244564E+01  0.51100000000E-03 0.  1.
        -12    1    3    3    0    0 -0.33305055737E+02  0.21011841428E+02 -0.15229269721E+02  0.42221497771E+02  0.00000000000E+00 0.  1.
</event>
<event>
 7    1  0.2084210E-015  0.9000767E+02  0.7816164E-02  0.1186339E+00
        -11   -1    0    0    0    0  0.00000000000E+00  0.00000000000E+00  0.45593999997E+02  0.45594000000E+02  0.51100000000E-03 0. -1.
         11   -1    0    0    0    0 -0.00000000000E+00 -0.00000000000E+00 -0.45593999997E+02  0.45594000000E+02  0.51100000000E-03 0.  1.
    9900012    2    1    2    0    0 -0.86791581473E+00 -0.77405151883E+00  0.20186332420E+00  0.90007668514E+02  0.89999928938E+02 0.  0.
         12    1    1    2    0    0  0.86791581473E+00  0.77405151883E+00 -0.20186332420E+00  0.11803314860E+01  0.00000000000E+00 0. -1.
         11    1    3    3    0    0 -0.40225101381E+01  0.79371667184E+01  0.34769316762E+02  0.35889895398E+02  0.51100000000E-03 0. -1.
        -11    1    3    3    0    0 -0.16821612692E+01 -0.42967116499E+01  0.89717922765E+01  0.10088828200E+02  0.51100000000E-03 0.  1.
        -12    1    3    3    0    0  0.48367555926E+01 -0.44145065873E+01 -0.43539245714E+02  0.44028944916E+02  0.00000000000E+00 0.  1.
</event>
<event>
 7    1  0.2084210E-015  0.9000772E+02  0.7816164E-02  0.1186339E+00
        -11   -1    0    0    0    0  0.00000000000E+00  0.00000000000E+00  0.45593999997E+02  0.45594000000E+02  0.51100000000E-03 0.  1.
         11   -1    0    0    0    0 -0.00000000000E+00 -0.00000000000E+00 -0.45593999997E+02  0.45594000000E+02  0.51100000000E-03 0. -1.
    9900012    2    1    2    0    0  0.10949169148E+01 -0.35259942235E+00 -0.26438263810E+00  0.90007717160E+02  0.89999978227E+02 0.  0.
         12    1    1    2    0    0 -0.10949169148E+01  0.35259942235E+00  0.26438263810E+00  0.11802828400E+01  0.00000000000E+00 0. -1.
         11    1    3    3    0    0  0.28168483728E+02 -0.52478765297E+01  0.19307712737E+02  0.34551287313E+02  0.51100000000E-03 0. -1.
        -11    1    3    3    0    0  0.66585558631E+01  0.33324340286E+01  0.86744199619E+01  0.11431843450E+02  0.51100000000E-03 0.  1.
        -12    1    3    3    0    0 -0.33732122676E+02  0.15628430787E+01 -0.28246515337E+02  0.44024586397E+02  0.00000000000E+00 0.  1.
</event>
<event>
 7    1  0.2084210E-015  0.9000729E+02  0.7816164E-02  0.1186340E+00
        -11   -1    0    0    0    0  0.00000000000E+00  0.00000000000E+00  0.45593999997E+02  0.45594000000E+02  0.51100000000E-03 0.  1.
         11   -1    0    0    0    0 -0.00000000000E+00 -0.00000000000E+00 -0.45593999997E+02  0.45594000000E+02  0.51100000000E-03 0. -1.
    9900012    2    1    2    0    0  0.10385402349E+01 -0.12388462881E+00  0.54786578587E+00  0.90007292526E+02  0.89999547986E+02 0.  0.
         12    1    1    2    0    0 -0.10385402349E+01  0.12388462881E+00 -0.54786578587E+00  0.11807074744E+01  0.00000000000E+00 0. -1.
         11    1    3    3    0    0  0.25086706015E+01  0.11370195956E+02 -0.12116576418E+02  0.16804350884E+02  0.51100000000E-03 0. -1.
        -11    1    3    3    0    0 -0.33773519857E+01 -0.38111235257E+02 -0.84404074519E+01  0.39180521149E+02  0.51100000000E-03 0.  1.
         12    1    3    3    0    0  0.19072216191E+01  0.26617154672E+02  0.21104849656E+02  0.34022420493E+02  0.00000000000E+00 0. -1.
</event>
<event>
 7    1  0.2175535E-015  0.9000775E+02  0.7816164E-02  0.1186339E+00
        -11   -1    0    0    0    0  0.00000000000E+00  0.00000000000E+00  0.45593999997E+02  0.45594000000E+02  0.51100000000E-03 0.  1.
         11   -1    0    0    0    0 -0.00000000000E+00 -0.00000000000E+00 -0.45593999997E+02  0.45594000000E+02  0.51100000000E-03 0. -1.
    9900012    2    1    2    0    0  0.50957746769E+00  0.91848740289E+00 -0.53822909475E+00  0.90007754744E+02  0.90000016307E+02 0.  0.
         12    1    1    2    0    0 -0.50957746769E+00 -0.91848740289E+00  0.53822909475E+00  0.11802452556E+01  0.00000000000E+00 0. -1.
         11    1    3    3    0    0 -0.17240870458E+02 -0.24319502975E+02  0.23605603075E+02  0.38025127690E+02  0.51100000000E-03 0. -1.
        -11    1    3    3    0    0  0.31521556047E+01  0.10892927151E+01  0.83232580733E+01  0.89665639345E+01  0.51100000000E-03 0.  1.
        -12    1    3    3    0    0  0.14598292321E+02  0.24148697663E+02 -0.32467090243E+02  0.43016063120E+02  0.00000000000E+00 0.  1.
</event>
<event>
 8    1  0.2084210E-015  0.9000758E+02  0.7816164E-02  0.1186339E+00
        -11   -1    0    0    0    0  0.00000000000E+00  0.00000000000E+00  0.45593999997E+02  0.45594000000E+02  0.51100000000E-03 0.  1.
         11   -1    0    0    0    0 -0.00000000000E+00 -0.00000000000E+00 -0.45593999997E+02  0.45594000000E+02  0.51100000000E-03 0. -1.
    9900012    2    1    2    0    0 -0.74172399805E+00 -0.32906879413E+00  0.85729321688E+00  0.90007579558E+02  0.89999838808E+02 0.  0.
         23    2    3    3    0    0 -0.33556723016E+01 -0.18523639913E+02 -0.20624713540E+02  0.61734770037E+02  0.55058307735E+02 0.  0.
         12    1    1    2    0    0  0.74172399805E+00  0.32906879413E+00 -0.85729321688E+00  0.11804204422E+01  0.00000000000E+00 0. -1.
         11    1    4    4    0    0  0.17583000680E+01  0.19590792928E+02 -0.83361463317E+01  0.21363101896E+02  0.51100000000E-03 0. -1.
        -11    1    4    4    0    0 -0.51139723696E+01 -0.38114432841E+02 -0.12288567208E+02  0.40371668141E+02  0.51100000000E-03 0.  1.
         12    1    3    3    0    0  0.26139483036E+01  0.18194571119E+02  0.21482006757E+02  0.28272809521E+02  0.00000000000E+00 0. -1.
</event>
<event>
 7    1  0.2084210E-015  0.9000765E+02  0.7816164E-02  0.1186339E+00
        -11   -1    0    0    0    0  0.00000000000E+00  0.00000000000E+00  0.45593999997E+02  0.45594000000E+02  0.51100000000E-03 0. -1.
         11   -1    0    0    0    0 -0.00000000000E+00 -0.00000000000E+00 -0.45593999997E+02  0.45594000000E+02  0.51100000000E-03 0.  1.
    9900012    2    1    2    0    0  0.29422264504E+00 -0.89500425830E+00 -0.71107651532E+00  0.90007648613E+02  0.89999908774E+02 0.  0.
         12    1    1    2    0    0 -0.29422264504E+00  0.89500425830E+00  0.71107651532E+00  0.11803513875E+01  0.00000000000E+00 0. -1.
         11    1    3    3    0    0 -0.25184749934E+02  0.13751864513E+02  0.20024978487E+02  0.34991215619E+02  0.51100000000E-03 0. -1.
        -11    1    3    3    0    0  0.23888663524E+01  0.12437882861E+02  0.19433586721E+01  0.12813440432E+02  0.51100000000E-03 0.  1.
        -12    1    3    3    0    0  0.23090106226E+02 -0.27084751633E+02 -0.22679413674E+02  0.42202992562E+02  0.00000000000E+00 0.  1.
</event>
<event>
 7    1  0.2084210E-015  0.9000760E+02  0.7816164E-02  0.1186339E+00
        -11   -1    0    0    0    0  0.00000000000E+00  0.00000000000E+00  0.45593999997E+02  0.45594000000E+02  0.51100000000E-03 0.  1.
         11   -1    0    0    0    0 -0.00000000000E+00 -0.00000000000E+00 -0.45593999997E+02  0.45594000000E+02  0.51100000000E-03 0. -1.
    9900012    2    1    2    0    0  0.15511400996E+00 -0.10196436188E+01 -0.57411455786E+00  0.90007601342E+02  0.89999860880E+02 0.  0.
         12    1    1    2    0    0 -0.15511400996E+00  0.10196436188E+01  0.57411455786E+00  0.11803986576E+01  0.00000000000E+00 0. -1.
         11    1    3    3    0    0  0.82934312954E-01 -0.22033808267E+01  0.85868026456E+01  0.88653790164E+01  0.51100000000E-03 0. -1.
        -11    1    3    3    0    0  0.41535979515E+01 -0.39231546753E+02  0.22352049865E+00  0.39451446085E+02  0.51100000000E-03 0.  1.
         12    1    3    3    0    0 -0.40814182545E+01  0.40415283961E+02 -0.93844377021E+01  0.41690776241E+02  0.00000000000E+00 0. -1.
</event>
<event>
 7    1  0.2084210E-015  0.9000760E+02  0.7816164E-02  0.1186339E+00
        -11   -1    0    0    0    0  0.00000000000E+00  0.00000000000E+00  0.45593999997E+02  0.45594000000E+02  0.51100000000E-03 0. -1.
         11   -1    0    0    0    0 -0.00000000000E+00 -0.00000000000E+00 -0.45593999997E+02  0.45594000000E+02  0.51100000000E-03 0.  1.
    9900012    2    1    2    0    0  0.55423258137E+00 -0.10166876309E+01 -0.22916922041E+00  0.90007599210E+02  0.89999858720E+02 0.  0.
         12    1    1    2    0    0 -0.55423258137E+00  0.10166876309E+01  0.22916922041E+00  0.11804007898E+01  0.00000000000E+00 0. -1.
         11    1    3    3    0    0 -0.83809737688E+01 -0.28571488495E+02  0.22626250675E+02  0.37396763176E+02  0.51100000000E-03 0. -1.
        -11    1    3    3    0    0  0.11670205969E+02 -0.48248126245E+01  0.42781200304E+00  0.12635487628E+02  0.51100000000E-03 0.  1.
        -12    1    3    3    0    0 -0.27349996188E+01  0.32379613489E+02 -0.23283231898E+02  0.39975348407E+02  0.00000000000E+00 0.  1.
</event>
<event>
 7    1  0.2084210E-015  0.9000774E+02  0.7816164E-02  0.1186339E+00
        -11   -1    0    0    0    0  0.00000000000E+00  0.00000000000E+00  0.45593999997E+02  0.45594000000E+02  0.51100000000E-03 0.  1.
         11   -1    0    0    0    0 -0.00000000000E+00 -0.00000000000E+00 -0.45593999997E+02  0.45594000000E+02  0.51100000000E-03 0. -1.
    9900012    2    1    2    0    0 -0.97129320041E+00  0.50842165563E+00  0.43716644711E+00  0.90007738350E+02  0.89999999696E+02 0.  0.
         12    1    1    2    0    0  0.97129320041E+00 -0.50842165563E+00 -0.43716644711E+00  0.11802616505E+01  0.00000000000E+00 0. -1.
         11    1    3    3    0    0 -0.17184559483E+01  0.34450259058E+01 -0.11518070625E+02  0.12144432696E+02  0.51100000000E-03 0. -1.
        -11    1    3    3    0    0  0.80345451850E+01  0.33281698986E+02  0.20551377253E+02  0.39932249010E+02  0.51100000000E-03 0.  1.
         12    1    3    3    0    0 -0.72873824371E+01 -0.36218303236E+02 -0.85961401812E+01  0.37931056643E+02  0.00000000000E+00 0. -1.
</event>
<event>
 7    1  0.2084210E-015  0.9000747E+02  0.7816164E-02  0.1186340E+00
        -11   -1    0    0    0    0  0.00000000000E+00  0.00000000000E+00  0.45593999997E+02  0.45594000000E+02  0.51100000000E-03 0. -1.
         11   -1    0    0    0    0 -0.00000000000E+00 -0.00000000000E+00 -0.45593999997E+02  0.45594000000E+02  0.51100000000E-03 0.  1.
    9900012    2    1    2    0    0  0.25022458700E+00  0.11370278083E+01  0.19548868333E+00  0.90007466050E+02  0.89999723802E+02 0.  0.
         12    1    1    2    0    0 -0.25022458700E+00 -0.11370278083E+01 -0.19548868333E+00  0.11805339496E+01  0.00000000000E+00 0. -1.
         11    1    3    3    0    0  0.30956985792E+01 -0.46617140242E+01 -0.68057351443E+01  0.88109567274E+01  0.51100000000E-03 0. -1.
        -11    1    3    3    0    0 -0.19148919271E+02  0.27627196231E+02 -0.22954289987E+02  0.40704330358E+02  0.51100000000E-03 0.  1.
         12    1    3    3    0    0  0.16303445279E+02 -0.21828454398E+02  0.29955513815E+02  0.40492178965E+02  0.00000000000E+00 0. -1.
</event>
<event>
 7    1  0.2084210E-015  0.9000763E+02  0.7816164E-02  0.1186339E+00
        -11   -1    0    0    0    0  0.00000000000E+00  0.00000000000E+00  0.45593999997E+02  0.45594000000E+02  0.51100000000E-03 0.  1.
         11   -1    0    0    0    0 -0.00000000000E+00 -0.00000000000E+00 -0.45593999997E+02  0.45594000000E+02  0.51100000000E-03 0. -1.
    9900012    2    1    2    0    0  0.10811469047E+01 -0.36713763138E+00  0.29932637531E+00  0.90007633553E+02  0.89999893516E+02 0.  0.
         12    1    1    2    0    0 -0.10811469047E+01  0.36713763138E+00 -0.29932637531E+00  0.11803664469E+01  0.00000000000E+00 0. -1.
         11    1    3    3    0    0 -0.10724196752E+02  0.35569420253E+01 -0.85085892234E+01  0.14144126816E+02  0.51100000000E-03 0. -1.
        -11    1    3    3    0    0  0.28281483478E+02 -0.18487362772E+02 -0.20273995071E+02  0.39403803958E+02  0.51100000000E-03 0.  1.
        -12    1    3    3    0    0 -0.16476139821E+02  0.14563283116E+02  0.29081910670E+02  0.36459702779E+02  0.00000000000E+00 0.  1.
</event>
<event>
 7    1  0.2084210E-015  0.9000766E+02  0.7816164E-02  0.1186339E+00
        -11   -1    0    0    0    0  0.00000000000E+00  0.00000000000E+00  0.45593999997E+02  0.45594000000E+02  0.51100000000E-03 0.  1.
         11   -1    0    0    0    0 -0.00000000000E+00 -0.00000000000E+00 -0.45593999997E+02  0.45594000000E+02  0.51100000000E-03 0. -1.
    9900012    2    1    2    0    0  0.11240566556E+01 -0.21093002066E+00  0.29190404277E+00  0.90007659876E+02  0.89999920186E+02 0.  0.
         12    1    1    2    0    0 -0.11240566556E+01  0.21093002066E+00 -0.29190404277E+00  0.11803401242E+01  0.00000000000E+00 0. -1.
         11    1    3    3    0    0 -0.70765189101E+01 -0.59558476538E+01 -0.31236531482E+02  0.32577141379E+02  0.51100000000E-03 0. -1.
        -11    1    3    3    0    0  0.64934504664E+01  0.11989038314E+02 -0.90332942046E+01  0.16355498864E+02  0.51100000000E-03 0.  1.
        -12    1    3    3    0    0  0.17071250994E+01 -0.62441206804E+01  0.40561729729E+02  0.41075019632E+02  0.00000000000E+00 0.  1.
</event>
<event>
 7    1  0.2084210E-015  0.9000784E+02  0.7816164E-02  0.1186339E+00
        -11   -1    0    0    0    0  0.00000000000E+00  0.00000000000E+00  0.45593999997E+02  0.45594000000E+02  0.51100000000E-03 0.  1.
         11   -1    0    0    0    0 -0.00000000000E+00 -0.00000000000E+00 -0.45593999997E+02  0.45594000000E+02  0.51100000000E-03 0. -1.
    9900012    2    1    2    0    0  0.44413090953E+00  0.10880876251E+01  0.10767579675E+00  0.90007838561E+02  0.90000101230E+02 0.  0.
         12    1    1    2    0    0 -0.44413090953E+00 -0.10880876251E+01 -0.10767579675E+00  0.11801614389E+01  0.00000000000E+00 0. -1.
         11    1    3    3    0    0  0.24016953035E+02  0.14697467747E+02 -0.22436379502E+02  0.36003065379E+02  0.51100000000E-03 0. -1.
        -11    1    3    3    0    0  0.13234738269E+01  0.87264554429E+01 -0.54629976104E+01  0.10380122866E+02  0.51100000000E-03 0.  1.
        -12    1    3    3    0    0 -0.24896295952E+02 -0.22335835565E+02  0.28007052909E+02  0.43624650316E+02  0.00000000000E+00 0.  1.
</event>
<event>
 7    1  0.2084210E-015  0.9000779E+02  0.7816164E-02  0.1186339E+00
        -11   -1    0    0    0    0  0.00000000000E+00  0.00000000000E+00  0.45593999997E+02  0.45594000000E+02  0.51100000000E-03 0.  1.
         11   -1    0    0    0    0 -0.00000000000E+00 -0.00000000000E+00 -0.45593999997E+02  0.45594000000E+02  0.51100000000E-03 0. -1.
    9900012    2    1    2    0    0 -0.81922420351E+00  0.81777582192E+00  0.23021950867E+00  0.90007793826E+02  0.90000055905E+02 0.  0.
         12    1    1    2    0    0  0.81922420351E+00 -0.81777582192E+00 -0.23021950867E+00  0.11802061738E+01  0.00000000000E+00 0. -1.
         11    1    3    3    0    0 -0.15374885085E+02  0.16543467233E+02 -0.25630714694E+02  0.34161483215E+02  0.51100000000E-03 0. -1.
        -11    1    3    3    0    0 -0.10726909332E+02 -0.17651372048E+01 -0.63450949472E+01  0.12587395414E+02  0.51100000000E-03 0.  1.
        -12    1    3    3    0    0  0.25282570214E+02 -0.13960554206E+02  0.32206029150E+02  0.43258915196E+02  0.00000000000E+00 0.  1.
</event>
<event>
 7    1  0.2084210E-015  0.9000771E+02  0.7816164E-02  0.1186339E+00
        -11   -1    0    0    0    0  0.00000000000E+00  0.00000000000E+00  0.45593999997E+02  0.45594000000E+02  0.51100000000E-03 0. -1.
         11   -1    0    0    0    0 -0.00000000000E+00 -0.00000000000E+00 -0.45593999997E+02  0.45594000000E+02  0.51100000000E-03 0.  1.
    9900012    2    1    2    0    0 -0.67419358921E+00 -0.81965610785E+00 -0.51645006633E+00  0.90007706053E+02  0.89999966973E+02 0.  0.
         12    1    1    2    0    0  0.67419358921E+00  0.81965610785E+00  0.51645006633E+00  0.11802939472E+01  0.00000000000E+00 0. -1.
         11    1    3    3    0    0 -0.25380948997E+01  0.58219765624E+01 -0.87905960792E+01  0.10844902789E+02  0.51100000000E-03 0. -1.
        -11    1    3    3    0    0 -0.15074106257E+02  0.32467515394E+02  0.72954748461E+01  0.36532070688E+02  0.51100000000E-03 0.  1.
         12    1    3    3    0    0  0.16938007567E+02 -0.39109148064E+02  0.97867116676E+00  0.42630732575E+02  0.00000000000E+00 0. -1.
</event>
<event>
 7    1  0.2084210E-015  0.9000768E+02  0.7816164E-02  0.1186339E+00
        -11   -1    0    0    0    0  0.00000000000E+00  0.00000000000E+00  0.45593999997E+02  0.45594000000E+02  0.51100000000E-03 0. -1.
         11   -1    0    0    0    0 -0.00000000000E+00 -0.00000000000E+00 -0.45593999997E+02  0.45594000000E+02  0.51100000000E-03 0.  1.
    9900012    2    1    2    0    0 -0.30502833038E-01 -0.10052628337E+01 -0.61779749375E+00  0.90007679056E+02  0.89999939619E+02 0.  0.
         12    1    1    2    0    0  0.30502833038E-01  0.10052628337E+01  0.61779749375E+00  0.11803209441E+01  0.00000000000E+00 0. -1.
         11    1    3    3    0    0 -0.52794998370E+01 -0.14658197217E+02  0.10757283748E+01  0.15617075782E+02  0.51100000000E-03 0. -1.
        -11    1    3    3    0    0  0.18012411802E+02 -0.51209505182E+01 -0.31667541817E+02  0.36790002964E+02  0.51100000000E-03 0.  1.
         12    1    3    3    0    0 -0.12763414798E+02  0.18773884901E+02  0.29974015948E+02  0.37600600310E+02  0.00000000000E+00 0. -1.
</event>
<event>
 7    1  0.2084210E-015  0.9000774E+02  0.7816164E-02  0.1186339E+00
        -11   -1    0    0    0    0  0.00000000000E+00  0.00000000000E+00  0.45593999997E+02  0.45594000000E+02  0.51100000000E-03 0. -1.
         11   -1    0    0    0    0 -0.00000000000E+00 -0.00000000000E+00 -0.45593999997E+02  0.45594000000E+02  0.51100000000E-03 0.  1.
    9900012    2    1    2    0    0  0.56038123303E+00  0.39254816657E+00 -0.96171253430E+00  0.90007740627E+02  0.90000002003E+02 0.  0.
         12    1    1    2    0    0 -0.56038123303E+00 -0.39254816657E+00  0.96171253430E+00  0.11802593732E+01  0.00000000000E+00 0. -1.
         11    1    3    3    0    0  0.84983839530E+00  0.34290699260E+02  0.21896171319E+02  0.40694183856E+02  0.51100000000E-03 0. -1.
        -11    1    3    3    0    0 -0.36122675351E+01  0.19496490669E+01 -0.10460893143E+02  0.11237432707E+02  0.51100000000E-03 0.  1.
        -12    1    3    3    0    0  0.33228103728E+01 -0.35847800160E+02 -0.12396990710E+02  0.38076124064E+02  0.00000000000E+00 0.  1.
</event>
<event>
 7    1  0.2084210E-015  0.9000777E+02  0.7816164E-02  0.1186339E+00
        -11   -1    0    0    0    0  0.00000000000E+00  0.00000000000E+00  0.45593999997E+02  0.45594000000E+02  0.51100000000E-03 0. -1.
         11   -1    0    0    0    0 -0.00000000000E+00 -0.00000000000E+00 -0.45593999997E+02  0.45594000000E+02  0.51100000000E-03 0.  1.
    9900012    2    1    2    0    0  0.64416039842E+00  0.97677695823E+00 -0.15463887603E+00  0.90007767384E+02  0.90000029114E+02 0.  0.
         12    1    1    2    0    0 -0.64416039842E+00 -0.97677695823E+00  0.15463887603E+00  0.11802326156E+01  0.00000000000E+00 0. -1.
         11    1    3    3    0    0 -0.53471685033E+01  0.32227598912E+02  0.28641542622E+02  0.43445923936E+02  0.51100000000E-03 0. -1.
        -11    1    3    3    0    0  0.19496322135E+01 -0.88318126252E+01  0.95061899951E+00  0.90942650477E+01  0.51100000000E-03 0.  1.
        -12    1    3    3    0    0  0.40416966882E+01 -0.22419009329E+02 -0.29746800497E+02  0.37467578401E+02  0.00000000000E+00 0.  1.
</event>
<event>
 7    1  0.2084210E-015  0.9000777E+02  0.7816164E-02  0.1186339E+00
        -11   -1    0    0    0    0  0.00000000000E+00  0.00000000000E+00  0.45593999997E+02  0.45594000000E+02  0.51100000000E-03 0.  1.
         11   -1    0    0    0    0 -0.00000000000E+00 -0.00000000000E+00 -0.45593999997E+02  0.45594000000E+02  0.51100000000E-03 0. -1.
    9900012    2    1    2    0    0 -0.21859616607E+00 -0.78002839445E+00  0.85832515375E+00  0.90007766697E+02  0.90000028417E+02 0.  0.
         12    1    1    2    0    0  0.21859616607E+00  0.78002839445E+00 -0.85832515375E+00  0.11802333030E+01  0.00000000000E+00 0. -1.
         11    1    3    3    0    0 -0.15633390237E+01 -0.95101966916E+01 -0.13688773258E+01  0.97345619013E+01  0.51100000000E-03 0. -1.
        -11    1    3    3    0    0  0.40407205904E+02  0.70659542897E+01 -0.10899778387E+01  0.41034839478E+02  0.51100000000E-03 0.  1.
         12    1    3    3    0    0 -0.39062463047E+02  0.16642140074E+01  0.33171803183E+01  0.39238365318E+02  0.00000000000E+00 0. -1.
</event>
<event>
 7    1  0.2084210E-015  0.9000790E+02  0.7816164E-02  0.1186339E+00
        -11   -1    0    0    0    0  0.00000000000E+00  0.00000000000E+00  0.45593999997E+02  0.45594000000E+02  0.51100000000E-03 0.  1.
         11   -1    0    0    0    0 -0.00000000000E+00 -0.00000000000E+00 -0.45593999997E+02  0.45594000000E+02  0.51100000000E-03 0. -1.
    9900012    2    1    2    0    0 -0.57084041676E+00  0.52753702724E+00  0.88796516895E+00  0.90007899903E+02  0.90000163382E+02 0.  0.
         12    1    1    2    0    0  0.57084041676E+00 -0.52753702724E+00 -0.88796516895E+00  0.11801000965E+01  0.00000000000E+00 0. -1.
         11    1    3    3    0    0 -0.53865526466E+01 -0.67461052379E+01 -0.37424704490E+01  0.94090897869E+01  0.51100000000E-03 0. -1.
        -11    1    3    3    0    0  0.39000155779E+02 -0.12472488378E+02  0.36595060694E+01  0.41109209456E+02  0.51100000000E-03 0.  1.
         12    1    3    3    0    0 -0.34184443549E+02  0.19746130643E+02  0.97092954853E+00  0.39489600661E+02  0.00000000000E+00 0. -1.
</event>
<event>
 7    1  0.2084210E-015  0.9000775E+02  0.7816164E-02  0.1186339E+00
        -11   -1    0    0    0    0  0.00000000000E+00  0.00000000000E+00  0.45593999997E+02  0.45594000000E+02  0.51100000000E-03 0. -1.
         11   -1    0    0    0    0 -0.00000000000E+00 -0.00000000000E+00 -0.45593999997E+02  0.45594000000E+02  0.51100000000E-03 0.  1.
    9900012    2    1    2    0    0 -0.20494655857E+00  0.11601164876E+01  0.71532569580E-01  0.90007749914E+02  0.90000011413E+02 0.  0.
         12    1    1    2    0    0  0.20494655857E+00 -0.11601164876E+01 -0.71532569580E-01  0.11802500859E+01  0.00000000000E+00 0. -1.
         11    1    3    3    0    0  0.37625313059E+01 -0.71131018647E+01 -0.41155465279E+01  0.90382843200E+01  0.51100000000E-03 0. -1.
        -11    1    3    3    0    0 -0.30874139383E+02  0.18162489081E+02 -0.22088226607E+02  0.42082992374E+02  0.51100000000E-03 0.  1.
         12    1    3    3    0    0  0.26906661519E+02 -0.98892707290E+01  0.26275305704E+02  0.38886473220E+02  0.00000000000E+00 0. -1.
</event>
<event>
 7    1  0.2084210E-015  0.9000779E+02  0.7816164E-02  0.1186339E+00
        -11   -1    0    0    0    0  0.00000000000E+00  0.00000000000E+00  0.45593999997E+02  0.45594000000E+02  0.51100000000E-03 0. -1.
         11   -1    0    0    0    0 -0.00000000000E+00 -0.00000000000E+00 -0.45593999997E+02  0.45594000000E+02  0.51100000000E-03 0.  1.
    9900012    2    1    2    0    0  0.24020510421E+00 -0.57576084277E-01 -0.11540690060E+01  0.90007792913E+02  0.90000054979E+02 0.  0.
         12    1    1    2    0    0 -0.24020510421E+00  0.57576084277E-01  0.11540690060E+01  0.11802070870E+01  0.00000000000E+00 0. -1.
         11    1    3    3    0    0  0.80407912830E+01 -0.47798812335E+01  0.17536708204E+01  0.95171923733E+01  0.51100000000E-03 0. -1.
        -11    1    3    3    0    0 -0.95767544333E+01 -0.32234499934E+02 -0.20645533699E+02  0.39459032850E+02  0.51100000000E-03 0.  1.
         12    1    3    3    0    0  0.17761682545E+01  0.36956805083E+02  0.17737793873E+02  0.41031567690E+02  0.00000000000E+00 0. -1.
</event>
<event>
 7    1  0.2084210E-015  0.9000770E+02  0.7816164E-02  0.1186339E+00
        -11   -1    0    0    0    0  0.00000000000E+00  0.00000000000E+00  0.45593999997E+02  0.45594000000E+02  0.51100000000E-03 0. -1.
         11   -1    0    0    0    0 -0.00000000000E+00 -0.00000000000E+00 -0.45593999997E+02  0.45594000000E+02  0.51100000000E-03 0.  1.
    9900012    2    1    2    0    0  0.41910926242E-02  0.88140604579E+00 -0.78498599109E+00  0.90007704618E+02  0.89999965519E+02 0.  0.
         12    1    1    2    0    0 -0.41910926242E-02 -0.88140604579E+00  0.78498599109E+00  0.11802953821E+01  0.00000000000E+00 0. -1.
         11    1    3    3    0    0 -0.10752169263E+02 -0.37611031589E+01  0.34144809820E+02  0.35994764601E+02  0.51100000000E-03 0. -1.
        -11    1    3    3    0    0 -0.24705160235E+01 -0.40889178792E+01  0.74029727851E+01  0.88106018616E+01  0.51100000000E-03 0.  1.
        -12    1    3    3    0    0  0.13226876379E+02  0.87314270839E+01 -0.42332768596E+02  0.45202338155E+02  0.00000000000E+00 0.  1.
</event>
<event>
 7    1  0.2084210E-015  0.9000773E+02  0.7816164E-02  0.1186339E+00
        -11   -1    0    0    0    0  0.00000000000E+00  0.00000000000E+00  0.45593999997E+02  0.45594000000E+02  0.51100000000E-03 0.  1.
         11   -1    0    0    0    0 -0.00000000000E+00 -0.00000000000E+00 -0.45593999997E+02  0.45594000000E+02  0.51100000000E-03 0. -1.
    9900012    2    1    2    0    0  0.11583853511E+01  0.19447613931E+00 -0.11560108343E+00  0.90007728336E+02  0.89999989550E+02 0.  0.
         12    1    1    2    0    0 -0.11583853511E+01 -0.19447613931E+00  0.11560108343E+00  0.11802716641E+01  0.00000000000E+00 0. -1.
         11    1    3    3    0    0  0.54137477875E+01 -0.87853171871E+01  0.74095150889E+01  0.12703990605E+02  0.51100000000E-03 0. -1.
        -11    1    3    3    0    0 -0.24790838773E+02 -0.26026862629E+02  0.42677862050E+00  0.35946702291E+02  0.51100000000E-03 0.  1.
         12    1    3    3    0    0  0.20535476336E+02  0.35006655955E+02 -0.79518947928E+01  0.41357035439E+02  0.00000000000E+00 0. -1.
</event>
<event>
 7    1  0.2084210E-015  0.9000778E+02  0.7816164E-02  0.1186339E+00
        -11   -1    0    0    0    0  0.00000000000E+00  0.00000000000E+00  0.45593999997E+02  0.45594000000E+02  0.51100000000E-03 0. -1.
         11   -1    0    0    0    0 -0.00000000000E+00 -0.00000000000E+00 -0.45593999997E+02  0.45594000000E+02  0.51100000000E-03 0.  1.
    9900012    2    1    2    0    0  0.60982062815E+00 -0.10095763997E+01  0.42284614066E-01  0.90007782353E+02  0.90000044280E+02 0.  0.
         12    1    1    2    0    0 -0.60982062815E+00  0.10095763997E+01 -0.42284614066E-01  0.11802176469E+01  0.00000000000E+00 0. -1.
         11    1    3    3    0    0  0.18828301046E+01 -0.13857319924E+02  0.35702165683E+02  0.38343382733E+02  0.51100000000E-03 0. -1.
        -11    1    3    3    0    0  0.40710333325E+00 -0.10174584440E+02 -0.12926629028E+01  0.10264447344E+02  0.51100000000E-03 0.  1.
        -12    1    3    3    0    0 -0.16801128098E+01  0.23022327964E+02 -0.34367218167E+02  0.41399952276E+02  0.00000000000E+00 0.  1.
</event>
<event>
 7    1  0.2084210E-015  0.9000754E+02  0.7816164E-02  0.1186339E+00
        -11   -1    0    0    0    0  0.00000000000E+00  0.00000000000E+00  0.45593999997E+02  0.45594000000E+02  0.51100000000E-03 0. -1.
         11   -1    0    0    0    0 -0.00000000000E+00 -0.00000000000E+00 -0.45593999997E+02  0.45594000000E+02  0.51100000000E-03 0.  1.
    9900012    2    1    2    0    0 -0.64472379211E+00 -0.96785858426E+00 -0.20265736223E+00  0.90007538644E+02  0.89999797354E+02 0.  0.
         12    1    1    2    0    0  0.64472379211E+00  0.96785858426E+00  0.20265736223E+00  0.11804613563E+01  0.00000000000E+00 0. -1.
         11    1    3    3    0    0 -0.22933021544E+02 -0.22902021314E+02 -0.19374609383E+02  0.37759787425E+02  0.51100000000E-03 0. -1.
        -11    1    3    3    0    0 -0.61541200585E+00  0.35389088121E+00 -0.95893533303E+01  0.96155950542E+01  0.51100000000E-03 0.  1.
        -12    1    3    3    0    0  0.22903709758E+02  0.21580271848E+02  0.28761305351E+02  0.42632156164E+02  0.00000000000E+00 0.  1.
</event>
<event>
 7    1  0.2084210E-015  0.9000778E+02  0.7816164E-02  0.1186339E+00
        -11   -1    0    0    0    0  0.00000000000E+00  0.00000000000E+00  0.45593999997E+02  0.45594000000E+02  0.51100000000E-03 0. -1.
         11   -1    0    0    0    0 -0.00000000000E+00 -0.00000000000E+00 -0.45593999997E+02  0.45594000000E+02  0.51100000000E-03 0.  1.
    9900012    2    1    2    0    0  0.13092421120E-01  0.10843189879E+01  0.46582336270E+00  0.90007783713E+02  0.90000045658E+02 0.  0.
         12    1    1    2    0    0 -0.13092421120E-01 -0.10843189879E+01 -0.46582336270E+00  0.11802162871E+01  0.00000000000E+00 0. -1.
         11    1    3    3    0    0  0.38373913972E+02  0.85483574646E+00  0.13264746208E+02  0.40610854582E+02  0.51100000000E-03 0. -1.
        -11    1    3    3    0    0  0.50933587532E+00 -0.68762456006E+01 -0.63232489860E+01  0.93555146621E+01  0.51100000000E-03 0.  1.
        -12    1    3    3    0    0 -0.38870157426E+02  0.71057288421E+01 -0.64756738590E+01  0.40041414469E+02  0.00000000000E+00 0.  1.
</event>
<event>
 7    1  0.2084210E-015  0.9000776E+02  0.7816164E-02  0.1186339E+00
        -11   -1    0    0    0    0  0.00000000000E+00  0.00000000000E+00  0.45593999997E+02  0.45594000000E+02  0.51100000000E-03 0.  1.
         11   -1    0    0    0    0 -0.00000000000E+00 -0.00000000000E+00 -0.45593999997E+02  0.45594000000E+02  0.51100000000E-03 0. -1.
    9900012    2    1    2    0    0  0.69270629609E-02  0.19588103948E+00  0.11638494409E+01  0.90007761513E+02  0.90000023165E+02 0.  0.
         12    1    1    2    0    0 -0.69270629609E-02 -0.19588103948E+00 -0.11638494409E+01  0.11802384873E+01  0.00000000000E+00 0. -1.
         11    1    3    3    0    0  0.14553555903E+02 -0.31588506636E+02 -0.41784704277E+00  0.34782385446E+02  0.51100000000E-03 0. -1.
        -11    1    3    3    0    0  0.14503766830E+01 -0.10052032479E+02 -0.17717030533E+01  0.10309504423E+02  0.51100000000E-03 0.  1.
        -12    1    3    3    0    0 -0.15997005523E+02  0.41836420154E+02  0.33533995370E+01  0.44915871643E+02  0.00000000000E+00 0.  1.
</event>
<event>
 7    1  0.2084210E-015  0.9000761E+02  0.7816164E-02  0.1186339E+00
        -11   -1    0    0    0    0  0.00000000000E+00  0.00000000000E+00  0.45593999997E+02  0.45594000000E+02  0.51100000000E-03 0.  1.
         11   -1    0    0    0    0 -0.00000000000E+00 -0.00000000000E+00 -0.45593999997E+02  0.45594000000E+02  0.51100000000E-03 0. -1.
    9900012    2    1    2    0    0 -0.93776797617E+00 -0.71143768240E+00  0.88178742714E-01  0.90007606911E+02  0.89999866522E+02 0.  0.
         12    1    1    2    0    0  0.93776797617E+00  0.71143768240E+00 -0.88178742714E-01  0.11803930887E+01  0.00000000000E+00 0. -1.
         11    1    3    3    0    0 -0.23817703101E+02  0.16405651560E+02 -0.23621251459E+02  0.37341557344E+02  0.51100000000E-03 0. -1.
        -11    1    3    3    0    0  0.16187404833E+01  0.26549433567E+01 -0.86492823097E+01  0.91912528914E+01  0.51100000000E-03 0.  1.
        -12    1    3    3    0    0  0.21261194641E+02 -0.19772032599E+02  0.32358712511E+02  0.43474796676E+02  0.00000000000E+00 0.  1.
</event>
<event>
 7    1  0.2084210E-015  0.9000772E+02  0.7816164E-02  0.1186339E+00
        -11   -1    0    0    0    0  0.00000000000E+00  0.00000000000E+00  0.45593999997E+02  0.45594000000E+02  0.51100000000E-03 0.  1.
         11   -1    0    0    0    0 -0.00000000000E+00 -0.00000000000E+00 -0.45593999997E+02  0.45594000000E+02  0.51100000000E-03 0. -1.
    9900012    2    1    2    0    0 -0.88071724009E+00  0.12198635813E+00  0.77622643980E+00  0.90007715706E+02  0.89999976753E+02 0.  0.
         12    1    1    2    0    0  0.88071724009E+00 -0.12198635813E+00 -0.77622643980E+00  0.11802842939E+01  0.00000000000E+00 0. -1.
         11    1    3    3    0    0 -0.68239767332E+01  0.35892762554E+01 -0.35437703413E+01  0.84857451639E+01  0.51100000000E-03 0. -1.
        -11    1    3    3    0    0 -0.21879064888E+02  0.10526688882E+02  0.31785426255E+02  0.39997724706E+02  0.51100000000E-03 0.  1.
         12    1    3    3    0    0  0.27822324381E+02 -0.13993978779E+02 -0.27465429474E+02  0.41524245836E+02  0.00000000000E+00 0. -1.
</event>
<event>
 7    1  0.2084210E-015  0.9000742E+02  0.7816164E-02  0.1186340E+00
        -11   -1    0    0    0    0  0.00000000000E+00  0.00000000000E+00  0.45593999997E+02  0.45594000000E+02  0.51100000000E-03 0.  1.
         11   -1    0    0    0    0 -0.00000000000E+00 -0.00000000000E+00 -0.45593999997E+02  0.45594000000E+02  0.51100000000E-03 0. -1.
    9900012    2    1    2    0    0 -0.57365889668E+00  0.79993505447E+00 -0.65176578747E+00  0.90007415711E+02  0.89999672798E+02 0.  0.
         12    1    1    2    0    0  0.57365889668E+00 -0.79993505447E+00  0.65176578747E+00  0.11805842887E+01  0.00000000000E+00 0. -1.
         11    1    3    3    0    0  0.39443697960E+01  0.78788633926E+01 -0.33273059867E+01  0.94183600928E+01  0.51100000000E-03 0. -1.
        -11    1    3    3    0    0 -0.99659425942E+01  0.30745983954E+02  0.20653479331E+02  0.38356247859E+02  0.51100000000E-03 0.  1.
         12    1    3    3    0    0  0.54479139015E+01 -0.37824912292E+02 -0.17977939132E+02  0.42232807759E+02  0.00000000000E+00 0. -1.
</event>
<event>
 7    1  0.2084210E-015  0.9000765E+02  0.7816164E-02  0.1186339E+00
        -11   -1    0    0    0    0  0.00000000000E+00  0.00000000000E+00  0.45593999997E+02  0.45594000000E+02  0.51100000000E-03 0. -1.
         11   -1    0    0    0    0 -0.00000000000E+00 -0.00000000000E+00 -0.45593999997E+02  0.45594000000E+02  0.51100000000E-03 0.  1.
    9900012    2    1    2    0    0 -0.40379844859E+00  0.11091128730E+01 -0.60820018170E-02  0.90007651940E+02  0.89999912146E+02 0.  0.
         12    1    1    2    0    0  0.40379844859E+00 -0.11091128730E+01  0.60820018170E-02  0.11803480601E+01  0.00000000000E+00 0. -1.
         11    1    3    3    0    0 -0.16985861353E+01  0.10074565053E+02 -0.28014164349E+01  0.10593865685E+02  0.51100000000E-03 0. -1.
        -11    1    3    3    0    0  0.26072105925E+02  0.29262152650E+01 -0.27842157127E+02  0.38255759787E+02  0.51100000000E-03 0.  1.
         12    1    3    3    0    0 -0.24777318238E+02 -0.11891667445E+02  0.30637491560E+02  0.41158026468E+02  0.00000000000E+00 0. -1.
</event>
<event>
 7    1  0.2084210E-015  0.9000765E+02  0.7816164E-02  0.1186339E+00
        -11   -1    0    0    0    0  0.00000000000E+00  0.00000000000E+00  0.45593999997E+02  0.45594000000E+02  0.51100000000E-03 0. -1.
         11   -1    0    0    0    0 -0.00000000000E+00 -0.00000000000E+00 -0.45593999997E+02  0.45594000000E+02  0.51100000000E-03 0.  1.
    9900012    2    1    2    0    0  0.13373331268E+00  0.11703676158E+01 -0.74710768108E-01  0.90007649775E+02  0.89999909952E+02 0.  0.
         12    1    1    2    0    0 -0.13373331268E+00 -0.11703676158E+01  0.74710768108E-01  0.11803502252E+01  0.00000000000E+00 0. -1.
         11    1    3    3    0    0 -0.59961492043E+01  0.73276585961E+01 -0.11210087174E+01  0.95344138041E+01  0.51100000000E-03 0. -1.
        -11    1    3    3    0    0 -0.15491207998E+02  0.17938478937E+02 -0.28205169220E+02  0.36841527151E+02  0.51100000000E-03 0.  1.
         12    1    3    3    0    0  0.21621090515E+02 -0.24095769917E+02  0.29251467170E+02  0.43631708820E+02  0.00000000000E+00 0. -1.
</event>
<event>
 7    1  0.2084210E-015  0.9000777E+02  0.7816164E-02  0.1186339E+00
        -11   -1    0    0    0    0  0.00000000000E+00  0.00000000000E+00  0.45593999997E+02  0.45594000000E+02  0.51100000000E-03 0. -1.
         11   -1    0    0    0    0 -0.00000000000E+00 -0.00000000000E+00 -0.45593999997E+02  0.45594000000E+02  0.51100000000E-03 0.  1.
    9900012    2    1    2    0    0 -0.40743286687E+00  0.38773456412E+00 -0.10375975076E+01  0.90007767726E+02  0.90000029460E+02 0.  0.
         12    1    1    2    0    0  0.40743286687E+00 -0.38773456412E+00  0.10375975076E+01  0.11802322741E+01  0.00000000000E+00 0. -1.
         11    1    3    3    0    0 -0.88417354218E+01 -0.64339165527E+00  0.44980755062E+01  0.99409718645E+01  0.51100000000E-03 0. -1.
        -11    1    3    3    0    0  0.24988332822E+02  0.33456784433E+02 -0.11169751661E+02  0.43226572316E+02  0.51100000000E-03 0.  1.
         12    1    3    3    0    0 -0.16554030267E+02 -0.32425658213E+02  0.56340786469E+01  0.36840223545E+02  0.00000000000E+00 0. -1.
</event>
<event>
 7    1  0.2084210E-015  0.9000774E+02  0.7816164E-02  0.1186339E+00
        -11   -1    0    0    0    0  0.00000000000E+00  0.00000000000E+00  0.45593999997E+02  0.45594000000E+02  0.51100000000E-03 0. -1.
         11   -1    0    0    0    0 -0.00000000000E+00 -0.00000000000E+00 -0.45593999997E+02  0.45594000000E+02  0.51100000000E-03 0.  1.
    9900012    2    1    2    0    0 -0.11143250321E+01  0.78567306564E-01  0.38094491108E+00  0.90007740654E+02  0.90000002031E+02 0.  0.
         12    1    1    2    0    0  0.11143250321E+01 -0.78567306564E-01 -0.38094491108E+00  0.11802593461E+01  0.00000000000E+00 0. -1.
         11    1    3    3    0    0  0.33351600043E+01  0.64330123471E+00 -0.69436473275E+01  0.77299008534E+01  0.51100000000E-03 0. -1.
        -11    1    3    3    0    0  0.16425486133E+02  0.97967266036E+01  0.38715439040E+02  0.43181682079E+02  0.51100000000E-03 0.  1.
         12    1    3    3    0    0 -0.20874971170E+02 -0.10361460532E+02 -0.31390846801E+02  0.39096157722E+02  0.00000000000E+00 0. -1.
</event>
<event>
 7    1  0.2084210E-015  0.9000756E+02  0.7816164E-02  0.1186339E+00
        -11   -1    0    0    0    0  0.00000000000E+00  0.00000000000E+00  0.45593999997E+02  0.45594000000E+02  0.51100000000E-03 0.  1.
         11   -1    0    0    0    0 -0.00000000000E+00 -0.00000000000E+00 -0.45593999997E+02  0.45594000000E+02  0.51100000000E-03 0. -1.
    9900012    2    1    2    0    0  0.27872726111E+00  0.66114925729E+00  0.93735660256E+00  0.90007557444E+02  0.89999816403E+02 0.  0.
         12    1    1    2    0    0 -0.27872726111E+00 -0.66114925729E+00 -0.93735660256E+00  0.11804425555E+01  0.00000000000E+00 0. -1.
         11    1    3    3    0    0 -0.33847437719E+02 -0.93001954339E+01 -0.57186108493E+01  0.35564662034E+02  0.51100000000E-03 0. -1.
        -11    1    3    3    0    0 -0.71210159159E+01 -0.58574201324E+01 -0.19786725124E+01  0.94304498013E+01  0.51100000000E-03 0.  1.
        -12    1    3    3    0    0  0.41247180896E+02  0.15818764824E+02  0.86346399642E+01  0.45012445609E+02  0.00000000000E+00 0.  1.
</event>
<event>
 7    1  0.2084210E-015  0.9000780E+02  0.7816164E-02  0.1186339E+00
        -11   -1    0    0    0    0  0.00000000000E+00  0.00000000000E+00  0.45593999997E+02  0.45594000000E+02  0.51100000000E-03 0.  1.
         11   -1    0    0    0    0 -0.00000000000E+00 -0.00000000000E+00 -0.45593999997E+02  0.45594000000E+02  0.51100000000E-03 0. -1.
    9900012    2    1    2    0    0  0.55382912481E-01  0.54610191582E+00  0.10447813841E+01  0.90007803953E+02  0.90000066165E+02 0.  0.
         12    1    1    2    0    0 -0.55382912481E-01 -0.54610191582E+00 -0.10447813841E+01  0.11801960473E+01  0.00000000000E+00 0. -1.
         11    1    3    3    0    0 -0.86226343637E+01 -0.13210045694E+01 -0.33617138461E+01  0.93485826031E+01  0.51100000000E-03 0. -1.
        -11    1    3    3    0    0  0.17519210239E+02  0.37742498277E+02 -0.65443540193E+01  0.42121817071E+02  0.51100000000E-03 0.  1.
         12    1    3    3    0    0 -0.88411929624E+01 -0.35875391792E+02  0.10950849250E+02  0.38537404278E+02  0.00000000000E+00 0. -1.
</event>
<event>
 7    1  0.2084210E-015  0.9000777E+02  0.7816164E-02  0.1186339E+00
        -11   -1    0    0    0    0  0.00000000000E+00  0.00000000000E+00  0.45593999997E+02  0.45594000000E+02  0.51100000000E-03 0.  1.
         11   -1    0    0    0    0 -0.00000000000E+00 -0.00000000000E+00 -0.45593999997E+02  0.45594000000E+02  0.51100000000E-03 0. -1.
    9900012    2    1    2    0    0 -0.24121029355E+00  0.22991656823E+00  0.11322100899E+01  0.90007769632E+02  0.90000031391E+02 0.  0.
         12    1    1    2    0    0  0.24121029355E+00 -0.22991656823E+00 -0.11322100899E+01  0.11802303680E+01  0.00000000000E+00 0. -1.
         11    1    3    3    0    0  0.11553339923E+02 -0.22796359469E+01 -0.54556729333E+01  0.12978473364E+02  0.51100000000E-03 0. -1.
        -11    1    3    3    0    0 -0.78202629459E+01 -0.69184246379E+01  0.40387340175E+02  0.41715205366E+02  0.51100000000E-03 0.  1.
         12    1    3    3    0    0 -0.39742872708E+01  0.94279771531E+01 -0.33799457152E+02  0.35314090903E+02  0.00000000000E+00 0. -1.
</event>
<event>
 7    1  0.2084210E-015  0.9000761E+02  0.7816164E-02  0.1186339E+00
        -11   -1    0    0    0    0  0.00000000000E+00  0.00000000000E+00  0.45593999997E+02  0.45594000000E+02  0.51100000000E-03 0. -1.
         11   -1    0    0    0    0 -0.00000000000E+00 -0.00000000000E+00 -0.45593999997E+02  0.45594000000E+02  0.51100000000E-03 0.  1.
    9900012    2    1    2    0    0  0.58633328801E+00 -0.43992887618E+00 -0.92520017420E+00  0.90007610444E+02  0.89999870102E+02 0.  0.
         12    1    1    2    0    0 -0.58633328801E+00  0.43992887618E+00  0.92520017420E+00  0.11803895556E+01  0.00000000000E+00 0. -1.
         11    1    3    3    0    0 -0.25455229608E+02  0.16332770168E+02  0.19785676129E+02  0.36141403900E+02  0.51100000000E-03 0. -1.
        -11    1    3    3    0    0  0.13409814183E+01  0.97085978860E+01  0.33853889173E+01  0.10368990426E+02  0.51100000000E-03 0.  1.
        -12    1    3    3    0    0  0.24700581478E+02 -0.26481296930E+02 -0.24096265220E+02  0.43497216118E+02  0.00000000000E+00 0.  1.
</event>
<event>
 7    1  0.2084210E-015  0.9000773E+02  0.7816164E-02  0.1186339E+00
        -11   -1    0    0    0    0  0.00000000000E+00  0.00000000000E+00  0.45593999997E+02  0.45594000000E+02  0.51100000000E-03 0. -1.
         11   -1    0    0    0    0 -0.00000000000E+00 -0.00000000000E+00 -0.45593999997E+02  0.45594000000E+02  0.51100000000E-03 0.  1.
    9900012    2    1    2    0    0 -0.41555600757E+00  0.19210404333E+00 -0.10878664170E+01  0.90007727108E+02  0.89999988306E+02 0.  0.
         12    1    1    2    0    0  0.41555600757E+00 -0.19210404333E+00  0.10878664170E+01  0.11802728922E+01  0.00000000000E+00 0. -1.
         11    1    3    3    0    0  0.10559236742E+02 -0.47865109046E+01  0.31502909805E+01  0.12013846209E+02  0.51100000000E-03 0. -1.
        -11    1    3    3    0    0 -0.49110576724E+01 -0.21714525762E+02  0.27954740818E+02  0.35736628982E+02  0.51100000000E-03 0.  1.
         12    1    3    3    0    0 -0.60637350768E+01  0.26693140710E+02 -0.32192898215E+02  0.42257251917E+02  0.00000000000E+00 0. -1.
</event>
<event>
 7    1  0.2084210E-015  0.9000777E+02  0.7816164E-02  0.1186339E+00
        -11   -1    0    0    0    0  0.00000000000E+00  0.00000000000E+00  0.45593999997E+02  0.45594000000E+02  0.51100000000E-03 0.  1.
         11   -1    0    0    0    0 -0.00000000000E+00 -0.00000000000E+00 -0.45593999997E+02  0.45594000000E+02  0.51100000000E-03 0. -1.
    9900012    2    1    2    0    0  0.50753645160E-01 -0.97978228038E+00  0.65603694908E+00  0.90007773866E+02  0.90000035681E+02 0.  0.
         12    1    1    2    0    0 -0.50753645160E-01  0.97978228038E+00 -0.65603694908E+00  0.11802261343E+01  0.00000000000E+00 0. -1.
         11    1    3    3    0    0 -0.54139742481E+01 -0.43303908150E+01  0.79727312686E+01  0.10565407986E+02  0.51100000000E-03 0. -1.
        -11    1    3    3    0    0 -0.26421275662E+02  0.25760322062E+02  0.76652917916E+01  0.37688654776E+02  0.51100000000E-03 0.  1.
         12    1    3    3    0    0  0.31886003555E+02 -0.22409713527E+02 -0.14981986111E+02  0.41753711104E+02  0.00000000000E+00 0. -1.
</event>
<event>
 7    1  0.2084210E-015  0.9000769E+02  0.7816164E-02  0.1186339E+00
        -11   -1    0    0    0    0  0.00000000000E+00  0.00000000000E+00  0.45593999997E+02  0.45594000000E+02  0.51100000000E-03 0.  1.
         11   -1    0    0    0    0 -0.00000000000E+00 -0.00000000000E+00 -0.45593999997E+02  0.45594000000E+02  0.51100000000E-03 0. -1.
    9900012    2    1    2    0    0  0.95431696732E+00  0.59777642113E+00  0.35367233008E+00  0.90007685787E+02  0.89999946440E+02 0.  0.
         12    1    1    2    0    0 -0.95431696732E+00 -0.59777642113E+00 -0.35367233008E+00  0.11803142128E+01  0.00000000000E+00 0. -1.
         11    1    3    3    0    0  0.15787743980E+02  0.35901279279E+02 -0.36853103572E+01  0.39392083298E+02  0.51100000000E-03 0. -1.
        -11    1    3    3    0    0  0.29564181012E+00  0.32577836873E+01  0.83509921828E+01  0.89688142656E+01  0.51100000000E-03 0.  1.
        -12    1    3    3    0    0 -0.15129068822E+02 -0.38561286545E+02 -0.43120094955E+01  0.41646788224E+02  0.00000000000E+00 0.  1.
</event>
<event>
 7    1  0.2084210E-015  0.9000776E+02  0.7816164E-02  0.1186339E+00
        -11   -1    0    0    0    0  0.00000000000E+00  0.00000000000E+00  0.45593999997E+02  0.45594000000E+02  0.51100000000E-03 0.  1.
         11   -1    0    0    0    0 -0.00000000000E+00 -0.00000000000E+00 -0.45593999997E+02  0.45594000000E+02  0.51100000000E-03 0. -1.
    9900012    2    1    2    0    0 -0.20663927128E+00  0.56916529724E+00  0.10130715822E+01  0.90007761484E+02  0.90000023136E+02 0.  0.
         12    1    1    2    0    0  0.20663927128E+00 -0.56916529724E+00 -0.10130715822E+01  0.11802385160E+01  0.00000000000E+00 0. -1.
         11    1    3    3    0    0  0.20443023429E+02 -0.23758077465E+02  0.13635190398E+02  0.34180138519E+02  0.51100000000E-03 0. -1.
        -11    1    3    3    0    0 -0.17932734619E+02 -0.69326429815E+01  0.49654768836E+01  0.19857000543E+02  0.51100000000E-03 0.  1.
        -12    1    3    3    0    0 -0.27169280810E+01  0.31259885744E+02 -0.17587595699E+02  0.35970622422E+02  0.00000000000E+00 0.  1.
</event>
<event>
 7    1  0.2084210E-015  0.9000830E+02  0.7816164E-02  0.1186338E+00
        -11   -1    0    0    0    0  0.00000000000E+00  0.00000000000E+00  0.45593999997E+02  0.45594000000E+02  0.51100000000E-03 0. -1.
         11   -1    0    0    0    0 -0.00000000000E+00 -0.00000000000E+00 -0.45593999997E+02  0.45594000000E+02  0.51100000000E-03 0.  1.
    9900012    2    1    2    0    0 -0.39866158053E+00  0.11102060612E+01 -0.13851304573E-01  0.90008304949E+02  0.90000573773E+02 0.  0.
         12    1    1    2    0    0  0.39866158053E+00 -0.11102060612E+01  0.13851304573E-01  0.11796950507E+01  0.00000000000E+00 0. -1.
         11    1    3    3    0    0  0.14640712090E+02  0.24423097193E+02  0.25318075145E+02  0.38103058359E+02  0.51100000000E-03 0. -1.
        -11    1    3    3    0    0 -0.80925775106E+00  0.94838593493E+01 -0.45085948004E+01  0.10532137181E+02  0.51100000000E-03 0.  1.
        -12    1    3    3    0    0 -0.14230115919E+02 -0.32796750481E+02 -0.20823331649E+02  0.41373109409E+02  0.00000000000E+00 0.  1.
</event>
<event>
 7    1  0.2084210E-015  0.9000778E+02  0.7816164E-02  0.1186339E+00
        -11   -1    0    0    0    0  0.00000000000E+00  0.00000000000E+00  0.45593999997E+02  0.45594000000E+02  0.51100000000E-03 0. -1.
         11   -1    0    0    0    0 -0.00000000000E+00 -0.00000000000E+00 -0.45593999997E+02  0.45594000000E+02  0.51100000000E-03 0.  1.
    9900012    2    1    2    0    0 -0.25158172470E+00  0.49534196881E+00 -0.10412790171E+01  0.90007780096E+02  0.90000041993E+02 0.  0.
         12    1    1    2    0    0  0.25158172470E+00 -0.49534196881E+00  0.10412790171E+01  0.11802199040E+01  0.00000000000E+00 0. -1.
         11    1    3    3    0    0 -0.60317519678E+01  0.24691343224E+01  0.37862762328E+02  0.38419622948E+02  0.51100000000E-03 0. -1.
        -11    1    3    3    0    0 -0.30660585784E+00  0.40928966148E+01  0.52169859093E+01  0.66379780122E+01  0.51100000000E-03 0.  1.
        -12    1    3    3    0    0  0.60867761010E+01 -0.60666889685E+01 -0.44121027254E+02  0.44950179136E+02  0.00000000000E+00 0.  1.
</event>
<event>
 7    1  0.2084210E-015  0.9000772E+02  0.7816164E-02  0.1186339E+00
        -11   -1    0    0    0    0  0.00000000000E+00  0.00000000000E+00  0.45593999997E+02  0.45594000000E+02  0.51100000000E-03 0.  1.
         11   -1    0    0    0    0 -0.00000000000E+00 -0.00000000000E+00 -0.45593999997E+02  0.45594000000E+02  0.51100000000E-03 0. -1.
    9900012    2    1    2    0    0  0.90499659437E+00 -0.75236532115E+00 -0.89358396381E-01  0.90007721501E+02  0.89999982625E+02 0.  0.
         12    1    1    2    0    0 -0.90499659437E+00  0.75236532115E+00  0.89358396381E-01  0.11802784990E+01  0.00000000000E+00 0. -1.
         11    1    3    3    0    0 -0.96700624174E+00 -0.43418896846E+01 -0.88452898636E+01  0.99008211850E+01  0.51100000000E-03 0. -1.
        -11    1    3    3    0    0 -0.53454373383E+01 -0.36438319355E+02 -0.50092165966E+01  0.37167419455E+02  0.51100000000E-03 0.  1.
         12    1    3    3    0    0  0.72174401744E+01  0.40027843718E+02  0.13765148064E+02  0.42939480861E+02  0.00000000000E+00 0. -1.
</event>
<event>
 7    1  0.2084210E-015  0.9000778E+02  0.7816164E-02  0.1186339E+00
        -11   -1    0    0    0    0  0.00000000000E+00  0.00000000000E+00  0.45593999997E+02  0.45594000000E+02  0.51100000000E-03 0. -1.
         11   -1    0    0    0    0 -0.00000000000E+00 -0.00000000000E+00 -0.45593999997E+02  0.45594000000E+02  0.51100000000E-03 0.  1.
    9900012    2    1    2    0    0 -0.78228558459E-01 -0.95063561955E+00  0.69504925817E+00  0.90007779148E+02  0.90000041033E+02 0.  0.
         12    1    1    2    0    0  0.78228558459E-01  0.95063561955E+00 -0.69504925817E+00  0.11802208521E+01  0.00000000000E+00 0. -1.
         11    1    3    3    0    0 -0.13645617921E+01  0.26031134613E+01 -0.13185165374E+01  0.32212908433E+01  0.51100000000E-03 0. -1.
        -11    1    3    3    0    0 -0.96956637836E+01  0.22930574136E+02 -0.33123391997E+02  0.41436411814E+02  0.51100000000E-03 0.  1.
         12    1    3    3    0    0  0.10981997017E+02 -0.26484323217E+02  0.35136957793E+02  0.45350076490E+02  0.00000000000E+00 0. -1.
</event>
<event>
 7    1  0.2084210E-015  0.9000773E+02  0.7816164E-02  0.1186339E+00
        -11   -1    0    0    0    0  0.00000000000E+00  0.00000000000E+00  0.45593999997E+02  0.45594000000E+02  0.51100000000E-03 0. -1.
         11   -1    0    0    0    0 -0.00000000000E+00 -0.00000000000E+00 -0.45593999997E+02  0.45594000000E+02  0.51100000000E-03 0.  1.
    9900012    2    1    2    0    0  0.44620610928E+00 -0.11148286337E+00 -0.10869674917E+01  0.90007734501E+02  0.89999995796E+02 0.  0.
         12    1    1    2    0    0 -0.44620610928E+00  0.11148286337E+00  0.10869674917E+01  0.11802654992E+01  0.00000000000E+00 0. -1.
         11    1    3    3    0    0  0.29622554110E+01 -0.14307527631E+01  0.10020061287E+02  0.10546261852E+02  0.51100000000E-03 0. -1.
        -11    1    3    3    0    0  0.23844882681E+02  0.24092058510E+02  0.13841123458E+02  0.36613964715E+02  0.51100000000E-03 0.  1.
         12    1    3    3    0    0 -0.26360931983E+02 -0.22772788610E+02 -0.24948152237E+02  0.42847507934E+02  0.00000000000E+00 0. -1.
</event>
<event>
 7    1  0.2084210E-015  0.9000784E+02  0.7816164E-02  0.1186339E+00
        -11   -1    0    0    0    0  0.00000000000E+00  0.00000000000E+00  0.45593999997E+02  0.45594000000E+02  0.51100000000E-03 0.  1.
         11   -1    0    0    0    0 -0.00000000000E+00 -0.00000000000E+00 -0.45593999997E+02  0.45594000000E+02  0.51100000000E-03 0. -1.
    9900012    2    1    2    0    0  0.11203786787E+01 -0.28369210450E+00  0.23886672777E+00  0.90007836068E+02  0.90000098704E+02 0.  0.
         12    1    1    2    0    0 -0.11203786787E+01  0.28369210450E+00 -0.23886672777E+00  0.11801639324E+01  0.00000000000E+00 0. -1.
         11    1    3    3    0    0  0.18137159917E+02 -0.24795815129E+02 -0.32465051517E+02  0.44696404643E+02  0.51100000000E-03 0. -1.
        -11    1    3    3    0    0 -0.57120356997E+01  0.69636247319E+01  0.40882975279E+01  0.98910868048E+01  0.51100000000E-03 0.  1.
        -12    1    3    3    0    0 -0.11304745539E+02  0.17548498292E+02  0.28615620717E+02  0.35420344620E+02  0.00000000000E+00 0.  1.
</event>
<event>
 7    1  0.2084210E-015  0.9000777E+02  0.7816164E-02  0.1186339E+00
        -11   -1    0    0    0    0  0.00000000000E+00  0.00000000000E+00  0.45593999997E+02  0.45594000000E+02  0.51100000000E-03 0. -1.
         11   -1    0    0    0    0 -0.00000000000E+00 -0.00000000000E+00 -0.45593999997E+02  0.45594000000E+02  0.51100000000E-03 0.  1.
    9900012    2    1    2    0    0  0.52415259707E+00  0.76065913271E+00 -0.73458263103E+00  0.90007767013E+02  0.90000028738E+02 0.  0.
         12    1    1    2    0    0 -0.52415259707E+00 -0.76065913271E+00  0.73458263103E+00  0.11802329867E+01  0.00000000000E+00 0. -1.
         11    1    3    3    0    0 -0.41055546656E+01 -0.44358585948E+01 -0.56706647488E+01  0.82878742474E+01  0.51100000000E-03 0. -1.
        -11    1    3    3    0    0 -0.92995255730E+01  0.24334953164E+02 -0.29865637538E+02  0.39631142139E+02  0.51100000000E-03 0.  1.
         12    1    3    3    0    0  0.13929232836E+02 -0.19138435436E+02  0.34801719656E+02  0.42088750627E+02  0.00000000000E+00 0. -1.
</event>
<event>
 7    1  0.2084210E-015  0.9000768E+02  0.7816164E-02  0.1186339E+00
        -11   -1    0    0    0    0  0.00000000000E+00  0.00000000000E+00  0.45593999997E+02  0.45594000000E+02  0.51100000000E-03 0. -1.
         11   -1    0    0    0    0 -0.00000000000E+00 -0.00000000000E+00 -0.45593999997E+02  0.45594000000E+02  0.51100000000E-03 0.  1.
    9900012    2    1    2    0    0  0.11683719931E+01 -0.10400937907E-01 -0.16721391143E+00  0.90007677254E+02  0.89999937793E+02 0.  0.
         12    1    1    2    0    0 -0.11683719931E+01  0.10400937907E-01  0.16721391143E+00  0.11803227465E+01  0.00000000000E+00 0. -1.
         11    1    3    3    0    0  0.78665275745E+01  0.25897072191E+02  0.25573808371E+02  0.37236544939E+02  0.51100000000E-03 0. -1.
        -11    1    3    3    0    0  0.95485651116E+01 -0.41444637086E+00  0.40027615770E+01  0.10361899536E+02  0.51100000000E-03 0.  1.
        -12    1    3    3    0    0 -0.16246720693E+02 -0.25493026759E+02 -0.29743783859E+02  0.42409232778E+02  0.00000000000E+00 0.  1.
</event>
<event>
 7    1  0.2084210E-015  0.9000769E+02  0.7816164E-02  0.1186339E+00
        -11   -1    0    0    0    0  0.00000000000E+00  0.00000000000E+00  0.45593999997E+02  0.45594000000E+02  0.51100000000E-03 0.  1.
         11   -1    0    0    0    0 -0.00000000000E+00 -0.00000000000E+00 -0.45593999997E+02  0.45594000000E+02  0.51100000000E-03 0. -1.
    9900012    2    1    2    0    0  0.49864524819E+00 -0.48029651958E+00  0.95593343071E+00  0.90007686248E+02  0.89999946906E+02 0.  0.
         12    1    1    2    0    0 -0.49864524819E+00  0.48029651958E+00 -0.95593343071E+00  0.11803137524E+01  0.00000000000E+00 0. -1.
         11    1    3    3    0    0  0.79646648680E+01  0.13719660382E+01  0.37325629434E+01  0.89022583459E+01  0.51100000000E-03 0. -1.
        -11    1    3    3    0    0  0.25235580025E+02  0.15418241900E+02  0.21767106438E+02  0.36720070880E+02  0.51100000000E-03 0.  1.
         12    1    3    3    0    0 -0.32701599644E+02 -0.17270504458E+02 -0.24543735951E+02  0.44385357022E+02  0.00000000000E+00 0. -1.
</event>
<event>
 7    1  0.2084210E-015  0.9000771E+02  0.7816164E-02  0.1186339E+00
        -11   -1    0    0    0    0  0.00000000000E+00  0.00000000000E+00  0.45593999997E+02  0.45594000000E+02  0.51100000000E-03 0. -1.
         11   -1    0    0    0    0 -0.00000000000E+00 -0.00000000000E+00 -0.45593999997E+02  0.45594000000E+02  0.51100000000E-03 0.  1.
    9900012    2    1    2    0    0 -0.52455765694E+00  0.36904522296E+00 -0.99082721942E+00  0.90007706100E+02  0.89999967020E+02 0.  0.
         12    1    1    2    0    0  0.52455765694E+00 -0.36904522296E+00  0.99082721942E+00  0.11802939002E+01  0.00000000000E+00 0. -1.
         11    1    3    3    0    0  0.20566179556E+02  0.28184446487E+02  0.22312730847E+02  0.41414836996E+02  0.51100000000E-03 0. -1.
        -11    1    3    3    0    0  0.52680313846E+01 -0.79825095759E+01 -0.39496144451E+01  0.10347563400E+02  0.51100000000E-03 0.  1.
        -12    1    3    3    0    0 -0.26358768597E+02 -0.19832891688E+02 -0.19353943622E+02  0.38245305704E+02  0.00000000000E+00 0.  1.
</event>
<event>
 7    1  0.2084210E-015  0.9000761E+02  0.7816164E-02  0.1186339E+00
        -11   -1    0    0    0    0  0.00000000000E+00  0.00000000000E+00  0.45593999997E+02  0.45594000000E+02  0.51100000000E-03 0. -1.
         11   -1    0    0    0    0 -0.00000000000E+00 -0.00000000000E+00 -0.45593999997E+02  0.45594000000E+02  0.51100000000E-03 0.  1.
    9900012    2    1    2    0    0  0.52446931259E+00  0.10522160509E+01  0.10530729117E+00  0.90007611800E+02  0.89999871475E+02 0.  0.
         12    1    1    2    0    0 -0.52446931259E+00 -0.10522160509E+01 -0.10530729117E+00  0.11803882002E+01  0.00000000000E+00 0. -1.
         11    1    3    3    0    0 -0.95433468286E+01  0.24674005831E+02  0.28161849207E+02  0.38638993044E+02  0.51100000000E-03 0. -1.
        -11    1    3    3    0    0 -0.23705753596E+01 -0.67711390877E+01  0.73248789018E+01  0.10252892434E+02  0.51100000000E-03 0.  1.
        -12    1    3    3    0    0  0.12438391501E+02 -0.16850650693E+02 -0.35381420817E+02  0.41115726322E+02  0.00000000000E+00 0.  1.
</event>
<event>
 7    1  0.2084210E-015  0.9000780E+02  0.7816164E-02  0.1186339E+00
        -11   -1    0    0    0    0  0.00000000000E+00  0.00000000000E+00  0.45593999997E+02  0.45594000000E+02  0.51100000000E-03 0.  1.
         11   -1    0    0    0    0 -0.00000000000E+00 -0.00000000000E+00 -0.45593999997E+02  0.45594000000E+02  0.51100000000E-03 0. -1.
    9900012    2    1    2    0    0 -0.72509579022E+00 -0.56296727007E+00  0.74174311791E+00  0.90007797092E+02  0.90000059213E+02 0.  0.
         12    1    1    2    0    0  0.72509579022E+00  0.56296727007E+00 -0.74174311791E+00  0.11802029085E+01  0.00000000000E+00 0. -1.
         11    1    3    3    0    0 -0.12989153576E+02 -0.90174021159E+01 -0.36891828896E+02  0.40137746463E+02  0.51100000000E-03 0. -1.
        -11    1    3    3    0    0  0.94920711827E+00  0.14690244934E+02  0.63657642726E+01  0.16038305565E+02  0.51100000000E-03 0.  1.
        -12    1    3    3    0    0  0.11314850668E+02 -0.62358100877E+01  0.31267807742E+02  0.33831745064E+02  0.00000000000E+00 0.  1.
</event>
<event>
 7    1  0.2084210E-015  0.9000784E+02  0.7816164E-02  0.1186339E+00
        -11   -1    0    0    0    0  0.00000000000E+00  0.00000000000E+00  0.45593999997E+02  0.45594000000E+02  0.51100000000E-03 0. -1.
         11   -1    0    0    0    0 -0.00000000000E+00 -0.00000000000E+00 -0.45593999997E+02  0.45594000000E+02  0.51100000000E-03 0.  1.
    9900012    2    1    2    0    0 -0.40104823372E+00  0.10719956084E+01  0.28767159983E+00  0.90007843561E+02  0.90000106296E+02 0.  0.
         12    1    1    2    0    0  0.40104823372E+00 -0.10719956084E+01 -0.28767159983E+00  0.11801564386E+01  0.00000000000E+00 0. -1.
         11    1    3    3    0    0  0.88788170711E+01  0.28916118050E+02  0.20886511729E+02  0.36758966908E+02  0.51100000000E-03 0. -1.
        -11    1    3    3    0    0 -0.16598778644E+01  0.81787807959E+01  0.37049878794E+01  0.91309684743E+01  0.51100000000E-03 0.  1.
        -12    1    3    3    0    0 -0.76199874404E+01 -0.36022903237E+02 -0.24303828008E+02  0.44117908179E+02  0.00000000000E+00 0.  1.
</event>
<event>
 7    1  0.2084210E-015  0.9000774E+02  0.7816164E-02  0.1186339E+00
        -11   -1    0    0    0    0  0.00000000000E+00  0.00000000000E+00  0.45593999997E+02  0.45594000000E+02  0.51100000000E-03 0.  1.
         11   -1    0    0    0    0 -0.00000000000E+00 -0.00000000000E+00 -0.45593999997E+02  0.45594000000E+02  0.51100000000E-03 0. -1.
    9900012    2    1    2    0    0 -0.10152252136E+00  0.11480853423E+01  0.25418814324E+00  0.90007738000E+02  0.89999999342E+02 0.  0.
         12    1    1    2    0    0  0.10152252136E+00 -0.11480853423E+01 -0.25418814324E+00  0.11802619996E+01  0.00000000000E+00 0. -1.
         11    1    3    3    0    0 -0.23068842248E+01  0.41938026006E+01  0.87726819231E+01  0.99934800477E+01  0.51100000000E-03 0. -1.
        -11    1    3    3    0    0  0.16756173972E+01  0.35001002168E+02  0.11678317100E+02  0.36935903088E+02  0.51100000000E-03 0.  1.
         12    1    3    3    0    0  0.52974430620E+00 -0.38046719426E+02 -0.20196810879E+02  0.43078354864E+02  0.00000000000E+00 0. -1.
</event>
<event>
 7    1  0.2084210E-015  0.9000778E+02  0.7816164E-02  0.1186339E+00
        -11   -1    0    0    0    0  0.00000000000E+00  0.00000000000E+00  0.45593999997E+02  0.45594000000E+02  0.51100000000E-03 0. -1.
         11   -1    0    0    0    0 -0.00000000000E+00 -0.00000000000E+00 -0.45593999997E+02  0.45594000000E+02  0.51100000000E-03 0.  1.
    9900012    2    1    2    0    0  0.70151312294E+00 -0.61835687901E+00 -0.72001663516E+00  0.90007783983E+02  0.90000045932E+02 0.  0.
         12    1    1    2    0    0 -0.70151312294E+00  0.61835687901E+00  0.72001663516E+00  0.11802160168E+01  0.00000000000E+00 0. -1.
         11    1    3    3    0    0 -0.12561738354E+01 -0.21693132584E+01  0.78091726858E+01  0.82016505056E+01  0.51100000000E-03 0. -1.
        -11    1    3    3    0    0  0.16141428207E+02 -0.11711772793E+02 -0.40074881727E+02  0.44762791157E+02  0.51100000000E-03 0.  1.
         12    1    3    3    0    0 -0.14183741248E+02  0.13262729172E+02  0.31545692406E+02  0.37043342320E+02  0.00000000000E+00 0. -1.
</event>
<event>
 7    1  0.2084210E-015  0.9000775E+02  0.7816164E-02  0.1186339E+00
        -11   -1    0    0    0    0  0.00000000000E+00  0.00000000000E+00  0.45593999997E+02  0.45594000000E+02  0.51100000000E-03 0. -1.
         11   -1    0    0    0    0 -0.00000000000E+00 -0.00000000000E+00 -0.45593999997E+02  0.45594000000E+02  0.51100000000E-03 0.  1.
    9900012    2    1    2    0    0  0.59377207311E+00  0.65823057804E+00 -0.77920093371E+00  0.90007751355E+02  0.90000012873E+02 0.  0.
         12    1    1    2    0    0 -0.59377207311E+00 -0.65823057804E+00  0.77920093371E+00  0.11802486449E+01  0.00000000000E+00 0. -1.
         11    1    3    3    0    0  0.32656074574E+02  0.96886951055E+01 -0.19061189618E+02  0.39033562089E+02  0.51100000000E-03 0. -1.
        -11    1    3    3    0    0  0.67053179119E+01 -0.49507597401E+01  0.53463595418E+01  0.99022659485E+01  0.51100000000E-03 0.  1.
        -12    1    3    3    0    0 -0.38767620413E+02 -0.40797047874E+01  0.12935629143E+02  0.41071923317E+02  0.00000000000E+00 0.  1.
</event>
<event>
 7    1  0.2084210E-015  0.9000768E+02  0.7816164E-02  0.1186339E+00
        -11   -1    0    0    0    0  0.00000000000E+00  0.00000000000E+00  0.45593999997E+02  0.45594000000E+02  0.51100000000E-03 0.  1.
         11   -1    0    0    0    0 -0.00000000000E+00 -0.00000000000E+00 -0.45593999997E+02  0.45594000000E+02  0.51100000000E-03 0. -1.
    9900012    2    1    2    0    0  0.79415367650E+00 -0.97475142304E-01  0.86774570215E+00  0.90007676286E+02  0.89999936813E+02 0.  0.
         12    1    1    2    0    0 -0.79415367650E+00  0.97475142304E-01 -0.86774570215E+00  0.11803237136E+01  0.00000000000E+00 0. -1.
         11    1    3    3    0    0  0.60844637079E+01 -0.73779856454E+01 -0.42027371704E+00  0.95724605538E+01  0.51100000000E-03 0. -1.
        -11    1    3    3    0    0  0.24171489513E+02  0.25798041248E+02  0.20316404183E+02  0.40774454217E+02  0.51100000000E-03 0.  1.
         12    1    3    3    0    0 -0.29461799544E+02 -0.18517530745E+02 -0.19028384764E+02  0.39660761516E+02  0.00000000000E+00 0. -1.
</event>
<event>
 7    1  0.2084210E-015  0.9000775E+02  0.7816164E-02  0.1186339E+00
        -11   -1    0    0    0    0  0.00000000000E+00  0.00000000000E+00  0.45593999997E+02  0.45594000000E+02  0.51100000000E-03 0. -1.
         11   -1    0    0    0    0 -0.00000000000E+00 -0.00000000000E+00 -0.45593999997E+02  0.45594000000E+02  0.51100000000E-03 0.  1.
    9900012    2    1    2    0    0 -0.69696117357E+00  0.15283708269E+00 -0.94015026787E+00  0.90007747240E+02  0.90000008704E+02 0.  0.
         12    1    1    2    0    0  0.69696117357E+00 -0.15283708269E+00  0.94015026787E+00  0.11802527600E+01  0.00000000000E+00 0. -1.
         11    1    3    3    0    0 -0.73346032582E+01  0.17994436357E+01  0.54405325634E+01  0.93077278209E+01  0.51100000000E-03 0. -1.
        -11    1    3    3    0    0 -0.36662158599E+02 -0.37865368997E+01 -0.60219252314E+01  0.37345887573E+02  0.51100000000E-03 0.  1.
         12    1    3    3    0    0  0.43299800684E+02  0.21399303467E+01 -0.35875759984E+00  0.43354131846E+02  0.00000000000E+00 0. -1.
</event>
<event>
 7    1  0.2084210E-015  0.9000773E+02  0.7816164E-02  0.1186339E+00
        -11   -1    0    0    0    0  0.00000000000E+00  0.00000000000E+00  0.45593999997E+02  0.45594000000E+02  0.51100000000E-03 0.  1.
         11   -1    0    0    0    0 -0.00000000000E+00 -0.00000000000E+00 -0.45593999997E+02  0.45594000000E+02  0.51100000000E-03 0. -1.
    9900012    2    1    2    0    0 -0.95342314501E+00  0.62944463885E+00 -0.29636349889E+00  0.90007725638E+02  0.89999986816E+02 0.  0.
         12    1    1    2    0    0  0.95342314501E+00 -0.62944463885E+00  0.29636349889E+00  0.11802743623E+01  0.00000000000E+00 0. -1.
         11    1    3    3    0    0 -0.15403797727E+01  0.45803303644E+01  0.78631080866E+01  0.92293371991E+01  0.51100000000E-03 0. -1.
        -11    1    3    3    0    0 -0.30863849385E+02  0.21494656123E+02  0.56456768020E+01  0.38032500674E+02  0.51100000000E-03 0.  1.
         12    1    3    3    0    0  0.31450806012E+02 -0.25445541848E+02 -0.13805148388E+02  0.42745887765E+02  0.00000000000E+00 0. -1.
</event>
<event>
 7    1  0.2210331E-015  0.9000778E+02  0.7816164E-02  0.1186339E+00
        -11   -1    0    0    0    0  0.00000000000E+00  0.00000000000E+00  0.45593999997E+02  0.45594000000E+02  0.51100000000E-03 0. -1.
         11   -1    0    0    0    0 -0.00000000000E+00 -0.00000000000E+00 -0.45593999997E+02  0.45594000000E+02  0.51100000000E-03 0.  1.
    9900012    2    1    2    0    0 -0.36208156596E+00 -0.11912557409E+00 -0.11169752030E+01  0.90007776476E+02  0.90000038325E+02 0.  0.
         12    1    1    2    0    0  0.36208156596E+00  0.11912557409E+00  0.11169752030E+01  0.11802235241E+01  0.00000000000E+00 0. -1.
         11    1    3    3    0    0 -0.23930659513E+02 -0.18296019303E+02  0.26752515533E+02  0.40287937086E+02  0.51100000000E-03 0. -1.
        -11    1    3    3    0    0 -0.60519494819E+01  0.78507894795E+00 -0.79181050215E+01  0.99969409760E+01  0.51100000000E-03 0.  1.
        -12    1    3    3    0    0  0.29620527428E+02  0.17391814781E+02 -0.19951385714E+02  0.39722898414E+02  0.00000000000E+00 0.  1.
</event>
<event>
 7    1  0.2084210E-015  0.9000776E+02  0.7816164E-02  0.1186339E+00
        -11   -1    0    0    0    0  0.00000000000E+00  0.00000000000E+00  0.45593999997E+02  0.45594000000E+02  0.51100000000E-03 0. -1.
         11   -1    0    0    0    0 -0.00000000000E+00 -0.00000000000E+00 -0.45593999997E+02  0.45594000000E+02  0.51100000000E-03 0.  1.
    9900012    2    1    2    0    0  0.20061423477E-01  0.11753306757E+01 -0.10566838695E+00  0.90007758302E+02  0.90000019911E+02 0.  0.
         12    1    1    2    0    0 -0.20061423477E-01 -0.11753306757E+01  0.10566838695E+00  0.11802416981E+01  0.00000000000E+00 0. -1.
         11    1    3    3    0    0 -0.16059517375E+01 -0.39348585908E+02  0.70582289869E+01  0.40008860151E+02  0.51100000000E-03 0. -1.
        -11    1    3    3    0    0 -0.90401075150E+01  0.33254466568E+01  0.28155190937E+01  0.10035401705E+02  0.51100000000E-03 0.  1.
        -12    1    3    3    0    0  0.10666120676E+02  0.37198469926E+02 -0.99794164676E+01  0.39963496446E+02  0.00000000000E+00 0.  1.
</event>
<event>
 7    1  0.2084210E-015  0.9000777E+02  0.7816164E-02  0.1186339E+00
        -11   -1    0    0    0    0  0.00000000000E+00  0.00000000000E+00  0.45593999997E+02  0.45594000000E+02  0.51100000000E-03 0.  1.
         11   -1    0    0    0    0 -0.00000000000E+00 -0.00000000000E+00 -0.45593999997E+02  0.45594000000E+02  0.51100000000E-03 0. -1.
    9900012    2    1    2    0    0  0.26318116992E+00 -0.85530797407E+00  0.76949199264E+00  0.90007773757E+02  0.90000035570E+02 0.  0.
         12    1    1    2    0    0 -0.26318116992E+00  0.85530797407E+00 -0.76949199264E+00  0.11802262433E+01  0.00000000000E+00 0. -1.
         11    1    3    3    0    0 -0.40161639533E+01 -0.41596197139E+02  0.12260505341E+02  0.43551041099E+02  0.51100000000E-03 0. -1.
        -11    1    3    3    0    0 -0.58918890191E+01  0.63049231856E+01  0.38237609201E+00  0.86378599390E+01  0.51100000000E-03 0.  1.
        -12    1    3    3    0    0  0.10171234142E+02  0.34435965979E+02 -0.11873389440E+02  0.37818872719E+02  0.00000000000E+00 0.  1.
</event>
<event>
 7    1  0.2247204E-015  0.9000772E+02  0.7816164E-02  0.1186339E+00
        -11   -1    0    0    0    0  0.00000000000E+00  0.00000000000E+00  0.45593999997E+02  0.45594000000E+02  0.51100000000E-03 0. -1.
         11   -1    0    0    0    0 -0.00000000000E+00 -0.00000000000E+00 -0.45593999997E+02  0.45594000000E+02  0.51100000000E-03 0.  1.
    9900012    2    1    2    0    0  0.86234945079E+00 -0.17859473389E+00 -0.78582075101E+00  0.90007721682E+02  0.89999982809E+02 0.  0.
         12    1    1    2    0    0 -0.86234945079E+00  0.17859473389E+00  0.78582075101E+00  0.11802783176E+01  0.00000000000E+00 0. -1.
         11    1    3    3    0    0  0.20278750387E+02  0.24779913463E+02  0.19296880735E+02  0.37385042929E+02  0.51100000000E-03 0. -1.
        -11    1    3    3    0    0  0.90910432794E+01  0.20905018062E+01 -0.43466295227E+01  0.10291280493E+02  0.51100000000E-03 0.  1.
        -12    1    3    3    0    0 -0.28507444216E+02 -0.27049010003E+02 -0.15736071963E+02  0.42331398260E+02  0.00000000000E+00 0.  1.
</event>
<event>
 7    1  0.2084210E-015  0.9000768E+02  0.7816164E-02  0.1186339E+00
        -11   -1    0    0    0    0  0.00000000000E+00  0.00000000000E+00  0.45593999997E+02  0.45594000000E+02  0.51100000000E-03 0.  1.
         11   -1    0    0    0    0 -0.00000000000E+00 -0.00000000000E+00 -0.45593999997E+02  0.45594000000E+02  0.51100000000E-03 0. -1.
    9900012    2    1    2    0    0 -0.14660642925E-01 -0.10598877227E+01  0.51920365053E+00  0.90007682522E+02  0.89999943131E+02 0.  0.
         12    1    1    2    0    0  0.14660642925E-01  0.10598877227E+01 -0.51920365053E+00  0.11803174784E+01  0.00000000000E+00 0. -1.
         11    1    3    3    0    0  0.29942466133E+01  0.93592054727E+01 -0.46890182386E+00  0.98376881961E+01  0.51100000000E-03 0. -1.
        -11    1    3    3    0    0  0.37034739883E+02  0.44172007349E+01 -0.20877953926E+01  0.37355622206E+02  0.51100000000E-03 0.  1.
         12    1    3    3    0    0 -0.40043647140E+02 -0.14836293930E+02  0.30759008670E+01  0.42814372119E+02  0.00000000000E+00 0. -1.
</event>
<event>
 7    1  0.2084210E-015  0.9000777E+02  0.7816164E-02  0.1186339E+00
        -11   -1    0    0    0    0  0.00000000000E+00  0.00000000000E+00  0.45593999997E+02  0.45594000000E+02  0.51100000000E-03 0. -1.
         11   -1    0    0    0    0 -0.00000000000E+00 -0.00000000000E+00 -0.45593999997E+02  0.45594000000E+02  0.51100000000E-03 0.  1.
    9900012    2    1    2    0    0 -0.82199481835E+00  0.84230955371E+00 -0.88238956526E-01  0.90007768252E+02  0.90000029993E+02 0.  0.
         12    1    1    2    0    0  0.82199481835E+00 -0.84230955371E+00  0.88238956526E-01  0.11802317481E+01  0.00000000000E+00 0. -1.
         11    1    3    3    0    0 -0.13913043561E+01  0.65681019013E+00  0.10925255793E+02  0.11033056777E+02  0.51100000000E-03 0. -1.
        -11    1    3    3    0    0  0.28937557892E+02  0.25733522276E+02 -0.12719151718E+02  0.40759946592E+02  0.51100000000E-03 0.  1.
         12    1    3    3    0    0 -0.28368248354E+02 -0.25548022912E+02  0.17056569691E+01  0.38214764884E+02  0.00000000000E+00 0. -1.
</event>
<event>
 7    1  0.2084210E-015  0.9000770E+02  0.7816164E-02  0.1186339E+00
        -11   -1    0    0    0    0  0.00000000000E+00  0.00000000000E+00  0.45593999997E+02  0.45594000000E+02  0.51100000000E-03 0.  1.
         11   -1    0    0    0    0 -0.00000000000E+00 -0.00000000000E+00 -0.45593999997E+02  0.45594000000E+02  0.51100000000E-03 0. -1.
    9900012    2    1    2    0    0 -0.64354999944E+00  0.91427539279E+00  0.37822468461E+00  0.90007699188E+02  0.89999960017E+02 0.  0.
         12    1    1    2    0    0  0.64354999944E+00 -0.91427539279E+00 -0.37822468461E+00  0.11803008124E+01  0.00000000000E+00 0. -1.
         11    1    3    3    0    0 -0.10431935024E+02 -0.13294853100E+01 -0.17691492637E+01  0.10664084063E+02  0.51100000000E-03 0. -1.
        -11    1    3    3    0    0  0.15401943212E+02  0.38076285192E+02 -0.76372499621E+01  0.41777397430E+02  0.51100000000E-03 0.  1.
         12    1    3    3    0    0 -0.56135581873E+01 -0.35832524489E+02  0.97846239104E+01  0.37566217695E+02  0.00000000000E+00 0. -1.
</event>
<event>
 7    1  0.2084210E-015  0.9000778E+02  0.7816164E-02  0.1186339E+00
        -11   -1    0    0    0    0  0.00000000000E+00  0.00000000000E+00  0.45593999997E+02  0.45594000000E+02  0.51100000000E-03 0. -1.
         11   -1    0    0    0    0 -0.00000000000E+00 -0.00000000000E+00 -0.45593999997E+02  0.45594000000E+02  0.51100000000E-03 0.  1.
    9900012    2    1    2    0    0  0.84088473270E+00  0.52470906723E+00 -0.64072000661E+00  0.90007775926E+02  0.90000037768E+02 0.  0.
         12    1    1    2    0    0 -0.84088473270E+00 -0.52470906723E+00  0.64072000661E+00  0.11802240744E+01  0.00000000000E+00 0. -1.
         11    1    3    3    0    0  0.40556203001E+01  0.14119763454E+01  0.92205417678E+01  0.10171534986E+02  0.51100000000E-03 0. -1.
        -11    1    3    3    0    0 -0.27351395958E+01 -0.39608120231E+02 -0.10644072157E+02  0.41104506434E+02  0.51100000000E-03 0.  1.
         12    1    3    3    0    0 -0.47959597158E+00  0.38720852953E+02  0.78281038214E+00  0.38731734505E+02  0.00000000000E+00 0. -1.
</event>
<event>
 7    1  0.2084210E-015  0.9000801E+02  0.7816164E-02  0.1186339E+00
        -11   -1    0    0    0    0  0.00000000000E+00  0.00000000000E+00  0.45593999997E+02  0.45594000000E+02  0.51100000000E-03 0. -1.
         11   -1    0    0    0    0 -0.00000000000E+00 -0.00000000000E+00 -0.45593999997E+02  0.45594000000E+02  0.51100000000E-03 0.  1.
    9900012    2    1    2    0    0 -0.76328789463E+00 -0.29845399393E+00 -0.84893773263E+00  0.90008009123E+02  0.90000274043E+02 0.  0.
         12    1    1    2    0    0  0.76328789463E+00  0.29845399393E+00  0.84893773263E+00  0.11799908773E+01  0.00000000000E+00 0. -1.
         11    1    3    3    0    0  0.34531271040E+02  0.10985220258E+02 -0.12683686647E+02  0.38392182159E+02  0.51100000000E-03 0. -1.
        -11    1    3    3    0    0  0.29969345333E+00  0.52301039333E+01 -0.64640413240E+01  0.83203145264E+01  0.51100000000E-03 0.  1.
        -12    1    3    3    0    0 -0.35594252388E+02 -0.16513778185E+02  0.18298790238E+02  0.43295512437E+02  0.00000000000E+00 0.  1.
</event>
<event>
 7    1  0.2084210E-015  0.9000765E+02  0.7816164E-02  0.1186339E+00
        -11   -1    0    0    0    0  0.00000000000E+00  0.00000000000E+00  0.45593999997E+02  0.45594000000E+02  0.51100000000E-03 0. -1.
         11   -1    0    0    0    0 -0.00000000000E+00 -0.00000000000E+00 -0.45593999997E+02  0.45594000000E+02  0.51100000000E-03 0.  1.
    9900012    2    1    2    0    0  0.85999309863E+00 -0.68774478246E+00 -0.42501936022E+00  0.90007651546E+02  0.89999911747E+02 0.  0.
         12    1    1    2    0    0 -0.85999309863E+00  0.68774478246E+00  0.42501936022E+00  0.11803484537E+01  0.00000000000E+00 0. -1.
         11    1    3    3    0    0 -0.54511084251E+01 -0.55716382921E+01  0.70252659448E+01  0.10493431192E+02  0.51100000000E-03 0. -1.
        -11    1    3    3    0    0 -0.20019981755E+02 -0.29526915275E+02 -0.84292555278E+00  0.35684014893E+02  0.51100000000E-03 0.  1.
         12    1    3    3    0    0  0.26331083279E+02  0.34410808785E+02 -0.66073597522E+01  0.43830205461E+02  0.00000000000E+00 0. -1.
</event>
<event>
 7    1  0.2084210E-015  0.9000779E+02  0.7816164E-02  0.1186339E+00
        -11   -1    0    0    0    0  0.00000000000E+00  0.00000000000E+00  0.45593999997E+02  0.45594000000E+02  0.51100000000E-03 0. -1.
         11   -1    0    0    0    0 -0.00000000000E+00 -0.00000000000E+00 -0.45593999997E+02  0.45594000000E+02  0.51100000000E-03 0.  1.
    9900012    2    1    2    0    0  0.99078974879E+00  0.24650983577E+00  0.59200068622E+00  0.90007789748E+02  0.90000051773E+02 0.  0.
         12    1    1    2    0    0 -0.99078974879E+00 -0.24650983577E+00 -0.59200068622E+00  0.11802102516E+01  0.00000000000E+00 0. -1.
         11    1    3    3    0    0 -0.36397007116E+01  0.77066941780E+01  0.36446977056E+01  0.92695403365E+01  0.51100000000E-03 0. -1.
        -11    1    3    3    0    0  0.30248059704E+02 -0.19799066989E+01 -0.30356191655E+02  0.42899458254E+02  0.51100000000E-03 0.  1.
         12    1    3    3    0    0 -0.25617569243E+02 -0.54802776434E+01  0.27303494636E+02  0.37838791158E+02  0.00000000000E+00 0. -1.
</event>
<event>
 7    1  0.2084210E-015  0.9000773E+02  0.7816164E-02  0.1186339E+00
        -11   -1    0    0    0    0  0.00000000000E+00  0.00000000000E+00  0.45593999997E+02  0.45594000000E+02  0.51100000000E-03 0.  1.
         11   -1    0    0    0    0 -0.00000000000E+00 -0.00000000000E+00 -0.45593999997E+02  0.45594000000E+02  0.51100000000E-03 0. -1.
    9900012    2    1    2    0    0  0.91140111667E+00  0.41771366359E+00  0.62281542929E+00  0.90007730641E+02  0.89999991886E+02 0.  0.
         12    1    1    2    0    0 -0.91140111667E+00 -0.41771366359E+00 -0.62281542929E+00  0.11802693587E+01  0.00000000000E+00 0. -1.
         11    1    3    3    0    0 -0.35786012715E+02 -0.14213255884E+02  0.72301578633E+01  0.39178189492E+02  0.51100000000E-03 0. -1.
        -11    1    3    3    0    0 -0.11616159541E+01  0.10130745027E+02  0.44604345024E+01  0.11129996525E+02  0.51100000000E-03 0.  1.
        -12    1    3    3    0    0  0.37859029786E+02  0.45002245200E+01 -0.11067776936E+02  0.39699544624E+02  0.00000000000E+00 0.  1.
</event>
<event>
 7    1  0.2084210E-015  0.9000782E+02  0.7816164E-02  0.1186339E+00
        -11   -1    0    0    0    0  0.00000000000E+00  0.00000000000E+00  0.45593999997E+02  0.45594000000E+02  0.51100000000E-03 0. -1.
         11   -1    0    0    0    0 -0.00000000000E+00 -0.00000000000E+00 -0.45593999997E+02  0.45594000000E+02  0.51100000000E-03 0.  1.
    9900012    2    1    2    0    0 -0.11677844167E+01 -0.16897642658E+00 -0.23553419632E-01  0.90007818556E+02  0.90000080961E+02 0.  0.
         12    1    1    2    0    0  0.11677844167E+01  0.16897642658E+00  0.23553419632E-01  0.11801814438E+01  0.00000000000E+00 0. -1.
         11    1    3    3    0    0 -0.81500281384E+01 -0.16458396075E+01  0.34438743194E+01  0.89995565035E+01  0.51100000000E-03 0. -1.
        -11    1    3    3    0    0 -0.48580387332E+00 -0.38208062759E+02 -0.11357176868E+02  0.39863235341E+02  0.51100000000E-03 0.  1.
         12    1    3    3    0    0  0.74680475951E+01  0.39684925940E+02  0.78897491293E+01  0.41145026711E+02  0.00000000000E+00 0. -1.
</event>
<event>
 7    1  0.2084210E-015  0.9000778E+02  0.7816164E-02  0.1186339E+00
        -11   -1    0    0    0    0  0.00000000000E+00  0.00000000000E+00  0.45593999997E+02  0.45594000000E+02  0.51100000000E-03 0.  1.
         11   -1    0    0    0    0 -0.00000000000E+00 -0.00000000000E+00 -0.45593999997E+02  0.45594000000E+02  0.51100000000E-03 0. -1.
    9900012    2    1    2    0    0  0.11767766094E+01 -0.17333465991E-01  0.88418730024E-01  0.90007779042E+02  0.90000040925E+02 0.  0.
         12    1    1    2    0    0 -0.11767766094E+01  0.17333465992E-01 -0.88418730024E-01  0.11802209579E+01  0.00000000000E+00 0. -1.
         11    1    3    3    0    0  0.29875416431E+01 -0.52796226123E+01  0.66375691722E+01  0.89920600963E+01  0.51100000000E-03 0. -1.
        -11    1    3    3    0    0 -0.34067219476E+02 -0.10819878315E+02  0.15284783694E+02  0.38875053986E+02  0.51100000000E-03 0.  1.
         12    1    3    3    0    0  0.32256454442E+02  0.16082167462E+02 -0.21833934136E+02  0.42140664960E+02  0.00000000000E+00 0. -1.
</event>
<event>
 7    1  0.2084210E-015  0.9000770E+02  0.7816164E-02  0.1186339E+00
        -11   -1    0    0    0    0  0.00000000000E+00  0.00000000000E+00  0.45593999997E+02  0.45594000000E+02  0.51100000000E-03 0. -1.
         11   -1    0    0    0    0 -0.00000000000E+00 -0.00000000000E+00 -0.45593999997E+02  0.45594000000E+02  0.51100000000E-03 0.  1.
    9900012    2    1    2    0    0 -0.68234070098E+00  0.77893423619E+00 -0.56636814273E+00  0.90007703321E+02  0.89999964205E+02 0.  0.
         12    1    1    2    0    0  0.68234070098E+00 -0.77893423619E+00  0.56636814273E+00  0.11802966786E+01  0.00000000000E+00 0. -1.
         11    1    3    3    0    0 -0.22059996827E+02 -0.27434817531E+02  0.14207887742E+02  0.37962833763E+02  0.51100000000E-03 0. -1.
        -11    1    3    3    0    0 -0.43649174870E+01  0.21173272027E+02 -0.16339135980E+00  0.21619126948E+02  0.51100000000E-03 0.  1.
        -12    1    3    3    0    0  0.25742573614E+02  0.70404797406E+01 -0.14610864525E+02  0.30425742610E+02  0.00000000000E+00 0.  1.
</event>
<event>
 7    1  0.2084210E-015  0.9000835E+02  0.7816164E-02  0.1186338E+00
        -11   -1    0    0    0    0  0.00000000000E+00  0.00000000000E+00  0.45593999997E+02  0.45594000000E+02  0.51100000000E-03 0. -1.
         11   -1    0    0    0    0 -0.00000000000E+00 -0.00000000000E+00 -0.45593999997E+02  0.45594000000E+02  0.51100000000E-03 0.  1.
    9900012    2    1    2    0    0  0.11571682149E+01  0.17423543266E+00  0.14890312665E+00  0.90008352424E+02  0.90000621873E+02 0.  0.
         12    1    1    2    0    0 -0.11571682149E+01 -0.17423543266E+00 -0.14890312665E+00  0.11796475765E+01  0.00000000000E+00 0. -1.
         11    1    3    3    0    0  0.80049867908E+01 -0.47777935059E+01  0.45541801012E+01  0.10375340041E+02  0.51100000000E-03 0. -1.
        -11    1    3    3    0    0  0.12428710875E+02  0.15730199138E+02 -0.35928443986E+02  0.41143226738E+02  0.51100000000E-03 0.  1.
         12    1    3    3    0    0 -0.19276529451E+02 -0.10778170200E+02  0.31523167011E+02  0.38489785644E+02  0.00000000000E+00 0. -1.
</event>
<event>
 7    1  0.2084210E-015  0.9000775E+02  0.7816164E-02  0.1186339E+00
        -11   -1    0    0    0    0  0.00000000000E+00  0.00000000000E+00  0.45593999997E+02  0.45594000000E+02  0.51100000000E-03 0. -1.
         11   -1    0    0    0    0 -0.00000000000E+00 -0.00000000000E+00 -0.45593999997E+02  0.45594000000E+02  0.51100000000E-03 0.  1.
    9900012    2    1    2    0    0  0.64448764044E+00 -0.49037935197E+00 -0.85858121356E+00  0.90007746668E+02  0.90000008124E+02 0.  0.
         12    1    1    2    0    0 -0.64448764044E+00  0.49037935197E+00  0.85858121356E+00  0.11802533320E+01  0.00000000000E+00 0. -1.
         11    1    3    3    0    0  0.14490713319E+02  0.77115571574E+00 -0.62838905920E+01  0.15813372027E+02  0.51100000000E-03 0. -1.
        -11    1    3    3    0    0  0.29156507022E+02  0.68179425037E+01  0.54734507893E+01  0.30439200146E+02  0.51100000000E-03 0.  1.
         12    1    3    3    0    0 -0.43002732700E+02 -0.80794775714E+01 -0.48141410805E-01  0.43755174495E+02  0.00000000000E+00 0. -1.
</event>
<event>
 7    1  0.2084210E-015  0.9000821E+02  0.7816164E-02  0.1186338E+00
        -11   -1    0    0    0    0  0.00000000000E+00  0.00000000000E+00  0.45593999997E+02  0.45594000000E+02  0.51100000000E-03 0.  1.
         11   -1    0    0    0    0 -0.00000000000E+00 -0.00000000000E+00 -0.45593999997E+02  0.45594000000E+02  0.51100000000E-03 0. -1.
    9900012    2    1    2    0    0  0.64329763009E+00 -0.91228035088E+00  0.38186229749E+00  0.90008209301E+02  0.90000476862E+02 0.  0.
         12    1    1    2    0    0 -0.64329763009E+00  0.91228035088E+00 -0.38186229749E+00  0.11797906991E+01  0.00000000000E+00 0. -1.
         11    1    3    3    0    0  0.37737806760E+01  0.34229259696E+00  0.76889140686E+01  0.85719300411E+01  0.51100000000E-03 0. -1.
        -11    1    3    3    0    0 -0.25467066218E+01  0.38841223299E+02  0.55661167318E+01  0.39320579825E+02  0.51100000000E-03 0.  1.
         12    1    3    3    0    0 -0.58377642409E+00 -0.40095796247E+02 -0.12873168503E+02  0.42115699435E+02  0.00000000000E+00 0. -1.
</event>
<event>
 7    1  0.2084210E-015  0.9000828E+02  0.7816164E-02  0.1186338E+00
        -11   -1    0    0    0    0  0.00000000000E+00  0.00000000000E+00  0.45593999997E+02  0.45594000000E+02  0.51100000000E-03 0.  1.
         11   -1    0    0    0    0 -0.00000000000E+00 -0.00000000000E+00 -0.45593999997E+02  0.45594000000E+02  0.51100000000E-03 0. -1.
    9900012    2    1    2    0    0  0.87001151548E+00 -0.55906437802E+00  0.56769508734E+00  0.90008275147E+02  0.90000543578E+02 0.  0.
         12    1    1    2    0    0 -0.87001151548E+00  0.55906437802E+00 -0.56769508734E+00  0.11797248527E+01  0.00000000000E+00 0. -1.
         11    1    3    3    0    0 -0.11034345186E+01  0.11057981438E+02 -0.33323477029E+01  0.11601769809E+02  0.51100000000E-03 0. -1.
        -11    1    3    3    0    0 -0.13212291041E+01 -0.70591406896E+00  0.40267233162E+02  0.40295086894E+02  0.51100000000E-03 0.  1.
         12    1    3    3    0    0  0.32946751382E+01 -0.10911131747E+02 -0.36367190372E+02  0.38111418444E+02  0.00000000000E+00 0. -1.
</event>
<event>
 7    1  0.2084210E-015  0.9000782E+02  0.7816164E-02  0.1186339E+00
        -11   -1    0    0    0    0  0.00000000000E+00  0.00000000000E+00  0.45593999997E+02  0.45594000000E+02  0.51100000000E-03 0.  1.
         11   -1    0    0    0    0 -0.00000000000E+00 -0.00000000000E+00 -0.45593999997E+02  0.45594000000E+02  0.51100000000E-03 0. -1.
    9900012    2    1    2    0    0 -0.24191945491E+00 -0.39180556700E+00  0.10866403583E+01  0.90007820398E+02  0.90000082827E+02 0.  0.
         12    1    1    2    0    0  0.24191945491E+00  0.39180556700E+00 -0.10866403583E+01  0.11801796021E+01  0.00000000000E+00 0. -1.
         11    1    3    3    0    0  0.21789378273E+02  0.18160541676E+02 -0.18208937871E+02  0.33706790090E+02  0.51100000000E-03 0.  1.
        -11    1    3    3    0    0 -0.66994017057E+00 -0.23517135899E+02 -0.44865628109E+01  0.23950652326E+02  0.51100000000E-03 0. -1.
        -12    1    3    3    0    0 -0.21361357558E+02  0.49647886561E+01  0.23782141040E+02  0.32350377982E+02  0.00000000000E+00 0.  1.
</event>
<event>
 7    1  0.2084210E-015  0.9000770E+02  0.7816164E-02  0.1186339E+00
        -11   -1    0    0    0    0  0.00000000000E+00  0.00000000000E+00  0.45593999997E+02  0.45594000000E+02  0.51100000000E-03 0.  1.
         11   -1    0    0    0    0 -0.00000000000E+00 -0.00000000000E+00 -0.45593999997E+02  0.45594000000E+02  0.51100000000E-03 0. -1.
    9900012    2    1    2    0    0 -0.68027121852E+00 -0.39843831549E+00  0.87839978371E+00  0.90007699953E+02  0.89999960792E+02 0.  0.
         12    1    1    2    0    0  0.68027121852E+00  0.39843831549E+00 -0.87839978371E+00  0.11803000474E+01  0.00000000000E+00 0. -1.
         11    1    3    3    0    0  0.30782160230E+02 -0.62134394353E+01  0.27584580488E+02  0.41797814525E+02  0.51100000000E-03 0. -1.
        -11    1    3    3    0    0  0.11120395413E+01 -0.47505172654E+01 -0.74980834647E+01  0.89456862306E+01  0.51100000000E-03 0.  1.
        -12    1    3    3    0    0 -0.32574470990E+02  0.10565518385E+02 -0.19208097240E+02  0.39264199197E+02  0.00000000000E+00 0.  1.
</event>
<event>
 7    1  0.2084210E-015  0.9000774E+02  0.7816164E-02  0.1186339E+00
        -11   -1    0    0    0    0  0.00000000000E+00  0.00000000000E+00  0.45593999997E+02  0.45594000000E+02  0.51100000000E-03 0.  1.
         11   -1    0    0    0    0 -0.00000000000E+00 -0.00000000000E+00 -0.45593999997E+02  0.45594000000E+02  0.51100000000E-03 0. -1.
    9900012    2    1    2    0    0  0.25584997723E+00  0.63472540094E+00  0.96160198669E+00  0.90007739890E+02  0.90000001257E+02 0.  0.
         12    1    1    2    0    0 -0.25584997723E+00 -0.63472540094E+00 -0.96160198669E+00  0.11802601096E+01  0.00000000000E+00 0. -1.
         11    1    3    3    0    0  0.33990302604E+01  0.12428528578E+01 -0.87864379860E+01  0.95026092564E+01  0.51100000000E-03 0. -1.
        -11    1    3    3    0    0 -0.35730783343E+02  0.15282637391E+02 -0.87030964548E+01  0.39824512201E+02  0.51100000000E-03 0.  1.
         12    1    3    3    0    0  0.32587603060E+02 -0.15890764848E+02  0.18451136427E+02  0.40680618433E+02  0.00000000000E+00 0. -1.
</event>
<event>
 7    1  0.2084210E-015  0.9000785E+02  0.7816164E-02  0.1186339E+00
        -11   -1    0    0    0    0  0.00000000000E+00  0.00000000000E+00  0.45593999997E+02  0.45594000000E+02  0.51100000000E-03 0.  1.
         11   -1    0    0    0    0 -0.00000000000E+00 -0.00000000000E+00 -0.45593999997E+02  0.45594000000E+02  0.51100000000E-03 0. -1.
    9900012    2    1    2    0    0  0.85863689866E+00 -0.19304426305E+00  0.78628078529E+00  0.90007847093E+02  0.90000109874E+02 0.  0.
         12    1    1    2    0    0 -0.85863689866E+00  0.19304426305E+00 -0.78628078529E+00  0.11801529073E+01  0.00000000000E+00 0. -1.
         11    1    3    3    0    0 -0.10819018770E+02  0.11227074224E+02 -0.41776864814E+01  0.16141605477E+02  0.51100000000E-03 0. -1.
        -11    1    3    3    0    0 -0.29059442170E+01  0.19547972220E+02  0.26774335822E+02  0.33278112757E+02  0.51100000000E-03 0.  1.
         12    1    3    3    0    0  0.14583599886E+02 -0.30968090707E+02 -0.21810368556E+02  0.40588128858E+02  0.00000000000E+00 0. -1.
</event>
<event>
 7    1  0.2084210E-015  0.9000740E+02  0.7816164E-02  0.1186340E+00
        -11   -1    0    0    0    0  0.00000000000E+00  0.00000000000E+00  0.45593999997E+02  0.45594000000E+02  0.51100000000E-03 0.  1.
         11   -1    0    0    0    0 -0.00000000000E+00 -0.00000000000E+00 -0.45593999997E+02  0.45594000000E+02  0.51100000000E-03 0. -1.
    9900012    2    1    2    0    0  0.35995546033E+00  0.10977165633E+01  0.24345855908E+00  0.90007397757E+02  0.89999654606E+02 0.  0.
         12    1    1    2    0    0 -0.35995546033E+00 -0.10977165633E+01 -0.24345855908E+00  0.11806022433E+01  0.00000000000E+00 0. -1.
         11    1    3    3    0    0  0.10650606401E+02  0.33075741868E+02  0.14590330274E+01  0.34778857004E+02  0.51100000000E-03 0. -1.
        -11    1    3    3    0    0 -0.41112350920E+01  0.51054397916E+01 -0.14049566840E+02  0.15503486643E+02  0.51100000000E-03 0.  1.
        -12    1    3    3    0    0 -0.61794158483E+01 -0.37083465097E+02  0.12833992372E+02  0.39725054110E+02  0.00000000000E+00 0.  1.
</event>
<event>
 7    1  0.2084210E-015  0.9000785E+02  0.7816164E-02  0.1186339E+00
        -11   -1    0    0    0    0  0.00000000000E+00  0.00000000000E+00  0.45593999997E+02  0.45594000000E+02  0.51100000000E-03 0.  1.
         11   -1    0    0    0    0 -0.00000000000E+00 -0.00000000000E+00 -0.45593999997E+02  0.45594000000E+02  0.51100000000E-03 0. -1.
    9900012    2    1    2    0    0  0.11035402450E+01 -0.40607055459E+00  0.10027701388E+00  0.90007851769E+02  0.90000114612E+02 0.  0.
         12    1    1    2    0    0 -0.11035402450E+01  0.40607055459E+00 -0.10027701388E+00  0.11801482310E+01  0.00000000000E+00 0. -1.
         11    1    3    3    0    0 -0.40522339030E+01 -0.11538644866E+01 -0.85239799989E+01  0.95084298463E+01  0.51100000000E-03 0. -1.
        -11    1    3    3    0    0 -0.35116828710E+02 -0.13053238604E+02  0.40026304708E+01  0.37677576191E+02  0.51100000000E-03 0.  1.
         12    1    3    3    0    0  0.40272602858E+02  0.13801032536E+02  0.46216265420E+01  0.42821845732E+02  0.00000000000E+00 0. -1.
</event>
<event>
 7    1  0.2084210E-015  0.9000859E+02  0.7816164E-02  0.1186337E+00
        -11   -1    0    0    0    0  0.00000000000E+00  0.00000000000E+00  0.45593999997E+02  0.45594000000E+02  0.51100000000E-03 0.  1.
         11   -1    0    0    0    0 -0.00000000000E+00 -0.00000000000E+00 -0.45593999997E+02  0.45594000000E+02  0.51100000000E-03 0. -1.
    9900012    2    1    2    0    0 -0.22700970427E+00 -0.18505698336E+00  0.11424632745E+01  0.90008592595E+02  0.90000865213E+02 0.  0.
         12    1    1    2    0    0  0.22700970427E+00  0.18505698336E+00 -0.11424632745E+01  0.11794074048E+01  0.00000000000E+00 0. -1.
         11    1    3    3    0    0 -0.24366563033E+02  0.14736673446E+02 -0.31140509649E+02  0.42197515090E+02  0.51100000000E-03 0. -1.
        -11    1    3    3    0    0 -0.18607891285E+01 -0.67892863510E+01  0.11749076228E+02  0.13696632353E+02  0.51100000000E-03 0.  1.
        -12    1    3    3    0    0  0.26000342457E+02 -0.81324440788E+01  0.20533896696E+02  0.34114445153E+02  0.00000000000E+00 0.  1.
</event>
<event>
 7    1  0.2084210E-015  0.9000775E+02  0.7816164E-02  0.1186339E+00
        -11   -1    0    0    0    0  0.00000000000E+00  0.00000000000E+00  0.45593999997E+02  0.45594000000E+02  0.51100000000E-03 0. -1.
         11   -1    0    0    0    0 -0.00000000000E+00 -0.00000000000E+00 -0.45593999997E+02  0.45594000000E+02  0.51100000000E-03 0.  1.
    9900012    2    1    2    0    0  0.22672769392E+00  0.86377230476E-01 -0.11550419118E+01  0.90007750750E+02  0.90000012260E+02 0.  0.
         12    1    1    2    0    0 -0.22672769392E+00 -0.86377230476E-01  0.11550419118E+01  0.11802492496E+01  0.00000000000E+00 0. -1.
         11    1    3    3    0    0  0.61286295655E+01  0.46604475548E+01  0.62995967115E+01  0.99481048824E+01  0.51100000000E-03 0. -1.
        -11    1    3    3    0    0  0.24936368977E+02 -0.20627711429E+02 -0.25208863658E+02  0.41022088974E+02  0.51100000000E-03 0.  1.
         12    1    3    3    0    0 -0.30838270849E+02  0.16053641105E+02  0.17754225035E+02  0.39037556894E+02  0.00000000000E+00 0. -1.
</event>
<event>
 7    1  0.2084210E-015  0.9000751E+02  0.7816164E-02  0.1186339E+00
        -11   -1    0    0    0    0  0.00000000000E+00  0.00000000000E+00  0.45593999997E+02  0.45594000000E+02  0.51100000000E-03 0.  1.
         11   -1    0    0    0    0 -0.00000000000E+00 -0.00000000000E+00 -0.45593999997E+02  0.45594000000E+02  0.51100000000E-03 0. -1.
    9900012    2    1    2    0    0  0.82863979398E+00  0.82238391869E+00  0.17490652582E+00  0.90007512173E+02  0.89999770533E+02 0.  0.
         12    1    1    2    0    0 -0.82863979398E+00 -0.82238391869E+00 -0.17490652582E+00  0.11804878274E+01  0.00000000000E+00 0. -1.
         11    1    3    3    0    0  0.11662261405E+02 -0.38589454901E+02  0.43684183395E+01  0.40549197892E+02  0.51100000000E-03 0. -1.
        -11    1    3    3    0    0  0.83229064922E+01  0.45484101750E+01 -0.31484861600E+00  0.94898860641E+01  0.51100000000E-03 0.  1.
        -12    1    3    3    0    0 -0.19156528103E+02  0.34863428645E+02 -0.38786631977E+01  0.39968428216E+02  0.00000000000E+00 0.  1.
</event>
<event>
 7    1  0.2084210E-015  0.9000775E+02  0.7816164E-02  0.1186339E+00
        -11   -1    0    0    0    0  0.00000000000E+00  0.00000000000E+00  0.45593999997E+02  0.45594000000E+02  0.51100000000E-03 0.  1.
         11   -1    0    0    0    0 -0.00000000000E+00 -0.00000000000E+00 -0.45593999997E+02  0.45594000000E+02  0.51100000000E-03 0. -1.
    9900012    2    1    2    0    0 -0.11288977239E+01  0.32729843468E+00  0.10703617804E+00  0.90007749569E+02  0.90000011063E+02 0.  0.
         12    1    1    2    0    0  0.11288977239E+01 -0.32729843468E+00 -0.10703617804E+00  0.11802504309E+01  0.00000000000E+00 0. -1.
         11    1    3    3    0    0  0.25075517785E+01  0.77536094674E+00 -0.92760741347E+01  0.96402568499E+01  0.51100000000E-03 0. -1.
        -11    1    3    3    0    0 -0.38975515789E+02  0.64838115508E+01 -0.81041357271E+01  0.40333703764E+02  0.51100000000E-03 0.  1.
         12    1    3    3    0    0  0.35339066286E+02 -0.69318740629E+01  0.17487246040E+02  0.40033788955E+02  0.00000000000E+00 0. -1.
</event>
<event>
 7    1  0.2084210E-015  0.9000771E+02  0.7816164E-02  0.1186339E+00
        -11   -1    0    0    0    0  0.00000000000E+00  0.00000000000E+00  0.45593999997E+02  0.45594000000E+02  0.51100000000E-03 0. -1.
         11   -1    0    0    0    0 -0.00000000000E+00 -0.00000000000E+00 -0.45593999997E+02  0.45594000000E+02  0.51100000000E-03 0.  1.
    9900012    2    1    2    0    0 -0.83878928473E+00 -0.80515924806E+00 -0.20303869005E+00  0.90007714616E+02  0.89999975649E+02 0.  0.
         12    1    1    2    0    0  0.83878928473E+00  0.80515924806E+00  0.20303869005E+00  0.11802853844E+01  0.00000000000E+00 0. -1.
         11    1    3    3    0    0  0.17918782386E+01 -0.63713090968E+01  0.81827915067E+01  0.10524375722E+02  0.51100000000E-03 0. -1.
        -11    1    3    3    0    0 -0.38214633941E+02  0.14729553068E+02  0.28634598290E+01  0.41055053079E+02  0.51100000000E-03 0.  1.
         12    1    3    3    0    0  0.35583966418E+02 -0.91634032190E+01 -0.11249290026E+02  0.38428285815E+02  0.00000000000E+00 0. -1.
</event>
<event>
 7    1  0.2084210E-015  0.9000767E+02  0.7816164E-02  0.1186339E+00
        -11   -1    0    0    0    0  0.00000000000E+00  0.00000000000E+00  0.45593999997E+02  0.45594000000E+02  0.51100000000E-03 0. -1.
         11   -1    0    0    0    0 -0.00000000000E+00 -0.00000000000E+00 -0.45593999997E+02  0.45594000000E+02  0.51100000000E-03 0.  1.
    9900012    2    1    2    0    0  0.72971004997E+00 -0.13076355796E+00 -0.91848107832E+00  0.90007668116E+02  0.89999928535E+02 0.  0.
         12    1    1    2    0    0 -0.72971004997E+00  0.13076355796E+00  0.91848107832E+00  0.11803318840E+01  0.00000000000E+00 0. -1.
         11    1    3    3    0    0 -0.11206195623E+01 -0.47125587111E+01 -0.73592802774E+01  0.88103918342E+01  0.51100000000E-03 0. -1.
        -11    1    3    3    0    0 -0.13367455482E+02 -0.21942291717E+02 -0.26043286547E+02  0.36584228928E+02  0.51100000000E-03 0.  1.
         12    1    3    3    0    0  0.15217785094E+02  0.26524086870E+02  0.32484085746E+02  0.44613047354E+02  0.00000000000E+00 0. -1.
</event>
<event>
 7    1  0.2084210E-015  0.9000774E+02  0.7816164E-02  0.1186339E+00
        -11   -1    0    0    0    0  0.00000000000E+00  0.00000000000E+00  0.45593999997E+02  0.45594000000E+02  0.51100000000E-03 0.  1.
         11   -1    0    0    0    0 -0.00000000000E+00 -0.00000000000E+00 -0.45593999997E+02  0.45594000000E+02  0.51100000000E-03 0. -1.
    9900012    2    1    2    0    0 -0.10933580533E-01  0.51332622416E+00  0.10627319298E+01  0.90007736254E+02  0.89999997573E+02 0.  0.
         12    1    1    2    0    0  0.10933580533E-01 -0.51332622416E+00 -0.10627319298E+01  0.11802637460E+01  0.00000000000E+00 0. -1.
         11    1    3    3    0    0  0.31335264733E+01 -0.78341410390E+01  0.37719666971E+01  0.92423204339E+01  0.51100000000E-03 0. -1.
        -11    1    3    3    0    0 -0.28935278818E+01 -0.32347678433E+02 -0.18190668092E+02  0.37224255661E+02  0.51100000000E-03 0.  1.
         12    1    3    3    0    0 -0.25093217209E+00  0.40695145696E+02  0.15481433325E+02  0.43541160159E+02  0.00000000000E+00 0. -1.
</event>
<event>
 7    1  0.2084210E-015  0.9000773E+02  0.7816164E-02  0.1186339E+00
        -11   -1    0    0    0    0  0.00000000000E+00  0.00000000000E+00  0.45593999997E+02  0.45594000000E+02  0.51100000000E-03 0. -1.
         11   -1    0    0    0    0 -0.00000000000E+00 -0.00000000000E+00 -0.45593999997E+02  0.45594000000E+02  0.51100000000E-03 0.  1.
    9900012    2    1    2    0    0  0.81298972908E+00 -0.19144932597E+00 -0.83393251814E+00  0.90007725206E+02  0.89999986379E+02 0.  0.
         12    1    1    2    0    0 -0.81298972908E+00  0.19144932597E+00  0.83393251814E+00  0.11802747938E+01  0.00000000000E+00 0. -1.
         11    1    3    3    0    0 -0.21653349282E+01  0.28753567169E+01  0.88938652193E+01  0.95946438392E+01  0.51100000000E-03 0. -1.
        -11    1    3    3    0    0  0.41288235552E+02 -0.18868829048E+01 -0.24793443044E+01  0.41405626073E+02  0.51100000000E-03 0.  1.
         12    1    3    3    0    0 -0.38309910894E+02 -0.11799231381E+01 -0.72484534330E+01  0.39007455294E+02  0.00000000000E+00 0. -1.
</event>
<event>
 7    1  0.2084210E-015  0.9000756E+02  0.7816164E-02  0.1186339E+00
        -11   -1    0    0    0    0  0.00000000000E+00  0.00000000000E+00  0.45593999997E+02  0.45594000000E+02  0.51100000000E-03 0.  1.
         11   -1    0    0    0    0 -0.00000000000E+00 -0.00000000000E+00 -0.45593999997E+02  0.45594000000E+02  0.51100000000E-03 0. -1.
    9900012    2    1    2    0    0  0.11574103545E+01 -0.21535210342E+00  0.86446023607E-01  0.90007555943E+02  0.89999814881E+02 0.  0.
         12    1    1    2    0    0 -0.11574103545E+01  0.21535210342E+00 -0.86446023607E-01  0.11804440572E+01  0.00000000000E+00 0. -1.
         11    1    3    3    0    0  0.43320710316E+02  0.83320293381E+01 -0.83647468230E+01  0.44900731006E+02  0.51100000000E-03 0. -1.
        -11    1    3    3    0    0 -0.84240447770E+01 -0.26607191689E+01 -0.24450133889E+01  0.91663541080E+01  0.51100000000E-03 0.  1.
        -12    1    3    3    0    0 -0.33739255184E+02 -0.58866622727E+01  0.10896206235E+02  0.35940470829E+02  0.00000000000E+00 0.  1.
</event>
<event>
 7    1  0.2084210E-015  0.9000769E+02  0.7816164E-02  0.1186339E+00
        -11   -1    0    0    0    0  0.00000000000E+00  0.00000000000E+00  0.45593999997E+02  0.45594000000E+02  0.51100000000E-03 0. -1.
         11   -1    0    0    0    0 -0.00000000000E+00 -0.00000000000E+00 -0.45593999997E+02  0.45594000000E+02  0.51100000000E-03 0.  1.
    9900012    2    1    2    0    0 -0.11716870401E+01  0.13797547941E+00  0.35189899543E-01  0.90007692378E+02  0.89999953118E+02 0.  0.
         12    1    1    2    0    0  0.11716870401E+01 -0.13797547941E+00 -0.35189899543E-01  0.11803076218E+01  0.00000000000E+00 0. -1.
         11    1    3    3    0    0 -0.86731176197E+01  0.90760337698E+01 -0.69080980890E+01  0.14328962897E+02  0.51100000000E-03 0. -1.
        -11    1    3    3    0    0  0.37274306913E+02  0.12881608507E+01 -0.11704413938E+02  0.39089981071E+02  0.51100000000E-03 0.  1.
         12    1    3    3    0    0 -0.29772876334E+02 -0.10226219141E+02  0.18647701926E+02  0.36588748410E+02  0.00000000000E+00 0. -1.
</event>
<event>
 7    1  0.2084210E-015  0.9000776E+02  0.7816164E-02  0.1186339E+00
        -11   -1    0    0    0    0  0.00000000000E+00  0.00000000000E+00  0.45593999997E+02  0.45594000000E+02  0.51100000000E-03 0.  1.
         11   -1    0    0    0    0 -0.00000000000E+00 -0.00000000000E+00 -0.45593999997E+02  0.45594000000E+02  0.51100000000E-03 0. -1.
    9900012    2    1    2    0    0  0.10797115634E+01  0.29257618868E+00  0.37629248940E+00  0.90007756837E+02  0.90000018427E+02 0.  0.
         12    1    1    2    0    0 -0.10797115634E+01 -0.29257618868E+00 -0.37629248940E+00  0.11802431630E+01  0.00000000000E+00 0. -1.
         11    1    3    3    0    0 -0.67244193085E+01  0.36034749784E+02 -0.87324788532E+01  0.37682584760E+02  0.51100000000E-03 0. -1.
        -11    1    3    3    0    0 -0.58232511181E+01  0.55303345520E+01  0.20863822538E+01  0.82974601542E+01  0.51100000000E-03 0.  1.
        -12    1    3    3    0    0  0.13627381990E+02 -0.41272508147E+02  0.70223890888E+01  0.44027711923E+02  0.00000000000E+00 0.  1.
</event>
<event>
 7    1  0.2084210E-015  0.9000820E+02  0.7816164E-02  0.1186338E+00
        -11   -1    0    0    0    0  0.00000000000E+00  0.00000000000E+00  0.45593999997E+02  0.45594000000E+02  0.51100000000E-03 0.  1.
         11   -1    0    0    0    0 -0.00000000000E+00 -0.00000000000E+00 -0.45593999997E+02  0.45594000000E+02  0.51100000000E-03 0. -1.
    9900012    2    1    2    0    0 -0.59009524494E-01  0.94728367213E+00 -0.70077936387E+00  0.90008203324E+02  0.90000470807E+02 0.  0.
         12    1    1    2    0    0  0.59009524494E-01 -0.94728367213E+00  0.70077936387E+00  0.11797966758E+01  0.00000000000E+00 0. -1.
         11    1    3    3    0    0 -0.13873836747E+01  0.70602301061E+01  0.29633889950E+01  0.77816037684E+01  0.51100000000E-03 0. -1.
        -11    1    3    3    0    0 -0.66462850414E+01  0.20763082317E+02  0.30841112225E+02  0.37768411347E+02  0.51100000000E-03 0.  1.
         12    1    3    3    0    0  0.79746591916E+01 -0.26876028751E+02 -0.34505280584E+02  0.44458188209E+02  0.00000000000E+00 0. -1.
</event>
<event>
 7    1  0.2084210E-015  0.9000761E+02  0.7816164E-02  0.1186339E+00
        -11   -1    0    0    0    0  0.00000000000E+00  0.00000000000E+00  0.45593999997E+02  0.45594000000E+02  0.51100000000E-03 0. -1.
         11   -1    0    0    0    0 -0.00000000000E+00 -0.00000000000E+00 -0.45593999997E+02  0.45594000000E+02  0.51100000000E-03 0.  1.
    9900012    2    1    2    0    0 -0.68057851328E+00 -0.33718697862E+00 -0.90356538218E+00  0.90007613381E+02  0.89999873077E+02 0.  0.
         12    1    1    2    0    0  0.68057851328E+00  0.33718697862E+00  0.90356538218E+00  0.11803866194E+01  0.00000000000E+00 0. -1.
         11    1    3    3    0    0  0.28705780089E+02 -0.21120130411E+02  0.12698415378E+02  0.37832941631E+02  0.51100000000E-03 0. -1.
        -11    1    3    3    0    0  0.78576900310E+01  0.33977123739E+00 -0.26572799426E+01  0.83017994478E+01  0.51100000000E-03 0.  1.
        -12    1    3    3    0    0 -0.37244048633E+02  0.20443172195E+02 -0.10944700817E+02  0.43872872302E+02  0.00000000000E+00 0.  1.
</event>
<event>
 7    1  0.2084210E-015  0.9000773E+02  0.7816164E-02  0.1186339E+00
        -11   -1    0    0    0    0  0.00000000000E+00  0.00000000000E+00  0.45593999997E+02  0.45594000000E+02  0.51100000000E-03 0. -1.
         11   -1    0    0    0    0 -0.00000000000E+00 -0.00000000000E+00 -0.45593999997E+02  0.45594000000E+02  0.51100000000E-03 0.  1.
    9900012    2    1    2    0    0 -0.44146118778E+00 -0.93855812242E+00  0.56324939381E+00  0.90007733416E+02  0.89999994697E+02 0.  0.
         12    1    1    2    0    0  0.44146118778E+00  0.93855812242E+00 -0.56324939381E+00  0.11802665839E+01  0.00000000000E+00 0. -1.
         11    1    3    3    0    0  0.95782251466E+01 -0.72390241888E+01  0.33505096503E+02  0.35591253983E+02  0.51100000000E-03 0. -1.
        -11    1    3    3    0    0  0.76936850343E+00 -0.16976175288E+02 -0.85789274726E+01  0.19036293025E+02  0.51100000000E-03 0.  1.
        -12    1    3    3    0    0 -0.10789054838E+02  0.23276641354E+02 -0.24362919637E+02  0.35380186408E+02  0.00000000000E+00 0.  1.
</event>
<event>
 7    1  0.2084210E-015  0.9000777E+02  0.7816164E-02  0.1186339E+00
        -11   -1    0    0    0    0  0.00000000000E+00  0.00000000000E+00  0.45593999997E+02  0.45594000000E+02  0.51100000000E-03 0.  1.
         11   -1    0    0    0    0 -0.00000000000E+00 -0.00000000000E+00 -0.45593999997E+02  0.45594000000E+02  0.51100000000E-03 0. -1.
    9900012    2    1    2    0    0  0.38853503382E+00 -0.80091449935E+00  0.77492982900E+00  0.90007771316E+02  0.90000033097E+02 0.  0.
         12    1    1    2    0    0 -0.38853503382E+00  0.80091449935E+00 -0.77492982900E+00  0.11802286845E+01  0.00000000000E+00 0. -1.
         11    1    3    3    0    0  0.78911844701E+01  0.31799947227E+01 -0.13954410867E+01  0.86215088509E+01  0.51100000000E-03 0. -1.
        -11    1    3    3    0    0  0.32218507236E+02  0.16575711451E+02 -0.30343208329E+01  0.36359228839E+02  0.51100000000E-03 0.  1.
         12    1    3    3    0    0 -0.39721156672E+02 -0.20556620673E+02  0.52046917486E+01  0.45027033625E+02  0.00000000000E+00 0. -1.
</event>
<event>
 7    1  0.2084210E-015  0.9000757E+02  0.7816164E-02  0.1186339E+00
        -11   -1    0    0    0    0  0.00000000000E+00  0.00000000000E+00  0.45593999997E+02  0.45594000000E+02  0.51100000000E-03 0.  1.
         11   -1    0    0    0    0 -0.00000000000E+00 -0.00000000000E+00 -0.45593999997E+02  0.45594000000E+02  0.51100000000E-03 0. -1.
    9900012    2    1    2    0    0 -0.21958899359E+00 -0.11344654496E+01  0.24120056004E+00  0.90007572581E+02  0.89999831738E+02 0.  0.
         12    1    1    2    0    0  0.21958899359E+00  0.11344654496E+01 -0.24120056004E+00  0.11804274194E+01  0.00000000000E+00 0. -1.
         11    1    3    3    0    0  0.14064950925E+01  0.25560523599E+02  0.32336302162E+02  0.41242636105E+02  0.51100000000E-03 0. -1.
        -11    1    3    3    0    0  0.12816128967E+00 -0.88947978610E+01  0.29890423830E+01  0.93844674294E+01  0.51100000000E-03 0.  1.
        -12    1    3    3    0    0 -0.17542453757E+01 -0.17800191188E+02 -0.35084143985E+02  0.39380469046E+02  0.00000000000E+00 0.  1.
</event>
<event>
 7    1  0.2084210E-015  0.9000828E+02  0.7816164E-02  0.1186338E+00
        -11   -1    0    0    0    0  0.00000000000E+00  0.00000000000E+00  0.45593999997E+02  0.45594000000E+02  0.51100000000E-03 0.  1.
         11   -1    0    0    0    0 -0.00000000000E+00 -0.00000000000E+00 -0.45593999997E+02  0.45594000000E+02  0.51100000000E-03 0. -1.
    9900012    2    1    2    0    0  0.53794298635E+00  0.81454707068E+00  0.66247507438E+00  0.90008278503E+02  0.90000546977E+02 0.  0.
         12    1    1    2    0    0 -0.53794298635E+00 -0.81454707068E+00 -0.66247507438E+00  0.11797214973E+01  0.00000000000E+00 0. -1.
         11    1    3    3    0    0  0.16105770342E+02  0.15975697898E+02 -0.34580336433E+02  0.41357205294E+02  0.51100000000E-03 0. -1.
        -11    1    3    3    0    0  0.69064250606E+01 -0.29473914390E+01  0.49045464333E+01  0.89688571953E+01  0.51100000000E-03 0.  1.
        -12    1    3    3    0    0 -0.22474252416E+02 -0.12213759388E+02  0.30338265074E+02  0.39682216014E+02  0.00000000000E+00 0.  1.
</event>
<event>
 7    1  0.2084210E-015  0.9000784E+02  0.7816164E-02  0.1186339E+00
        -11   -1    0    0    0    0  0.00000000000E+00  0.00000000000E+00  0.45593999997E+02  0.45594000000E+02  0.51100000000E-03 0. -1.
         11   -1    0    0    0    0 -0.00000000000E+00 -0.00000000000E+00 -0.45593999997E+02  0.45594000000E+02  0.51100000000E-03 0.  1.
    9900012    2    1    2    0    0 -0.99268185032E+00 -0.56950121669E+00  0.28812856017E+00  0.90007844519E+02  0.90000107267E+02 0.  0.
         12    1    1    2    0    0  0.99268185032E+00  0.56950121669E+00 -0.28812856017E+00  0.11801554808E+01  0.00000000000E+00 0. -1.
         11    1    3    3    0    0 -0.55205095407E+01  0.91674242700E+01  0.33007930145E+01  0.11198791369E+02  0.51100000000E-03 0. -1.
        -11    1    3    3    0    0  0.11900626265E+02  0.16861650997E+02 -0.32449110973E+02  0.38456273650E+02  0.51100000000E-03 0.  1.
         12    1    3    3    0    0 -0.73727985749E+01 -0.26598576483E+02  0.29436446519E+02  0.40352779500E+02  0.00000000000E+00 0. -1.
</event>
<event>
 7    1  0.2084210E-015  0.9000764E+02  0.7816164E-02  0.1186339E+00
        -11   -1    0    0    0    0  0.00000000000E+00  0.00000000000E+00  0.45593999997E+02  0.45594000000E+02  0.51100000000E-03 0.  1.
         11   -1    0    0    0    0 -0.00000000000E+00 -0.00000000000E+00 -0.45593999997E+02  0.45594000000E+02  0.51100000000E-03 0. -1.
    9900012    2    1    2    0    0 -0.10357591975E+01  0.36855510108E+00  0.42966045895E+00  0.90007644931E+02  0.89999905045E+02 0.  0.
         12    1    1    2    0    0  0.10357591975E+01 -0.36855510108E+00 -0.42966045895E+00  0.11803550685E+01  0.00000000000E+00 0. -1.
         11    1    3    3    0    0 -0.31897513103E+01  0.29223639275E+02 -0.23301213339E+02  0.37511893437E+02  0.51100000000E-03 0. -1.
        -11    1    3    3    0    0 -0.24704520114E+01  0.34774911521E+01 -0.66423002776E+01  0.78940630281E+01  0.51100000000E-03 0.  1.
        -12    1    3    3    0    0  0.46244441242E+01 -0.32332575326E+02  0.30373174075E+02  0.44601688467E+02  0.00000000000E+00 0.  1.
</event>
<event>
 7    1  0.2084210E-015  0.9000770E+02  0.7816164E-02  0.1186339E+00
        -11   -1    0    0    0    0  0.00000000000E+00  0.00000000000E+00  0.45593999997E+02  0.45594000000E+02  0.51100000000E-03 0. -1.
         11   -1    0    0    0    0 -0.00000000000E+00 -0.00000000000E+00 -0.45593999997E+02  0.45594000000E+02  0.51100000000E-03 0.  1.
    9900012    2    1    2    0    0 -0.29081125517E+00  0.11413595959E+01 -0.76449205594E-01  0.90007696058E+02  0.89999956846E+02 0.  0.
         12    1    1    2    0    0  0.29081125517E+00 -0.11413595959E+01  0.76449205594E-01  0.11803039415E+01  0.00000000000E+00 0. -1.
         11    1    3    3    0    0  0.58036346202E+01  0.79328110310E+01  0.93224314649E+00  0.98732336752E+01  0.51100000000E-03 0. -1.
        -11    1    3    3    0    0  0.36092789491E+02 -0.97053867062E+01  0.38306703173E+01  0.37570706937E+02  0.51100000000E-03 0.  1.
         12    1    3    3    0    0 -0.42187235367E+02  0.29139352711E+01 -0.48393626694E+01  0.42563755446E+02  0.00000000000E+00 0. -1.
</event>
<event>
 7    1  0.2084210E-015  0.9000776E+02  0.7816164E-02  0.1186339E+00
        -11   -1    0    0    0    0  0.00000000000E+00  0.00000000000E+00  0.45593999997E+02  0.45594000000E+02  0.51100000000E-03 0. -1.
         11   -1    0    0    0    0 -0.00000000000E+00 -0.00000000000E+00 -0.45593999997E+02  0.45594000000E+02  0.51100000000E-03 0.  1.
    9900012    2    1    2    0    0  0.87195654781E+00  0.36524605858E+00 -0.70658244429E+00  0.90007757798E+02  0.90000019401E+02 0.  0.
         12    1    1    2    0    0 -0.87195654781E+00 -0.36524605858E+00  0.70658244429E+00  0.11802422019E+01  0.00000000000E+00 0. -1.
         11    1    3    3    0    0  0.86361353016E+01  0.65386124060E+01 -0.20168961019E+00  0.10834064985E+02  0.51100000000E-03 0. -1.
        -11    1    3    3    0    0 -0.32358334969E+02  0.51320087627E+01  0.25592488985E+02  0.41573727865E+02  0.51100000000E-03 0.  1.
         12    1    3    3    0    0  0.24594156215E+02 -0.11305375110E+02 -0.26097381819E+02  0.37599964948E+02  0.00000000000E+00 0. -1.
</event>
<event>
 7    1  0.2084210E-015  0.9000778E+02  0.7816164E-02  0.1186339E+00
        -11   -1    0    0    0    0  0.00000000000E+00  0.00000000000E+00  0.45593999997E+02  0.45594000000E+02  0.51100000000E-03 0.  1.
         11   -1    0    0    0    0 -0.00000000000E+00 -0.00000000000E+00 -0.45593999997E+02  0.45594000000E+02  0.51100000000E-03 0. -1.
    9900012    2    1    2    0    0  0.11143884333E+01 -0.27320022117E+00  0.27644165563E+00  0.90007779711E+02  0.90000041603E+02 0.  0.
         12    1    1    2    0    0 -0.11143884333E+01  0.27320022117E+00 -0.27644165563E+00  0.11802202888E+01  0.00000000000E+00 0. -1.
         11    1    3    3    0    0  0.25601588021E+02  0.52566224833E+01  0.32573149979E+01  0.26337871789E+02  0.51100000000E-03 0. -1.
        -11    1    3    3    0    0  0.18911109377E+02 -0.37435724511E+01 -0.58332953581E+01  0.20141294088E+02  0.51100000000E-03 0.  1.
         12    1    3    3    0    0 -0.43398308964E+02 -0.17862502534E+01  0.28524220158E+01  0.43528613834E+02  0.00000000000E+00 0. -1.
</event>
<event>
 7    1  0.2084210E-015  0.9000787E+02  0.7816164E-02  0.1186339E+00
        -11   -1    0    0    0    0  0.00000000000E+00  0.00000000000E+00  0.45593999997E+02  0.45594000000E+02  0.51100000000E-03 0.  1.
         11   -1    0    0    0    0 -0.00000000000E+00 -0.00000000000E+00 -0.45593999997E+02  0.45594000000E+02  0.51100000000E-03 0. -1.
    9900012    2    1    2    0    0 -0.24864933625E+00 -0.23407009140E+00  0.11296471315E+01  0.90007865287E+02  0.90000128308E+02 0.  0.
         12    1    1    2    0    0  0.24864933625E+00  0.23407009140E+00 -0.11296471315E+01  0.11801347134E+01  0.00000000000E+00 0. -1.
         11    1    3    3    0    0  0.12295502717E+02  0.33022042782E+02 -0.60720791067E+01  0.35756186059E+02  0.51100000000E-03 0. -1.
        -11    1    3    3    0    0  0.76372064820E+01 -0.15870386037E+01 -0.10218137954E+02  0.12855191865E+02  0.51100000000E-03 0.  1.
        -12    1    3    3    0    0 -0.20181358536E+02 -0.31669074270E+02  0.17419864192E+02  0.41396487362E+02  0.00000000000E+00 0.  1.
</event>
<event>
 7    1  0.2084210E-015  0.9000774E+02  0.7816164E-02  0.1186339E+00
        -11   -1    0    0    0    0  0.00000000000E+00  0.00000000000E+00  0.45593999997E+02  0.45594000000E+02  0.51100000000E-03 0.  1.
         11   -1    0    0    0    0 -0.00000000000E+00 -0.00000000000E+00 -0.45593999997E+02  0.45594000000E+02  0.51100000000E-03 0. -1.
    9900012    2    1    2    0    0  0.58429573115E+00 -0.75212898206E+00  0.69707385071E+00  0.90007740935E+02  0.90000002315E+02 0.  0.
         12    1    1    2    0    0 -0.58429573115E+00  0.75212898206E+00 -0.69707385071E+00  0.11802590650E+01  0.00000000000E+00 0. -1.
         11    1    3    3    0    0 -0.22342638947E+01  0.63740911584E+01  0.50160751417E+01  0.84132029178E+01  0.51100000000E-03 0. -1.
        -11    1    3    3    0    0 -0.76507582511E+01  0.35934913610E+02  0.21801152104E+01  0.36804959185E+02  0.51100000000E-03 0.  1.
         12    1    3    3    0    0  0.10469317877E+02 -0.43061133751E+02 -0.64991165014E+01  0.44789578833E+02  0.00000000000E+00 0. -1.
</event>
<event>
 7    1  0.2084210E-015  0.9000773E+02  0.7816164E-02  0.1186339E+00
        -11   -1    0    0    0    0  0.00000000000E+00  0.00000000000E+00  0.45593999997E+02  0.45594000000E+02  0.51100000000E-03 0.  1.
         11   -1    0    0    0    0 -0.00000000000E+00 -0.00000000000E+00 -0.45593999997E+02  0.45594000000E+02  0.51100000000E-03 0. -1.
    9900012    2    1    2    0    0  0.81338260546E+00 -0.13668831231E+00  0.84425459771E+00  0.90007728513E+02  0.89999989729E+02 0.  0.
         12    1    1    2    0    0 -0.81338260546E+00  0.13668831231E+00 -0.84425459771E+00  0.11802714871E+01  0.00000000000E+00 0. -1.
         11    1    3    3    0    0 -0.19956186770E+02  0.13320131717E+02  0.19106759499E+02  0.30671543133E+02  0.51100000000E-03 0. -1.
        -11    1    3    3    0    0 -0.12956536270E+02  0.42284623675E+01  0.52221376170E+01  0.14595288544E+02  0.51100000000E-03 0.  1.
        -12    1    3    3    0    0  0.33726105646E+02 -0.17685282397E+02 -0.23484642518E+02  0.44740896836E+02  0.00000000000E+00 0.  1.
</event>
<event>
 7    1  0.2084210E-015  0.9000779E+02  0.7816164E-02  0.1186339E+00
        -11   -1    0    0    0    0  0.00000000000E+00  0.00000000000E+00  0.45593999997E+02  0.45594000000E+02  0.51100000000E-03 0.  1.
         11   -1    0    0    0    0 -0.00000000000E+00 -0.00000000000E+00 -0.45593999997E+02  0.45594000000E+02  0.51100000000E-03 0. -1.
    9900012    2    1    2    0    0  0.62270264940E+00  0.10024486265E+01  0.15096071929E-01  0.90007792506E+02  0.90000054567E+02 0.  0.
         12    1    1    2    0    0 -0.62270264940E+00 -0.10024486265E+01 -0.15096071929E-01  0.11802074943E+01  0.00000000000E+00 0. -1.
         11    1    3    3    0    0 -0.30027198612E+02 -0.90635598877E+01  0.16571942629E+02  0.35474075845E+02  0.51100000000E-03 0. -1.
        -11    1    3    3    0    0 -0.63980694244E+01 -0.67256544135E+01  0.25024200954E+01  0.96141471927E+01  0.51100000000E-03 0.  1.
        -12    1    3    3    0    0  0.37047970686E+02  0.16791662928E+02 -0.19059266652E+02  0.44919569468E+02  0.00000000000E+00 0.  1.
</event>
<event>
 7    1  0.2084210E-015  0.9000772E+02  0.7816164E-02  0.1186339E+00
        -11   -1    0    0    0    0  0.00000000000E+00  0.00000000000E+00  0.45593999997E+02  0.45594000000E+02  0.51100000000E-03 0.  1.
         11   -1    0    0    0    0 -0.00000000000E+00 -0.00000000000E+00 -0.45593999997E+02  0.45594000000E+02  0.51100000000E-03 0. -1.
    9900012    2    1    2    0    0  0.47482586189E+00  0.97295980741E+00 -0.47005317023E+00  0.90007720216E+02  0.89999981323E+02 0.  0.
         12    1    1    2    0    0 -0.47482586189E+00 -0.97295980741E+00  0.47005317023E+00  0.11802797841E+01  0.00000000000E+00 0. -1.
         11    1    3    3    0    0  0.32260757431E+02 -0.21692132892E+02  0.67222623392E+01  0.39452425916E+02  0.51100000000E-03 0. -1.
        -11    1    3    3    0    0 -0.76800177953E+01 -0.79268791823E+01 -0.60274095267E+00  0.11053568827E+02  0.51100000000E-03 0.  1.
        -12    1    3    3    0    0 -0.24105913773E+02  0.30591971882E+02 -0.65895745567E+01  0.39501725473E+02  0.00000000000E+00 0.  1.
</event>
<event>
 7    1  0.2084210E-015  0.9000775E+02  0.7816164E-02  0.1186339E+00
        -11   -1    0    0    0    0  0.00000000000E+00  0.00000000000E+00  0.45593999997E+02  0.45594000000E+02  0.51100000000E-03 0.  1.
         11   -1    0    0    0    0 -0.00000000000E+00 -0.00000000000E+00 -0.45593999997E+02  0.45594000000E+02  0.51100000000E-03 0. -1.
    9900012    2    1    2    0    0 -0.70972569514E+00 -0.40647376356E-01  0.94214256639E+00  0.90007747744E+02  0.90000009215E+02 0.  0.
         12    1    1    2    0    0  0.70972569514E+00  0.40647376356E-01 -0.94214256639E+00  0.11802522556E+01  0.00000000000E+00 0. -1.
         11    1    3    3    0    0  0.89748075812E+01 -0.32910345498E+01  0.27500742399E+01  0.99469084701E+01  0.51100000000E-03 0. -1.
        -11    1    3    3    0    0  0.31769697643E+02 -0.14389518524E+02  0.13161618746E+01  0.34901349745E+02  0.51100000000E-03 0.  1.
         12    1    3    3    0    0 -0.41454230919E+02  0.17639905697E+02 -0.31240935482E+01  0.45159489530E+02  0.00000000000E+00 0. -1.
</event>
<event>
 7    1  0.2084210E-015  0.9000774E+02  0.7816164E-02  0.1186339E+00
        -11   -1    0    0    0    0  0.00000000000E+00  0.00000000000E+00  0.45593999997E+02  0.45594000000E+02  0.51100000000E-03 0. -1.
         11   -1    0    0    0    0 -0.00000000000E+00 -0.00000000000E+00 -0.45593999997E+02  0.45594000000E+02  0.51100000000E-03 0.  1.
    9900012    2    1    2    0    0  0.25350985765E+00 -0.72072097599E+00 -0.89962108426E+00  0.90007735594E+02  0.89999996904E+02 0.  0.
         12    1    1    2    0    0 -0.25350985765E+00  0.72072097599E+00  0.89962108426E+00  0.11802644061E+01  0.00000000000E+00 0. -1.
         11    1    3    3    0    0 -0.46383522741E+01  0.71599362383E+01  0.43213461717E+01  0.95631078501E+01  0.51100000000E-03 0. -1.
        -11    1    3    3    0    0  0.13596290999E+02  0.16266074402E+02 -0.35130271446E+02  0.41031454733E+02  0.51100000000E-03 0.  1.
         12    1    3    3    0    0 -0.87044288671E+01 -0.24146731616E+02  0.29909304190E+02  0.39413173011E+02  0.00000000000E+00 0. -1.
</event>
<event>
 7    1  0.2084210E-015  0.9000762E+02  0.7816164E-02  0.1186339E+00
        -11   -1    0    0    0    0  0.00000000000E+00  0.00000000000E+00  0.45593999997E+02  0.45594000000E+02  0.51100000000E-03 0.  1.
         11   -1    0    0    0    0 -0.00000000000E+00 -0.00000000000E+00 -0.45593999997E+02  0.45594000000E+02  0.51100000000E-03 0. -1.
    9900012    2    1    2    0    0  0.40422044569E+00  0.93661780181E-01  0.11050521014E+01  0.90007615806E+02  0.89999875535E+02 0.  0.
         12    1    1    2    0    0 -0.40422044569E+00 -0.93661780181E-01 -0.11050521014E+01  0.11803841936E+01  0.00000000000E+00 0. -1.
         11    1    3    3    0    0 -0.19961139092E+02  0.23821657673E+02 -0.18144619571E+02  0.35988132318E+02  0.51100000000E-03 0. -1.
        -11    1    3    3    0    0  0.31191308274E+01  0.83145123644E+01 -0.50948909306E+01  0.10238066557E+02  0.51100000000E-03 0.  1.
        -12    1    3    3    0    0  0.17246228711E+02 -0.32042508257E+02  0.24344562603E+02  0.43781416931E+02  0.00000000000E+00 0.  1.
</event>
<event>
 7    1  0.2084210E-015  0.9000777E+02  0.7816164E-02  0.1186339E+00
        -11   -1    0    0    0    0  0.00000000000E+00  0.00000000000E+00  0.45593999997E+02  0.45594000000E+02  0.51100000000E-03 0.  1.
         11   -1    0    0    0    0 -0.00000000000E+00 -0.00000000000E+00 -0.45593999997E+02  0.45594000000E+02  0.51100000000E-03 0. -1.
    9900012    2    1    2    0    0  0.10311763145E+01  0.49899584906E+00  0.28394634946E+00  0.90007768252E+02  0.90000029993E+02 0.  0.
         12    1    1    2    0    0 -0.10311763145E+01 -0.49899584906E+00 -0.28394634946E+00  0.11802317477E+01  0.00000000000E+00 0. -1.
         11    1    3    3    0    0 -0.28042391404E+02  0.23115770425E+02 -0.62818073313E+01  0.36880559399E+02  0.51100000000E-03 0. -1.
        -11    1    3    3    0    0 -0.86144745914E+01 -0.36047369637E+00  0.33158900431E+01  0.92376534256E+01  0.51100000000E-03 0.  1.
        -12    1    3    3    0    0  0.37688042310E+02 -0.22256300879E+02  0.32498636376E+01  0.43889555428E+02  0.00000000000E+00 0.  1.
</event>
<event>
 7    1  0.2084210E-015  0.9000796E+02  0.7816164E-02  0.1186339E+00
        -11   -1    0    0    0    0  0.00000000000E+00  0.00000000000E+00  0.45593999997E+02  0.45594000000E+02  0.51100000000E-03 0.  1.
         11   -1    0    0    0    0 -0.00000000000E+00 -0.00000000000E+00 -0.45593999997E+02  0.45594000000E+02  0.51100000000E-03 0. -1.
    9900012    2    1    2    0    0  0.86635067802E+00 -0.22810429341E+00  0.76805030285E+00  0.90007959181E+02  0.90000223442E+02 0.  0.
         12    1    1    2    0    0 -0.86635067802E+00  0.22810429341E+00 -0.76805030285E+00  0.11800408187E+01  0.00000000000E+00 0. -1.
         11    1    3    3    0    0  0.17823518616E+02  0.15525490218E+02 -0.22981495043E+02  0.32967677762E+02  0.51100000000E-03 0. -1.
        -11    1    3    3    0    0  0.47544725322E+01  0.59749907270E+01 -0.92250843109E+01  0.11975295573E+02  0.51100000000E-03 0.  1.
        -12    1    3    3    0    0 -0.21711640470E+02 -0.21728585238E+02  0.32974629657E+02  0.45064985847E+02  0.00000000000E+00 0.  1.
</event>
<event>
 7    1  0.2084210E-015  0.9000770E+02  0.7816164E-02  0.1186339E+00
        -11   -1    0    0    0    0  0.00000000000E+00  0.00000000000E+00  0.45593999997E+02  0.45594000000E+02  0.51100000000E-03 0.  1.
         11   -1    0    0    0    0 -0.00000000000E+00 -0.00000000000E+00 -0.45593999997E+02  0.45594000000E+02  0.51100000000E-03 0. -1.
    9900012    2    1    2    0    0  0.10162351961E+01 -0.18581663543E+00 -0.57083898521E+00  0.90007695402E+02  0.89999956182E+02 0.  0.
         12    1    1    2    0    0 -0.10162351961E+01  0.18581663543E+00  0.57083898521E+00  0.11803045975E+01  0.00000000000E+00 0. -1.
         11    1    3    3    0    0  0.81387284483E+01 -0.40367864259E+01  0.28861326580E+01  0.95322771353E+01  0.51100000000E-03 0. -1.
        -11    1    3    3    0    0 -0.49860956055E+00  0.10061798380E+02 -0.40809757669E+02  0.42034803668E+02  0.51100000000E-03 0.  1.
         12    1    3    3    0    0 -0.66238836916E+01 -0.62108285898E+01  0.37352786025E+02  0.38440614600E+02  0.00000000000E+00 0. -1.
</event>
<event>
 7    1  0.2084210E-015  0.9000770E+02  0.7816164E-02  0.1186339E+00
        -11   -1    0    0    0    0  0.00000000000E+00  0.00000000000E+00  0.45593999997E+02  0.45594000000E+02  0.51100000000E-03 0. -1.
         11   -1    0    0    0    0 -0.00000000000E+00 -0.00000000000E+00 -0.45593999997E+02  0.45594000000E+02  0.51100000000E-03 0.  1.
    9900012    2    1    2    0    0 -0.94591976899E+00 -0.26281638087E+00 -0.65519331898E+00  0.90007697096E+02  0.89999957898E+02 0.  0.
         12    1    1    2    0    0  0.94591976899E+00  0.26281638087E+00  0.65519331898E+00  0.11803029038E+01  0.00000000000E+00 0. -1.
         11    1    3    3    0    0 -0.39396052505E+02  0.15496041364E+01 -0.99862232368E+01  0.40671548787E+02  0.51100000000E-03 0. -1.
        -11    1    3    3    0    0 -0.26905866967E+00 -0.41621606913E+01  0.96841321370E+01  0.10544116354E+02  0.51100000000E-03 0.  1.
        -12    1    3    3    0    0  0.38719191406E+02  0.23497401740E+01 -0.35310221916E+00  0.38792031955E+02  0.00000000000E+00 0.  1.
</event>
<event>
 7    1  0.2084210E-015  0.9000767E+02  0.7816164E-02  0.1186339E+00
        -11   -1    0    0    0    0  0.00000000000E+00  0.00000000000E+00  0.45593999997E+02  0.45594000000E+02  0.51100000000E-03 0.  1.
         11   -1    0    0    0    0 -0.00000000000E+00 -0.00000000000E+00 -0.45593999997E+02  0.45594000000E+02  0.51100000000E-03 0. -1.
    9900012    2    1    2    0    0 -0.75339525176E+00  0.45936830612E+00  0.78394004102E+00  0.90007667151E+02  0.89999927558E+02 0.  0.
         12    1    1    2    0    0  0.75339525176E+00 -0.45936830612E+00 -0.78394004102E+00  0.11803328488E+01  0.00000000000E+00 0. -1.
         11    1    3    3    0    0  0.22516881602E+02  0.25225283071E+02  0.38923633336E+01  0.34036382823E+02  0.51100000000E-03 0. -1.
        -11    1    3    3    0    0  0.62846863667E+01  0.65537155512E+00  0.12478307075E+02  0.13986956149E+02  0.51100000000E-03 0.  1.
        -12    1    3    3    0    0 -0.29554963221E+02 -0.25421286320E+02 -0.15586730367E+02  0.41984328179E+02  0.00000000000E+00 0.  1.
</event>
<event>
 7    1  0.2084210E-015  0.9000777E+02  0.7816164E-02  0.1186339E+00
        -11   -1    0    0    0    0  0.00000000000E+00  0.00000000000E+00  0.45593999997E+02  0.45594000000E+02  0.51100000000E-03 0. -1.
         11   -1    0    0    0    0 -0.00000000000E+00 -0.00000000000E+00 -0.45593999997E+02  0.45594000000E+02  0.51100000000E-03 0.  1.
    9900012    2    1    2    0    0 -0.95008387689E+00 -0.58958311381E+00 -0.37773713099E+00  0.90007765718E+02  0.90000027425E+02 0.  0.
         12    1    1    2    0    0  0.95008387689E+00  0.58958311381E+00  0.37773713099E+00  0.11802342824E+01  0.00000000000E+00 0. -1.
         11    1    3    3    0    0  0.57586246908E+01 -0.64754038942E+01 -0.18375482529E+01  0.88582841321E+01  0.51100000000E-03 0. -1.
        -11    1    3    3    0    0  0.17410211231E+02 -0.31453760098E+02  0.60687062752E+01  0.36459342774E+02  0.51100000000E-03 0.  1.
         12    1    3    3    0    0 -0.24118919799E+02  0.37339580879E+02 -0.46088951533E+01  0.44690138811E+02  0.00000000000E+00 0. -1.
</event>
<event>
 8    1  0.2084210E-015  0.9000772E+02  0.7816164E-02  0.1186339E+00
        -11   -1    0    0    0    0  0.00000000000E+00  0.00000000000E+00  0.45593999997E+02  0.45594000000E+02  0.51100000000E-03 0. -1.
         11   -1    0    0    0    0 -0.00000000000E+00 -0.00000000000E+00 -0.45593999997E+02  0.45594000000E+02  0.51100000000E-03 0.  1.
    9900012    2    1    2    0    0  0.10870753452E+01  0.39044050501E+00  0.24266477149E+00  0.90007719192E+02  0.89999980285E+02 0.  0.
         23    2    3    3    0    0  0.12438295658E+02 -0.25723228853E+02  0.30980718477E+01  0.61390813708E+02  0.54247933205E+02 0.  0.
         12    1    1    2    0    0 -0.10870753452E+01 -0.39044050501E+00 -0.24266477149E+00  0.11802808079E+01  0.00000000000E+00 0. -1.
         11    1    4    4    0    0 -0.18105533476E+02 -0.10967320302E+01  0.11213828643E+02  0.21325175655E+02  0.51100000000E-03 0. -1.
        -11    1    4    4    0    0  0.30543829135E+02 -0.24626496823E+02 -0.81157567952E+01  0.40065638053E+02  0.51100000000E-03 0.  1.
         12    1    3    3    0    0 -0.11351220313E+02  0.26113669358E+02 -0.28554070762E+01  0.28616905484E+02  0.00000000000E+00 0. -1.
</event>
<event>
 7    1  0.2084210E-015  0.9000770E+02  0.7816164E-02  0.1186339E+00
        -11   -1    0    0    0    0  0.00000000000E+00  0.00000000000E+00  0.45593999997E+02  0.45594000000E+02  0.51100000000E-03 0.  1.
         11   -1    0    0    0    0 -0.00000000000E+00 -0.00000000000E+00 -0.45593999997E+02  0.45594000000E+02  0.51100000000E-03 0. -1.
    9900012    2    1    2    0    0  0.42190917983E-02 -0.36659301356E+00  0.11219131048E+01  0.90007704591E+02  0.89999965491E+02 0.  0.
         12    1    1    2    0    0 -0.42190917983E-02  0.36659301356E+00 -0.11219131048E+01  0.11802954092E+01  0.00000000000E+00 0. -1.
         11    1    3    3    0    0 -0.78606772767E+00  0.11497318236E+02  0.41378228959E+01  0.12244501120E+02  0.51100000000E-03 0. -1.
        -11    1    3    3    0    0 -0.16041744573E+02 -0.29022005138E+02 -0.27775322774E+02  0.43256015844E+02  0.51100000000E-03 0.  1.
         12    1    3    3    0    0  0.16832031392E+02  0.17158093888E+02  0.24759412983E+02  0.34507187627E+02  0.00000000000E+00 0. -1.
</event>
<event>
 7    1  0.2084210E-015  0.9000771E+02  0.7816164E-02  0.1186339E+00
        -11   -1    0    0    0    0  0.00000000000E+00  0.00000000000E+00  0.45593999997E+02  0.45594000000E+02  0.51100000000E-03 0.  1.
         11   -1    0    0    0    0 -0.00000000000E+00 -0.00000000000E+00 -0.45593999997E+02  0.45594000000E+02  0.51100000000E-03 0. -1.
    9900012    2    1    2    0    0  0.86036262826E+00  0.18736507019E+00  0.78597640850E+00  0.90007708326E+02  0.89999969276E+02 0.  0.
         12    1    1    2    0    0 -0.86036262826E+00 -0.18736507019E+00 -0.78597640850E+00  0.11802916743E+01  0.00000000000E+00 0. -1.
         11    1    3    3    0    0 -0.30087480682E+02  0.22290737067E+02 -0.87968458379E+00  0.37455404123E+02  0.51100000000E-03 0. -1.
        -11    1    3    3    0    0 -0.69762804105E+01  0.22011340612E+01 -0.12190969967E+01  0.74161767286E+01  0.51100000000E-03 0.  1.
        -12    1    3    3    0    0  0.37924123721E+02 -0.24304506058E+02  0.28847579890E+01  0.45136127474E+02  0.00000000000E+00 0.  1.
</event>
<event>
 7    1  0.2084210E-015  0.9000765E+02  0.7816164E-02  0.1186339E+00
        -11   -1    0    0    0    0  0.00000000000E+00  0.00000000000E+00  0.45593999997E+02  0.45594000000E+02  0.51100000000E-03 0. -1.
         11   -1    0    0    0    0 -0.00000000000E+00 -0.00000000000E+00 -0.45593999997E+02  0.45594000000E+02  0.51100000000E-03 0.  1.
    9900012    2    1    2    0    0 -0.43203878984E+00  0.68711894313E+00 -0.85698716707E+00  0.90007653880E+02  0.89999914111E+02 0.  0.
         12    1    1    2    0    0  0.43203878984E+00 -0.68711894313E+00  0.85698716707E+00  0.11803461198E+01  0.00000000000E+00 0. -1.
         11    1    3    3    0    0 -0.69690874123E+01 -0.27684141320E+02 -0.13273284925E+02  0.31482692912E+02  0.51100000000E-03 0. -1.
        -11    1    3    3    0    0 -0.16890005745E+01 -0.10594438361E+02 -0.83654059477E+01  0.13604222288E+02  0.51100000000E-03 0.  1.
        -12    1    3    3    0    0  0.82260491969E+01  0.38965698625E+02  0.20781703706E+02  0.44920738681E+02  0.00000000000E+00 0.  1.
</event>
<event>
 7    1  0.2084210E-015  0.9000783E+02  0.7816164E-02  0.1186339E+00
        -11   -1    0    0    0    0  0.00000000000E+00  0.00000000000E+00  0.45593999997E+02  0.45594000000E+02  0.51100000000E-03 0. -1.
         11   -1    0    0    0    0 -0.00000000000E+00 -0.00000000000E+00 -0.45593999997E+02  0.45594000000E+02  0.51100000000E-03 0.  1.
    9900012    2    1    2    0    0 -0.10643136129E+01 -0.17101715045E+00 -0.48040566817E+00  0.90007830547E+02  0.90000093110E+02 0.  0.
         12    1    1    2    0    0  0.10643136129E+01  0.17101715045E+00  0.48040566817E+00  0.11801694533E+01  0.00000000000E+00 0. -1.
         11    1    3    3    0    0  0.10615850518E+02 -0.12767757732E+01 -0.10311628437E+02  0.14854498305E+02  0.51100000000E-03 0. -1.
        -11    1    3    3    0    0  0.25647713692E+02 -0.17451120577E+02 -0.38956132745E+01  0.31265358307E+02  0.51100000000E-03 0.  1.
         12    1    3    3    0    0 -0.37327877823E+02  0.18556879200E+02  0.13726836043E+02  0.43887973935E+02  0.00000000000E+00 0. -1.
</event>
<event>
 7    1  0.2084210E-015  0.9000779E+02  0.7816164E-02  0.1186339E+00
        -11   -1    0    0    0    0  0.00000000000E+00  0.00000000000E+00  0.45593999997E+02  0.45594000000E+02  0.51100000000E-03 0. -1.
         11   -1    0    0    0    0 -0.00000000000E+00 -0.00000000000E+00 -0.45593999997E+02  0.45594000000E+02  0.51100000000E-03 0.  1.
    9900012    2    1    2    0    0  0.54951355861E+00 -0.28876719607E+00 -0.10037692471E+01  0.90007786313E+02  0.90000048293E+02 0.  0.
         12    1    1    2    0    0 -0.54951355861E+00  0.28876719607E+00  0.10037692471E+01  0.11802136866E+01  0.00000000000E+00 0. -1.
         11    1    3    3    0    0  0.60215944306E+00  0.29478730366E+01 -0.92643320097E+01  0.97406570251E+01  0.51100000000E-03 0. -1.
        -11    1    3    3    0    0 -0.15677540523E+02  0.32241341222E+02 -0.10279481140E+02  0.37295537178E+02  0.51100000000E-03 0.  1.
         12    1    3    3    0    0  0.15624894639E+02 -0.35477981455E+02  0.18540043902E+02  0.42971592110E+02  0.00000000000E+00 0. -1.
</event>
<event>
 7    1  0.2084210E-015  0.9000772E+02  0.7816164E-02  0.1186339E+00
        -11   -1    0    0    0    0  0.00000000000E+00  0.00000000000E+00  0.45593999997E+02  0.45594000000E+02  0.51100000000E-03 0.  1.
         11   -1    0    0    0    0 -0.00000000000E+00 -0.00000000000E+00 -0.45593999997E+02  0.45594000000E+02  0.51100000000E-03 0. -1.
    9900012    2    1    2    0    0  0.15380517000E-01  0.84101961335E+00  0.82795944934E+00  0.90007717237E+02  0.89999978305E+02 0.  0.
         12    1    1    2    0    0 -0.15380517000E-01 -0.84101961335E+00 -0.82795944934E+00  0.11802827628E+01  0.00000000000E+00 0. -1.
         11    1    3    3    0    0 -0.27611015584E+02 -0.81422505213E+01 -0.20762215988E+02  0.35492732188E+02  0.51100000000E-03 0. -1.
        -11    1    3    3    0    0 -0.28512239925E+01  0.31555167945E+01 -0.96116001906E+01  0.10510453034E+02  0.51100000000E-03 0.  1.
        -12    1    3    3    0    0  0.30477620094E+02  0.58277533401E+01  0.31201775628E+02  0.44004532016E+02  0.00000000000E+00 0.  1.
</event>
<event>
 7    1  0.2084210E-015  0.9000771E+02  0.7816164E-02  0.1186339E+00
        -11   -1    0    0    0    0  0.00000000000E+00  0.00000000000E+00  0.45593999997E+02  0.45594000000E+02  0.51100000000E-03 0.  1.
         11   -1    0    0    0    0 -0.00000000000E+00 -0.00000000000E+00 -0.45593999997E+02  0.45594000000E+02  0.51100000000E-03 0. -1.
    9900012    2    1    2    0    0 -0.11368063904E+01 -0.31692775878E+00  0.17981473913E-01  0.90007705415E+02  0.89999966327E+02 0.  0.
         12    1    1    2    0    0  0.11368063904E+01  0.31692775878E+00 -0.17981473913E-01  0.11802945848E+01  0.00000000000E+00 0. -1.
         11    1    3    3    0    0 -0.40017963866E+02  0.36153763484E+01 -0.12948382448E+02  0.42215743348E+02  0.51100000000E-03 0. -1.
        -11    1    3    3    0    0  0.11131114113E+01 -0.71548334324E+01 -0.11732451865E+01  0.73353365968E+01  0.51100000000E-03 0.  1.
        -12    1    3    3    0    0  0.37768046064E+02  0.32225293252E+01  0.14139609108E+02  0.40456625471E+02  0.00000000000E+00 0.  1.
</event>
<event>
 7    1  0.2084210E-015  0.9000769E+02  0.7816164E-02  0.1186339E+00
        -11   -1    0    0    0    0  0.00000000000E+00  0.00000000000E+00  0.45593999997E+02  0.45594000000E+02  0.51100000000E-03 0. -1.
         11   -1    0    0    0    0 -0.00000000000E+00 -0.00000000000E+00 -0.45593999997E+02  0.45594000000E+02  0.51100000000E-03 0.  1.
    9900012    2    1    2    0    0 -0.43885625843E-02  0.16093390669E+00 -0.11692787987E+01  0.90007689917E+02  0.89999950624E+02 0.  0.
         12    1    1    2    0    0  0.43885625843E-02 -0.16093390669E+00  0.11692787987E+01  0.11803100826E+01  0.00000000000E+00 0. -1.
         11    1    3    3    0    0 -0.81555072009E+01  0.45972976635E+01 -0.48925665277E+01  0.10563363621E+02  0.51100000000E-03 0. -1.
        -11    1    3    3    0    0  0.40170265354E+02  0.10888422106E+02 -0.73413741103E+01  0.42262320436E+02  0.51100000000E-03 0.  1.
         12    1    3    3    0    0 -0.32019146716E+02 -0.15324785863E+02  0.11064661839E+02  0.37182005860E+02  0.00000000000E+00 0. -1.
</event>
<event>
 7    1  0.2084210E-015  0.9000773E+02  0.7816164E-02  0.1186339E+00
        -11   -1    0    0    0    0  0.00000000000E+00  0.00000000000E+00  0.45593999997E+02  0.45594000000E+02  0.51100000000E-03 0. -1.
         11   -1    0    0    0    0 -0.00000000000E+00 -0.00000000000E+00 -0.45593999997E+02  0.45594000000E+02  0.51100000000E-03 0.  1.
    9900012    2    1    2    0    0  0.10975384457E+00 -0.89928757131E+00 -0.75648930955E+00  0.90007728795E+02  0.89999990015E+02 0.  0.
         12    1    1    2    0    0 -0.10975384457E+00  0.89928757131E+00  0.75648930955E+00  0.11802712052E+01  0.00000000000E+00 0. -1.
         11    1    3    3    0    0  0.72308904954E+01  0.27525345341E+02  0.21762475401E+02  0.35826467163E+02  0.51100000000E-03 0. -1.
        -11    1    3    3    0    0  0.11380971427E+01 -0.56743004373E+01  0.11240112177E+02  0.12642510533E+02  0.51100000000E-03 0.  1.
        -12    1    3    3    0    0 -0.82592337936E+01 -0.22750332475E+02 -0.33759076888E+02  0.41538751099E+02  0.00000000000E+00 0.  1.
</event>
<event>
 7    1  0.2084210E-015  0.9000776E+02  0.7816164E-02  0.1186339E+00
        -11   -1    0    0    0    0  0.00000000000E+00  0.00000000000E+00  0.45593999997E+02  0.45594000000E+02  0.51100000000E-03 0.  1.
         11   -1    0    0    0    0 -0.00000000000E+00 -0.00000000000E+00 -0.45593999997E+02  0.45594000000E+02  0.51100000000E-03 0. -1.
    9900012    2    1    2    0    0  0.30341096649E+00  0.39725322057E+00  0.10691618793E+01  0.90007756186E+02  0.90000017768E+02 0.  0.
         12    1    1    2    0    0 -0.30341096649E+00 -0.39725322057E+00 -0.10691618793E+01  0.11802438138E+01  0.00000000000E+00 0. -1.
         11    1    3    3    0    0 -0.25163264269E+02 -0.29264210164E+02  0.13404878618E+00  0.38595360272E+02  0.51100000000E-03 0. -1.
        -11    1    3    3    0    0 -0.58133926466E+01  0.48894256790E+01  0.78421166157E+01  0.10917912383E+02  0.51100000000E-03 0.  1.
        -12    1    3    3    0    0  0.31280067882E+02  0.24772037705E+02 -0.69070035226E+01  0.40494483531E+02  0.00000000000E+00 0.  1.
</event>
<event>
 7    1  0.2084210E-015  0.9000784E+02  0.7816164E-02  0.1186339E+00
        -11   -1    0    0    0    0  0.00000000000E+00  0.00000000000E+00  0.45593999997E+02  0.45594000000E+02  0.51100000000E-03 0. -1.
         11   -1    0    0    0    0 -0.00000000000E+00 -0.00000000000E+00 -0.45593999997E+02  0.45594000000E+02  0.51100000000E-03 0.  1.
    9900012    2    1    2    0    0 -0.82546728239E+00 -0.60168849557E+00 -0.59106091336E+00  0.90007839721E+02  0.90000102406E+02 0.  0.
         12    1    1    2    0    0  0.82546728239E+00  0.60168849557E+00  0.59106091336E+00  0.11801602787E+01  0.00000000000E+00 0. -1.
         11    1    3    3    0    0 -0.71491860560E+01  0.75548485813E+00  0.44949681263E+01  0.84785822725E+01  0.51100000000E-03 0. -1.
        -11    1    3    3    0    0 -0.30168372790E+02  0.15540369765E+02 -0.19101751789E+02  0.38942402736E+02  0.51100000000E-03 0.  1.
         12    1    3    3    0    0  0.36492091563E+02 -0.16897543119E+02  0.14015722750E+02  0.42586854712E+02  0.00000000000E+00 0. -1.
</event>
<event>
 7    1  0.2084210E-015  0.9000781E+02  0.7816164E-02  0.1186339E+00
        -11   -1    0    0    0    0  0.00000000000E+00  0.00000000000E+00  0.45593999997E+02  0.45594000000E+02  0.51100000000E-03 0. -1.
         11   -1    0    0    0    0 -0.00000000000E+00 -0.00000000000E+00 -0.45593999997E+02  0.45594000000E+02  0.51100000000E-03 0.  1.
    9900012    2    1    2    0    0 -0.93084965450E+00  0.40256717871E+00 -0.60358169612E+00  0.90007808373E+02  0.90000070643E+02 0.  0.
         12    1    1    2    0    0  0.93084965450E+00 -0.40256717871E+00  0.60358169612E+00  0.11801916270E+01  0.00000000000E+00 0. -1.
         11    1    3    3    0    0  0.66434352703E+01  0.29699534742E+01  0.80145642110E+01  0.10825391244E+02  0.51100000000E-03 0. -1.
        -11    1    3    3    0    0 -0.32963309360E+02 -0.23462962418E+02  0.96091651094E+01  0.41586373053E+02  0.51100000000E-03 0.  1.
         12    1    3    3    0    0  0.25389024435E+02  0.20895576123E+02 -0.18227311017E+02  0.37596044076E+02  0.00000000000E+00 0. -1.
</event>
<event>
 7    1  0.2084210E-015  0.9000795E+02  0.7816164E-02  0.1186339E+00
        -11   -1    0    0    0    0  0.00000000000E+00  0.00000000000E+00  0.45593999997E+02  0.45594000000E+02  0.51100000000E-03 0.  1.
         11   -1    0    0    0    0 -0.00000000000E+00 -0.00000000000E+00 -0.45593999997E+02  0.45594000000E+02  0.51100000000E-03 0. -1.
    9900012    2    1    2    0    0  0.71556734668E+00  0.20225704577E+00  0.91628757098E+00  0.90007945996E+02  0.90000210083E+02 0.  0.
         12    1    1    2    0    0 -0.71556734668E+00 -0.20225704577E+00 -0.91628757098E+00  0.11800540042E+01  0.00000000000E+00 0. -1.
         11    1    3    3    0    0 -0.24701609150E+02  0.19189912940E+02 -0.27172891516E+02  0.41434143974E+02  0.51100000000E-03 0. -1.
        -11    1    3    3    0    0  0.78402951195E+01 -0.32065618201E+01 -0.34695730936E+01  0.91536989234E+01  0.51100000000E-03 0.  1.
        -12    1    3    3    0    0  0.17576881377E+02 -0.15781094074E+02  0.31558752180E+02  0.39420103099E+02  0.00000000000E+00 0.  1.
</event>
<event>
 7    1  0.2084210E-015  0.9000809E+02  0.7816164E-02  0.1186338E+00
        -11   -1    0    0    0    0  0.00000000000E+00  0.00000000000E+00  0.45593999997E+02  0.45594000000E+02  0.51100000000E-03 0.  1.
         11   -1    0    0    0    0 -0.00000000000E+00 -0.00000000000E+00 -0.45593999997E+02  0.45594000000E+02  0.51100000000E-03 0. -1.
    9900012    2    1    2    0    0  0.60784461344E+00  0.85115127751E+00  0.54611570195E+00  0.90008094948E+02  0.90000361001E+02 0.  0.
         12    1    1    2    0    0 -0.60784461344E+00 -0.85115127751E+00 -0.54611570195E+00  0.11799050518E+01  0.00000000000E+00 0. -1.
         11    1    3    3    0    0 -0.35359858267E+02  0.15533138977E+02  0.12388646345E+02  0.40559543164E+02  0.51100000000E-03 0. -1.
        -11    1    3    3    0    0  0.23314298721E+01  0.62580250805E+01 -0.67595304740E+01  0.95020890149E+01  0.51100000000E-03 0.  1.
        -12    1    3    3    0    0  0.33636273008E+02 -0.20940012780E+02 -0.50830001693E+01  0.39946462770E+02  0.00000000000E+00 0.  1.
</event>
<event>
 7    1  0.2084210E-015  0.9000774E+02  0.7816164E-02  0.1186339E+00
        -11   -1    0    0    0    0  0.00000000000E+00  0.00000000000E+00  0.45593999997E+02  0.45594000000E+02  0.51100000000E-03 0.  1.
         11   -1    0    0    0    0 -0.00000000000E+00 -0.00000000000E+00 -0.45593999997E+02  0.45594000000E+02  0.51100000000E-03 0. -1.
    9900012    2    1    2    0    0 -0.43223404327E+00 -0.95622592973E+00  0.54020576532E+00  0.90007738772E+02  0.90000000124E+02 0.  0.
         12    1    1    2    0    0  0.43223404327E+00  0.95622592973E+00 -0.54020576532E+00  0.11802612278E+01  0.00000000000E+00 0. -1.
         11    1    3    3    0    0 -0.80637441813E+01 -0.38886077990E+01  0.36119004768E+01  0.96535519966E+01  0.51100000000E-03 0. -1.
        -11    1    3    3    0    0 -0.26366887150E+02 -0.18716141822E+02  0.15638433767E+02  0.35917507063E+02  0.51100000000E-03 0.  1.
         12    1    3    3    0    0  0.33998397288E+02  0.21648523691E+02 -0.18710128478E+02  0.44436679712E+02  0.00000000000E+00 0. -1.
</event>
<event>
 7    1  0.2084210E-015  0.9000788E+02  0.7816164E-02  0.1186339E+00
        -11   -1    0    0    0    0  0.00000000000E+00  0.00000000000E+00  0.45593999997E+02  0.45594000000E+02  0.51100000000E-03 0.  1.
         11   -1    0    0    0    0 -0.00000000000E+00 -0.00000000000E+00 -0.45593999997E+02  0.45594000000E+02  0.51100000000E-03 0. -1.
    9900012    2    1    2    0    0  0.67847687087E+00 -0.45705489387E+00  0.85055447523E+00  0.90007884346E+02  0.90000147620E+02 0.  0.
         12    1    1    2    0    0 -0.67847687087E+00  0.45705489387E+00 -0.85055447523E+00  0.11801156535E+01  0.00000000000E+00 0. -1.
         11    1    3    3    0    0  0.29262600793E+02  0.26746342167E+02  0.74667340944E+01  0.40341278398E+02  0.51100000000E-03 0. -1.
        -11    1    3    3    0    0 -0.69617690552E+01  0.62370409564E+01 -0.21836321678E+01  0.95987060573E+01  0.51100000000E-03 0.  1.
        -12    1    3    3    0    0 -0.21622354867E+02 -0.33440438017E+02 -0.44325474514E+01  0.40067899891E+02  0.00000000000E+00 0.  1.
</event>
<event>
 7    1  0.2084210E-015  0.9000804E+02  0.7816164E-02  0.1186338E+00
        -11   -1    0    0    0    0  0.00000000000E+00  0.00000000000E+00  0.45593999997E+02  0.45594000000E+02  0.51100000000E-03 0. -1.
         11   -1    0    0    0    0 -0.00000000000E+00 -0.00000000000E+00 -0.45593999997E+02  0.45594000000E+02  0.51100000000E-03 0.  1.
    9900012    2    1    2    0    0 -0.90747481792E+00 -0.35209707735E+00  0.66694826147E+00  0.90008041153E+02  0.90000306496E+02 0.  0.
         12    1    1    2    0    0  0.90747481792E+00  0.35209707735E+00 -0.66694826147E+00  0.11799588470E+01  0.00000000000E+00 0. -1.
         11    1    3    3    0    0 -0.95559908243E+00  0.28260112873E+01  0.11387571719E+02  0.11771843497E+02  0.51100000000E-03 0. -1.
        -11    1    3    3    0    0  0.36155195161E+02  0.12312783100E+02 -0.45378316695E+01  0.38462900064E+02  0.51100000000E-03 0.  1.
         12    1    3    3    0    0 -0.36107070896E+02 -0.15490891465E+02 -0.61827917880E+01  0.39773297592E+02  0.00000000000E+00 0. -1.
</event>
<event>
 7    1  0.2084210E-015  0.9000847E+02  0.7816164E-02  0.1186338E+00
        -11   -1    0    0    0    0  0.00000000000E+00  0.00000000000E+00  0.45593999997E+02  0.45594000000E+02  0.51100000000E-03 0.  1.
         11   -1    0    0    0    0 -0.00000000000E+00 -0.00000000000E+00 -0.45593999997E+02  0.45594000000E+02  0.51100000000E-03 0. -1.
    9900012    2    1    2    0    0  0.11796264567E+00  0.90250012086E+00  0.75025000560E+00  0.90008467582E+02  0.90000738551E+02 0.  0.
         12    1    1    2    0    0 -0.11796264567E+00 -0.90250012086E+00 -0.75025000560E+00  0.11795324179E+01  0.00000000000E+00 0. -1.
         11    1    3    3    0    0  0.98739099741E+01  0.27430926481E+01  0.11182037710E+02  0.15167617580E+02  0.51100000000E-03 0. -1.
        -11    1    3    3    0    0  0.87952033646E+01 -0.34778695859E+02 -0.91220804326E+01  0.37015208219E+02  0.51100000000E-03 0.  1.
         12    1    3    3    0    0 -0.18551150693E+02  0.32938103331E+02 -0.13097072720E+01  0.37825641782E+02  0.00000000000E+00 0. -1.
</event>
<event>
 7    1  0.2084210E-015  0.9000784E+02  0.7816164E-02  0.1186339E+00
        -11   -1    0    0    0    0  0.00000000000E+00  0.00000000000E+00  0.45593999997E+02  0.45594000000E+02  0.51100000000E-03 0.  1.
         11   -1    0    0    0    0 -0.00000000000E+00 -0.00000000000E+00 -0.45593999997E+02  0.45594000000E+02  0.51100000000E-03 0. -1.
    9900012    2    1    2    0    0 -0.27194970914E+00  0.25977539010E+00  0.11186322311E+01  0.90007839856E+02  0.90000102542E+02 0.  0.
         12    1    1    2    0    0  0.27194970914E+00 -0.25977539010E+00 -0.11186322311E+01  0.11801601442E+01  0.00000000000E+00 0. -1.
         11    1    3    3    0    0 -0.17623951031E+02  0.29596189153E+02 -0.13723097826E+02  0.37079124538E+02  0.51100000000E-03 0. -1.
        -11    1    3    3    0    0  0.27707367517E+01  0.57842396422E+01 -0.66578720164E+01  0.92445481465E+01  0.51100000000E-03 0.  1.
        -12    1    3    3    0    0  0.14581264570E+02 -0.35120653406E+02  0.21499602073E+02  0.43684167171E+02  0.00000000000E+00 0.  1.
</event>
<event>
 7    1  0.2084210E-015  0.9000776E+02  0.7816164E-02  0.1186339E+00
        -11   -1    0    0    0    0  0.00000000000E+00  0.00000000000E+00  0.45593999997E+02  0.45594000000E+02  0.51100000000E-03 0. -1.
         11   -1    0    0    0    0 -0.00000000000E+00 -0.00000000000E+00 -0.45593999997E+02  0.45594000000E+02  0.51100000000E-03 0.  1.
    9900012    2    1    2    0    0  0.46327520950E+00  0.32579734765E+00 -0.10354729760E+01  0.90007757603E+02  0.90000019203E+02 0.  0.
         12    1    1    2    0    0 -0.46327520950E+00 -0.32579734765E+00  0.10354729760E+01  0.11802423969E+01  0.00000000000E+00 0. -1.
         11    1    3    3    0    0  0.16130322506E+02  0.78269171449E+01 -0.86543101985E+00  0.17949844213E+02  0.51100000000E-03 0. -1.
        -11    1    3    3    0    0  0.20371625586E+02  0.14482746196E+02 -0.12681699813E+02  0.28028174696E+02  0.51100000000E-03 0.  1.
         12    1    3    3    0    0 -0.36038672883E+02 -0.21983865993E+02  0.12511657856E+02  0.44029738694E+02  0.00000000000E+00 0. -1.
</event>
<event>
 7    1  0.2084210E-015  0.9000778E+02  0.7816164E-02  0.1186339E+00
        -11   -1    0    0    0    0  0.00000000000E+00  0.00000000000E+00  0.45593999997E+02  0.45594000000E+02  0.51100000000E-03 0.  1.
         11   -1    0    0    0    0 -0.00000000000E+00 -0.00000000000E+00 -0.45593999997E+02  0.45594000000E+02  0.51100000000E-03 0. -1.
    9900012    2    1    2    0    0  0.93897983307E+00 -0.89232818590E-01  0.70941473979E+00  0.90007781844E+02  0.90000043764E+02 0.  0.
         12    1    1    2    0    0 -0.93897983307E+00  0.89232818590E-01 -0.70941473979E+00  0.11802181560E+01  0.00000000000E+00 0. -1.
         11    1    3    3    0    0  0.35305490590E+02 -0.15829517409E+02  0.13080891499E+02  0.40843126838E+02  0.51100000000E-03 0. -1.
        -11    1    3    3    0    0 -0.45558801865E+01 -0.25603766773E+01  0.73422373657E+01  0.90122151993E+01  0.51100000000E-03 0.  1.
        -12    1    3    3    0    0 -0.29810630570E+02  0.18300661268E+02 -0.19713714125E+02  0.40152439807E+02  0.00000000000E+00 0.  1.
</event>
<event>
 7    1  0.2084210E-015  0.9000770E+02  0.7816164E-02  0.1186339E+00
        -11   -1    0    0    0    0  0.00000000000E+00  0.00000000000E+00  0.45593999997E+02  0.45594000000E+02  0.51100000000E-03 0.  1.
         11   -1    0    0    0    0 -0.00000000000E+00 -0.00000000000E+00 -0.45593999997E+02  0.45594000000E+02  0.51100000000E-03 0. -1.
    9900012    2    1    2    0    0 -0.10060080390E+01  0.15225661533E+00  0.59822938218E+00  0.90007698070E+02  0.89999958885E+02 0.  0.
         12    1    1    2    0    0  0.10060080390E+01 -0.15225661533E+00 -0.59822938218E+00  0.11803019296E+01  0.00000000000E+00 0. -1.
         11    1    3    3    0    0 -0.49647325585E+01 -0.36229026713E+01  0.69257097942E+01  0.92595599008E+01  0.51100000000E-03 0. -1.
        -11    1    3    3    0    0  0.25011852777E+01  0.15012776588E+02  0.34856097895E+02  0.38034023577E+02  0.51100000000E-03 0.  1.
         12    1    3    3    0    0  0.14575392418E+01 -0.11237617302E+02 -0.41183578307E+02  0.42714114593E+02  0.00000000000E+00 0. -1.
</event>
<event>
 7    1  0.2084210E-015  0.9000799E+02  0.7816164E-02  0.1186339E+00
        -11   -1    0    0    0    0  0.00000000000E+00  0.00000000000E+00  0.45593999997E+02  0.45594000000E+02  0.51100000000E-03 0.  1.
         11   -1    0    0    0    0 -0.00000000000E+00 -0.00000000000E+00 -0.45593999997E+02  0.45594000000E+02  0.51100000000E-03 0. -1.
    9900012    2    1    2    0    0  0.54806733418E+00  0.40856128743E+00  0.96182964140E+00  0.90007993056E+02  0.90000257764E+02 0.  0.
         12    1    1    2    0    0 -0.54806733418E+00 -0.40856128743E+00 -0.96182964140E+00  0.11800069438E+01  0.00000000000E+00 0. -1.
         11    1    3    3    0    0 -0.96902512751E+01 -0.93127771591E+01 -0.36756336979E+02  0.39136390950E+02  0.51100000000E-03 0. -1.
        -11    1    3    3    0    0 -0.85374242896E+01  0.79099031447E+01  0.41306112352E+01  0.12349742131E+02  0.51100000000E-03 0.  1.
        -12    1    3    3    0    0  0.18775742899E+02  0.18114353018E+01  0.33587555385E+02  0.38521859976E+02  0.00000000000E+00 0.  1.
</event>
<event>
 7    1  0.2084210E-015  0.9000775E+02  0.7816164E-02  0.1186339E+00
        -11   -1    0    0    0    0  0.00000000000E+00  0.00000000000E+00  0.45593999997E+02  0.45594000000E+02  0.51100000000E-03 0.  1.
         11   -1    0    0    0    0 -0.00000000000E+00 -0.00000000000E+00 -0.45593999997E+02  0.45594000000E+02  0.51100000000E-03 0. -1.
    9900012    2    1    2    0    0  0.92258394761E+00 -0.68298487109E+00 -0.27451685269E+00  0.90007750460E+02  0.90000011966E+02 0.  0.
         12    1    1    2    0    0 -0.92258394761E+00  0.68298487109E+00  0.27451685269E+00  0.11802495401E+01  0.00000000000E+00 0. -1.
         11    1    3    3    0    0  0.18772596658E+01 -0.13019595692E+02 -0.37073804372E+01  0.13666698424E+02  0.51100000000E-03 0. -1.
        -11    1    3    3    0    0 -0.17423246187E+02 -0.24792247287E+02 -0.12407775665E+02  0.32744128182E+02  0.51100000000E-03 0.  1.
         12    1    3    3    0    0  0.16468570469E+02  0.37128858108E+02  0.15840639250E+02  0.43596923854E+02  0.00000000000E+00 0. -1.
</event>
<event>
 7    1  0.2084210E-015  0.9000667E+02  0.7816164E-02  0.1186341E+00
        -11   -1    0    0    0    0  0.00000000000E+00  0.00000000000E+00  0.45593999997E+02  0.45594000000E+02  0.51100000000E-03 0. -1.
         11   -1    0    0    0    0 -0.00000000000E+00 -0.00000000000E+00 -0.45593999997E+02  0.45594000000E+02  0.51100000000E-03 0.  1.
    9900012    2    1    2    0    0 -0.48923810159E+00 -0.10086038831E+01 -0.37269755383E+00  0.90006670588E+02  0.89998917833E+02 0.  0.
         12    1    1    2    0    0  0.48923810159E+00  0.10086038831E+01  0.37269755383E+00  0.11813294120E+01  0.00000000000E+00 0. -1.
         11    1    3    3    0    0  0.75666220240E+00  0.10064018263E+02  0.46995014966E+00  0.10103358585E+02  0.51100000000E-03 0. -1.
        -11    1    3    3    0    0 -0.14661322090E+02  0.27061393064E+02 -0.18368934657E+02  0.35842588086E+02  0.51100000000E-03 0.  1.
         12    1    3    3    0    0  0.13415421786E+02 -0.38134015210E+02  0.17526286953E+02  0.44060723917E+02  0.00000000000E+00 0. -1.
</event>
<event>
 7    1  0.2084210E-015  0.9000838E+02  0.7816164E-02  0.1186338E+00
        -11   -1    0    0    0    0  0.00000000000E+00  0.00000000000E+00  0.45593999997E+02  0.45594000000E+02  0.51100000000E-03 0. -1.
         11   -1    0    0    0    0 -0.00000000000E+00 -0.00000000000E+00 -0.45593999997E+02  0.45594000000E+02  0.51100000000E-03 0.  1.
    9900012    2    1    2    0    0 -0.39308239501E+00 -0.92243593093E+00  0.62136205422E+00  0.90008384546E+02  0.90000654420E+02 0.  0.
         12    1    1    2    0    0  0.39308239501E+00  0.92243593093E+00 -0.62136205422E+00  0.11796154536E+01  0.00000000000E+00 0. -1.
         11    1    3    3    0    0  0.10482300077E+02 -0.11242885562E+02 -0.11574940012E+02  0.19242149756E+02  0.51100000000E-03 0. -1.
        -11    1    3    3    0    0  0.14764257102E+02 -0.23008590990E+02  0.15123299544E+01  0.27380023544E+02  0.51100000000E-03 0.  1.
         12    1    3    3    0    0 -0.25639639574E+02  0.33329040621E+02  0.10683972112E+02  0.43386211247E+02  0.00000000000E+00 0. -1.
</event>
<event>
 7    1  0.2084210E-015  0.9000777E+02  0.7816164E-02  0.1186339E+00
        -11   -1    0    0    0    0  0.00000000000E+00  0.00000000000E+00  0.45593999997E+02  0.45594000000E+02  0.51100000000E-03 0.  1.
         11   -1    0    0    0    0 -0.00000000000E+00 -0.00000000000E+00 -0.45593999997E+02  0.45594000000E+02  0.51100000000E-03 0. -1.
    9900012    2    1    2    0    0 -0.72207063980E-01  0.11666224061E+01  0.16343368780E+00  0.90007774484E+02  0.90000036307E+02 0.  0.
         12    1    1    2    0    0  0.72207063980E-01 -0.11666224061E+01 -0.16343368780E+00  0.11802255161E+01  0.00000000000E+00 0. -1.
         11    1    3    3    0    0  0.69003509102E+00 -0.70769227923E+01  0.81151415496E+01  0.10789555471E+02  0.51100000000E-03 0. -1.
        -11    1    3    3    0    0 -0.12707215923E+00 -0.17401090940E+02  0.29246787730E+02  0.34032171632E+02  0.51100000000E-03 0.  1.
         12    1    3    3    0    0 -0.63516999577E+00  0.25644636138E+02 -0.37198495592E+02  0.45186047380E+02  0.00000000000E+00 0. -1.
</event>
<event>
 7    1  0.2084210E-015  0.9000775E+02  0.7816164E-02  0.1186339E+00
        -11   -1    0    0    0    0  0.00000000000E+00  0.00000000000E+00  0.45593999997E+02  0.45594000000E+02  0.51100000000E-03 0.  1.
         11   -1    0    0    0    0 -0.00000000000E+00 -0.00000000000E+00 -0.45593999997E+02  0.45594000000E+02  0.51100000000E-03 0. -1.
    9900012    2    1    2    0    0 -0.93281632917E+00 -0.12784999429E+00 -0.71167857788E+00  0.90007754973E+02  0.90000016539E+02 0.  0.
         12    1    1    2    0    0  0.93281632917E+00  0.12784999429E+00  0.71167857788E+00  0.11802450268E+01  0.00000000000E+00 0. -1.
         11    1    3    3    0    0 -0.23200837639E+02 -0.28766737248E+02  0.14020763613E+02  0.39527026850E+02  0.51100000000E-03 0. -1.
        -11    1    3    3    0    0 -0.75226742029E+01  0.12037655558E+01 -0.38970570928E+01  0.85572619992E+01  0.51100000000E-03 0.  1.
        -12    1    3    3    0    0  0.29790695512E+02  0.27435121697E+02 -0.10835385098E+02  0.41923466125E+02  0.00000000000E+00 0.  1.
</event>
<event>
 7    1  0.2084210E-015  0.9000771E+02  0.7816164E-02  0.1186339E+00
        -11   -1    0    0    0    0  0.00000000000E+00  0.00000000000E+00  0.45593999997E+02  0.45594000000E+02  0.51100000000E-03 0.  1.
         11   -1    0    0    0    0 -0.00000000000E+00 -0.00000000000E+00 -0.45593999997E+02  0.45594000000E+02  0.51100000000E-03 0. -1.
    9900012    2    1    2    0    0 -0.37705461762E+00 -0.72459112521E+00  0.85199184819E+00  0.90007706565E+02  0.89999967492E+02 0.  0.
         12    1    1    2    0    0  0.37705461762E+00  0.72459112521E+00 -0.85199184819E+00  0.11802934350E+01  0.00000000000E+00 0. -1.
         11    1    3    3    0    0  0.30755624129E+02 -0.15796772162E+02 -0.11565663434E+02  0.36458346057E+02  0.51100000000E-03 0. -1.
        -11    1    3    3    0    0 -0.37800900985E+00  0.67652350109E+01 -0.11749344447E+02  0.13563126142E+02  0.51100000000E-03 0.  1.
        -12    1    3    3    0    0 -0.30754669736E+02  0.83069460261E+01  0.24166999729E+02  0.39986234366E+02  0.00000000000E+00 0.  1.
</event>
<event>
 7    1  0.2084210E-015  0.9000783E+02  0.7816164E-02  0.1186339E+00
        -11   -1    0    0    0    0  0.00000000000E+00  0.00000000000E+00  0.45593999997E+02  0.45594000000E+02  0.51100000000E-03 0.  1.
         11   -1    0    0    0    0 -0.00000000000E+00 -0.00000000000E+00 -0.45593999997E+02  0.45594000000E+02  0.51100000000E-03 0. -1.
    9900012    2    1    2    0    0 -0.82858797106E+00  0.64148065128E+00 -0.54291299759E+00  0.90007826295E+02  0.90000088802E+02 0.  0.
         12    1    1    2    0    0  0.82858797106E+00 -0.64148065128E+00  0.54291299759E+00  0.11801737053E+01  0.00000000000E+00 0. -1.
         11    1    3    3    0    0  0.34470423332E+01  0.77774430127E+01  0.13343533875E+02  0.15824683795E+02  0.51100000000E-03 0. -1.
        -11    1    3    3    0    0  0.12543176701E+02 -0.30138139108E+01  0.26921738054E+02  0.29852878188E+02  0.51100000000E-03 0.  1.
         12    1    3    3    0    0 -0.16818807005E+02 -0.41221484506E+01 -0.40808184927E+02  0.44330264312E+02  0.00000000000E+00 0. -1.
</event>
<event>
 7    1  0.2084210E-015  0.9000782E+02  0.7816164E-02  0.1186339E+00
        -11   -1    0    0    0    0  0.00000000000E+00  0.00000000000E+00  0.45593999997E+02  0.45594000000E+02  0.51100000000E-03 0. -1.
         11   -1    0    0    0    0 -0.00000000000E+00 -0.00000000000E+00 -0.45593999997E+02  0.45594000000E+02  0.51100000000E-03 0.  1.
    9900012    2    1    2    0    0  0.10212556496E+01 -0.58535182858E+00  0.84990176216E-01  0.90007820694E+02  0.90000083127E+02 0.  0.
         12    1    1    2    0    0 -0.10212556496E+01  0.58535182858E+00 -0.84990176216E-01  0.11801793063E+01  0.00000000000E+00 0. -1.
         11    1    3    3    0    0  0.55099050204E+01  0.36826806278E+02  0.14660303070E+02  0.40018710629E+02  0.51100000000E-03 0. -1.
        -11    1    3    3    0    0 -0.64043803083E+01  0.21982458661E+01 -0.67632690376E+01  0.95702758767E+01  0.51100000000E-03 0.  1.
        -12    1    3    3    0    0  0.19157309375E+01 -0.39610403973E+02 -0.78120438566E+01  0.40418834188E+02  0.00000000000E+00 0.  1.
</event>
<event>
 7    1  0.2084210E-015  0.9000772E+02  0.7816164E-02  0.1186339E+00
        -11   -1    0    0    0    0  0.00000000000E+00  0.00000000000E+00  0.45593999997E+02  0.45594000000E+02  0.51100000000E-03 0.  1.
         11   -1    0    0    0    0 -0.00000000000E+00 -0.00000000000E+00 -0.45593999997E+02  0.45594000000E+02  0.51100000000E-03 0. -1.
    9900012    2    1    2    0    0 -0.48654849497E+00 -0.79559182354E+00  0.72344035942E+00  0.90007719634E+02  0.89999980734E+02 0.  0.
         12    1    1    2    0    0  0.48654849497E+00  0.79559182354E+00 -0.72344035942E+00  0.11802803655E+01  0.00000000000E+00 0. -1.
         11    1    3    3    0    0  0.25131721259E+02  0.10236423336E+02  0.75075248295E+01  0.28155828979E+02  0.51100000000E-03 0. -1.
        -11    1    3    3    0    0 -0.13806035040E+01  0.19699696264E+02  0.60630849088E+01  0.20657809608E+02  0.51100000000E-03 0.  1.
        -12    1    3    3    0    0 -0.24237666250E+02 -0.30731711424E+02 -0.12847169379E+02  0.41194081047E+02  0.00000000000E+00 0.  1.
</event>
<event>
 7    1  0.2084210E-015  0.9000770E+02  0.7816164E-02  0.1186339E+00
        -11   -1    0    0    0    0  0.00000000000E+00  0.00000000000E+00  0.45593999997E+02  0.45594000000E+02  0.51100000000E-03 0.  1.
         11   -1    0    0    0    0 -0.00000000000E+00 -0.00000000000E+00 -0.45593999997E+02  0.45594000000E+02  0.51100000000E-03 0. -1.
    9900012    2    1    2    0    0  0.80344748895E+00 -0.84881238809E+00 -0.16460173703E+00  0.90007701703E+02  0.89999962566E+02 0.  0.
         12    1    1    2    0    0 -0.80344748895E+00  0.84881238809E+00  0.16460173703E+00  0.11802982968E+01  0.00000000000E+00 0. -1.
         11    1    3    3    0    0  0.26839055345E+01 -0.11179551458E+02  0.72992564460E+01  0.13618548551E+02  0.51100000000E-03 0. -1.
        -11    1    3    3    0    0  0.59491943158E+01 -0.24669623572E+02  0.19096811896E+02  0.31759588553E+02  0.51100000000E-03 0.  1.
         12    1    3    3    0    0 -0.78296523613E+01  0.35000362642E+02 -0.26560670079E+02  0.44629564599E+02  0.00000000000E+00 0. -1.
</event>
<event>
 7    1  0.2084210E-015  0.9000782E+02  0.7816164E-02  0.1186339E+00
        -11   -1    0    0    0    0  0.00000000000E+00  0.00000000000E+00  0.45593999997E+02  0.45594000000E+02  0.51100000000E-03 0. -1.
         11   -1    0    0    0    0 -0.00000000000E+00 -0.00000000000E+00 -0.45593999997E+02  0.45594000000E+02  0.51100000000E-03 0.  1.
    9900012    2    1    2    0    0  0.24723996156E+00 -0.83699076754E+00 -0.79443881890E+00  0.90007824513E+02  0.90000086996E+02 0.  0.
         12    1    1    2    0    0 -0.24723996156E+00  0.83699076754E+00  0.79443881890E+00  0.11801754872E+01  0.00000000000E+00 0. -1.
         11    1    3    3    0    0  0.31909530390E+01 -0.13984303443E+02 -0.52329983528E+01  0.15268503401E+02  0.51100000000E-03 0. -1.
        -11    1    3    3    0    0 -0.36320873773E+02  0.18562632177E+02  0.20241628184E+01  0.40839618269E+02  0.51100000000E-03 0.  1.
         12    1    3    3    0    0  0.33377160695E+02 -0.54153195020E+01  0.24143967155E+01  0.33899702844E+02  0.00000000000E+00 0. -1.
</event>
<event>
 7    1  0.2084210E-015  0.9000768E+02  0.7816164E-02  0.1186339E+00
        -11   -1    0    0    0    0  0.00000000000E+00  0.00000000000E+00  0.45593999997E+02  0.45594000000E+02  0.51100000000E-03 0.  1.
         11   -1    0    0    0    0 -0.00000000000E+00 -0.00000000000E+00 -0.45593999997E+02  0.45594000000E+02  0.51100000000E-03 0. -1.
    9900012    2    1    2    0    0  0.71717475609E+00 -0.86207584103E+00  0.36828293053E+00  0.90007683643E+02  0.89999944267E+02 0.  0.
         12    1    1    2    0    0 -0.71717475609E+00  0.86207584103E+00 -0.36828293053E+00  0.11803163573E+01  0.00000000000E+00 0. -1.
         11    1    3    3    0    0  0.97061835082E+00 -0.31786400107E+01 -0.91500606131E+01  0.97349608004E+01  0.51100000000E-03 0. -1.
        -11    1    3    3    0    0  0.73944995364E+01  0.40200098891E+02  0.21667242582E+01  0.40931910150E+02  0.51100000000E-03 0.  1.
         12    1    3    3    0    0 -0.76479431312E+01 -0.37883534722E+02  0.73516192854E+01  0.39340812692E+02  0.00000000000E+00 0. -1.
</event>
<event>
 7    1  0.2084210E-015  0.9000770E+02  0.7816164E-02  0.1186339E+00
        -11   -1    0    0    0    0  0.00000000000E+00  0.00000000000E+00  0.45593999997E+02  0.45594000000E+02  0.51100000000E-03 0.  1.
         11   -1    0    0    0    0 -0.00000000000E+00 -0.00000000000E+00 -0.45593999997E+02  0.45594000000E+02  0.51100000000E-03 0. -1.
    9900012    2    1    2    0    0  0.97135879610E+00  0.56413069886E+00  0.36237732429E+00  0.90007703986E+02  0.89999964878E+02 0.  0.
         12    1    1    2    0    0 -0.97135879610E+00 -0.56413069886E+00 -0.36237732429E+00  0.11802960143E+01  0.00000000000E+00 0. -1.
         11    1    3    3    0    0  0.53231566027E+01 -0.27102576449E+02 -0.25293171387E+02  0.37451704440E+02  0.51100000000E-03 0. -1.
        -11    1    3    3    0    0  0.10447180188E+02 -0.22768985119E+01  0.43258804608E+00  0.10701166917E+02  0.51100000000E-03 0.  1.
        -12    1    3    3    0    0 -0.14798977994E+02  0.29943605660E+02  0.25222960666E+02  0.41854832628E+02  0.00000000000E+00 0.  1.
</event>
<event>
 7    1  0.2084210E-015  0.9000761E+02  0.7816164E-02  0.1186339E+00
        -11   -1    0    0    0    0  0.00000000000E+00  0.00000000000E+00  0.45593999997E+02  0.45594000000E+02  0.51100000000E-03 0.  1.
         11   -1    0    0    0    0 -0.00000000000E+00 -0.00000000000E+00 -0.45593999997E+02  0.45594000000E+02  0.51100000000E-03 0. -1.
    9900012    2    1    2    0    0 -0.22324117015E+00 -0.10628814259E+01  0.46234028084E+00  0.90007613588E+02  0.89999873288E+02 0.  0.
         12    1    1    2    0    0  0.22324117015E+00  0.10628814259E+01 -0.46234028084E+00  0.11803864117E+01  0.00000000000E+00 0. -1.
         11    1    3    3    0    0 -0.29668637717E+02  0.30958912545E+02 -0.49743864195E+01  0.43167428119E+02  0.51100000000E-03 0. -1.
        -11    1    3    3    0    0  0.33239306988E+00 -0.53630652953E+01  0.50345522234E+01  0.73634007677E+01  0.51100000000E-03 0.  1.
        -12    1    3    3    0    0  0.29113003477E+02 -0.26658728676E+02  0.40217447691E+00  0.39476784701E+02  0.00000000000E+00 0.  1.
</event>
<event>
 7    1  0.2084210E-015  0.9000772E+02  0.7816164E-02  0.1186339E+00
        -11   -1    0    0    0    0  0.00000000000E+00  0.00000000000E+00  0.45593999997E+02  0.45594000000E+02  0.51100000000E-03 0.  1.
         11   -1    0    0    0    0 -0.00000000000E+00 -0.00000000000E+00 -0.45593999997E+02  0.45594000000E+02  0.51100000000E-03 0. -1.
    9900012    2    1    2    0    0 -0.21963188390E+00  0.50811417667E+00  0.10424199322E+01  0.90007721433E+02  0.89999982556E+02 0.  0.
         12    1    1    2    0    0  0.21963188390E+00 -0.50811417667E+00 -0.10424199322E+01  0.11802785671E+01  0.00000000000E+00 0. -1.
         11    1    3    3    0    0  0.31868541532E+01 -0.81005371745E+00  0.69093699178E+01  0.76519029882E+01  0.51100000000E-03 0. -1.
        -11    1    3    3    0    0 -0.16668372156E+02  0.36475289137E+02 -0.16407734218E+02  0.43330071433E+02  0.51100000000E-03 0.  1.
         12    1    3    3    0    0  0.13261886119E+02 -0.35157121243E+02  0.10540784233E+02  0.39025747011E+02  0.00000000000E+00 0. -1.
</event>
<event>
 7    1  0.2084210E-015  0.9000780E+02  0.7816164E-02  0.1186339E+00
        -11   -1    0    0    0    0  0.00000000000E+00  0.00000000000E+00  0.45593999997E+02  0.45594000000E+02  0.51100000000E-03 0.  1.
         11   -1    0    0    0    0 -0.00000000000E+00 -0.00000000000E+00 -0.45593999997E+02  0.45594000000E+02  0.51100000000E-03 0. -1.
    9900012    2    1    2    0    0  0.92732558596E+00 -0.52823232893E+00  0.50390518767E+00  0.90007795537E+02  0.90000057638E+02 0.  0.
         12    1    1    2    0    0 -0.92732558596E+00  0.52823232893E+00 -0.50390518767E+00  0.11802044627E+01  0.00000000000E+00 0. -1.
         11    1    3    3    0    0  0.27964308884E+01  0.89158269596E+00 -0.86348023099E+01  0.91200195509E+01  0.51100000000E-03 0. -1.
        -11    1    3    3    0    0  0.12048268032E+02  0.36975271612E+02 -0.63906758924E+00  0.38893956870E+02  0.51100000000E-03 0.  1.
         12    1    3    3    0    0 -0.13917373335E+02 -0.38395086636E+02  0.97777750868E+01  0.41993819117E+02  0.00000000000E+00 0. -1.
</event>
<event>
 7    1  0.2084210E-015  0.9000809E+02  0.7816164E-02  0.1186338E+00
        -11   -1    0    0    0    0  0.00000000000E+00  0.00000000000E+00  0.45593999997E+02  0.45594000000E+02  0.51100000000E-03 0. -1.
         11   -1    0    0    0    0 -0.00000000000E+00 -0.00000000000E+00 -0.45593999997E+02  0.45594000000E+02  0.51100000000E-03 0.  1.
    9900012    2    1    2    0    0 -0.11194994836E+01  0.37133154960E+00  0.31780941345E-01  0.90008094817E+02  0.90000360867E+02 0.  0.
         12    1    1    2    0    0  0.11194994836E+01 -0.37133154960E+00 -0.31780941345E-01  0.11799051834E+01  0.00000000000E+00 0. -1.
         11    1    3    3    0    0 -0.37244726251E+02 -0.14321306468E+02 -0.15187046735E+02  0.42695618525E+02  0.51100000000E-03 0. -1.
        -11    1    3    3    0    0  0.53979626974E+01 -0.56271287520E+01  0.11634666071E+01  0.78839225060E+01  0.51100000000E-03 0.  1.
        -12    1    3    3    0    0  0.30727264070E+02  0.20319766770E+02  0.14055361069E+02  0.39428553785E+02  0.00000000000E+00 0.  1.
</event>
<event>
 7    1  0.2084210E-015  0.9000846E+02  0.7816164E-02  0.1186338E+00
        -11   -1    0    0    0    0  0.00000000000E+00  0.00000000000E+00  0.45593999997E+02  0.45594000000E+02  0.51100000000E-03 0.  1.
         11   -1    0    0    0    0 -0.00000000000E+00 -0.00000000000E+00 -0.45593999997E+02  0.45594000000E+02  0.51100000000E-03 0. -1.
    9900012    2    1    2    0    0  0.22324697938E+00  0.10401463090E+01 -0.50947798982E+00  0.90008461370E+02  0.90000732257E+02 0.  0.
         12    1    1    2    0    0 -0.22324697938E+00 -0.10401463090E+01  0.50947798982E+00  0.11795386302E+01  0.00000000000E+00 0. -1.
         11    1    3    3    0    0 -0.41201049292E+01  0.44785223018E+01  0.79684541211E+01  0.10026399552E+02  0.51100000000E-03 0. -1.
        -11    1    3    3    0    0  0.20630273002E+02 -0.24410248267E+02  0.22571187966E+02  0.39127061109E+02  0.51100000000E-03 0.  1.
         12    1    3    3    0    0 -0.16286921093E+02  0.20971872274E+02 -0.31049120077E+02  0.40855000709E+02  0.00000000000E+00 0. -1.
</event>
<event>
 7    1  0.2084210E-015  0.9000774E+02  0.7816164E-02  0.1186339E+00
        -11   -1    0    0    0    0  0.00000000000E+00  0.00000000000E+00  0.45593999997E+02  0.45594000000E+02  0.51100000000E-03 0. -1.
         11   -1    0    0    0    0 -0.00000000000E+00 -0.00000000000E+00 -0.45593999997E+02  0.45594000000E+02  0.51100000000E-03 0.  1.
    9900012    2    1    2    0    0 -0.35673240457E-01  0.68180312009E+00 -0.96274323613E+00  0.90007744683E+02  0.90000006113E+02 0.  0.
         12    1    1    2    0    0  0.35673240457E-01 -0.68180312009E+00  0.96274323613E+00  0.11802553170E+01  0.00000000000E+00 0. -1.
         11    1    3    3    0    0 -0.90228626662E+01  0.60123653595E+00 -0.35214403384E+01  0.97043329695E+01  0.51100000000E-03 0. -1.
        -11    1    3    3    0    0 -0.21365259443E+02 -0.24873927926E+02 -0.16414156883E+02  0.36668939826E+02  0.51100000000E-03 0.  1.
         12    1    3    3    0    0  0.30352448869E+02  0.24954494510E+02  0.18972853985E+02  0.43634471888E+02  0.00000000000E+00 0. -1.
</event>
<event>
 7    1  0.2084210E-015  0.9000783E+02  0.7816164E-02  0.1186339E+00
        -11   -1    0    0    0    0  0.00000000000E+00  0.00000000000E+00  0.45593999997E+02  0.45594000000E+02  0.51100000000E-03 0. -1.
         11   -1    0    0    0    0 -0.00000000000E+00 -0.00000000000E+00 -0.45593999997E+02  0.45594000000E+02  0.51100000000E-03 0.  1.
    9900012    2    1    2    0    0 -0.10598873424E+00 -0.44593419769E+00 -0.10875281518E+01  0.90007826961E+02  0.90000089477E+02 0.  0.
         12    1    1    2    0    0  0.10598873424E+00  0.44593419769E+00  0.10875281518E+01  0.11801730388E+01  0.00000000000E+00 0. -1.
         11    1    3    3    0    0 -0.67787081420E+01  0.52652162464E+01 -0.28504960086E+02  0.29769214567E+02  0.51100000000E-03 0. -1.
        -11    1    3    3    0    0  0.13205097903E+02 -0.60949061281E+01 -0.12871591830E+02  0.19421646888E+02  0.51100000000E-03 0.  1.
         12    1    3    3    0    0 -0.65323784950E+01  0.38375568406E+00  0.40289023764E+02  0.40816965506E+02  0.00000000000E+00 0. -1.
</event>
<event>
 7    1  0.2084210E-015  0.9000772E+02  0.7816164E-02  0.1186339E+00
        -11   -1    0    0    0    0  0.00000000000E+00  0.00000000000E+00  0.45593999997E+02  0.45594000000E+02  0.51100000000E-03 0.  1.
         11   -1    0    0    0    0 -0.00000000000E+00 -0.00000000000E+00 -0.45593999997E+02  0.45594000000E+02  0.51100000000E-03 0. -1.
    9900012    2    1    2    0    0  0.73353154171E+00  0.68307452702E+00 -0.62322413956E+00  0.90007717127E+02  0.89999978193E+02 0.  0.
         12    1    1    2    0    0 -0.73353154171E+00 -0.68307452702E+00  0.62322413956E+00  0.11802828730E+01  0.00000000000E+00 0. -1.
         11    1    3    3    0    0 -0.27383510760E+01 -0.68289517449E+01  0.60703724306E+01  0.95384784036E+01  0.51100000000E-03 0. -1.
        -11    1    3    3    0    0  0.16861830448E+02 -0.22129859489E+02  0.23251001556E+02  0.36258255345E+02  0.51100000000E-03 0.  1.
         12    1    3    3    0    0 -0.13389947831E+02  0.29641885761E+02 -0.29944598126E+02  0.44210983378E+02  0.00000000000E+00 0. -1.
</event>
<event>
 7    1  0.2084210E-015  0.9000774E+02  0.7816164E-02  0.1186339E+00
        -11   -1    0    0    0    0  0.00000000000E+00  0.00000000000E+00  0.45593999997E+02  0.45594000000E+02  0.51100000000E-03 0.  1.
         11   -1    0    0    0    0 -0.00000000000E+00 -0.00000000000E+00 -0.45593999997E+02  0.45594000000E+02  0.51100000000E-03 0. -1.
    9900012    2    1    2    0    0  0.34754929397E+00 -0.10048601276E+01  0.51232851412E+00  0.90007739480E+02  0.90000000842E+02 0.  0.
         12    1    1    2    0    0 -0.34754929397E+00  0.10048601276E+01 -0.51232851412E+00  0.11802605196E+01  0.00000000000E+00 0. -1.
         11    1    3    3    0    0 -0.46905085081E+01 -0.40981200955E+01  0.10176907941E+02  0.11931676910E+02  0.51100000000E-03 0. -1.
        -11    1    3    3    0    0  0.23997122767E+02 -0.24015525903E+02  0.14695253035E+02  0.36994024484E+02  0.51100000000E-03 0.  1.
         12    1    3    3    0    0 -0.18959064965E+02  0.27108785871E+02 -0.24359832462E+02  0.41082038086E+02  0.00000000000E+00 0. -1.
</event>
<event>
 7    1  0.2084210E-015  0.9000774E+02  0.7816164E-02  0.1186339E+00
        -11   -1    0    0    0    0  0.00000000000E+00  0.00000000000E+00  0.45593999997E+02  0.45594000000E+02  0.51100000000E-03 0.  1.
         11   -1    0    0    0    0 -0.00000000000E+00 -0.00000000000E+00 -0.45593999997E+02  0.45594000000E+02  0.51100000000E-03 0. -1.
    9900012    2    1    2    0    0  0.24115981989E+00 -0.59985554536E+00  0.98743540499E+00  0.90007740108E+02  0.90000001477E+02 0.  0.
         12    1    1    2    0    0 -0.24115981989E+00  0.59985554536E+00 -0.98743540499E+00  0.11802598922E+01  0.00000000000E+00 0. -1.
         11    1    3    3    0    0 -0.52898962793E+01 -0.25944879677E+02 -0.30316226802E+02  0.40251625953E+02  0.51100000000E-03 0. -1.
        -11    1    3    3    0    0 -0.45373927853E+01  0.60270771476E+01 -0.37963705221E+01  0.84454734404E+01  0.51100000000E-03 0.  1.
        -12    1    3    3    0    0  0.10068448884E+02  0.19317946984E+02  0.35100032729E+02  0.41310640714E+02  0.00000000000E+00 0.  1.
</event>
<event>
 7    1  0.2084210E-015  0.9000775E+02  0.7816164E-02  0.1186339E+00
        -11   -1    0    0    0    0  0.00000000000E+00  0.00000000000E+00  0.45593999997E+02  0.45594000000E+02  0.51100000000E-03 0.  1.
         11   -1    0    0    0    0 -0.00000000000E+00 -0.00000000000E+00 -0.45593999997E+02  0.45594000000E+02  0.51100000000E-03 0. -1.
    9900012    2    1    2    0    0 -0.94026156019E+00 -0.27245050076E+00  0.65930199362E+00  0.90007745707E+02  0.90000007151E+02 0.  0.
         12    1    1    2    0    0  0.94026156019E+00  0.27245050076E+00 -0.65930199362E+00  0.11802542928E+01  0.00000000000E+00 0. -1.
         11    1    3    3    0    0 -0.99894191889E+00  0.30925881911E+01  0.10120135950E+02  0.10629164529E+02  0.51100000000E-03 0. -1.
        -11    1    3    3    0    0  0.27395708194E+02 -0.23358067200E+02 -0.23200566922E+02  0.42829784456E+02  0.51100000000E-03 0.  1.
         12    1    3    3    0    0 -0.27337027836E+02  0.19993028509E+02  0.13739732965E+02  0.36548796722E+02  0.00000000000E+00 0. -1.
</event>
<event>
 7    1  0.2084210E-015  0.9000771E+02  0.7816164E-02  0.1186339E+00
        -11   -1    0    0    0    0  0.00000000000E+00  0.00000000000E+00  0.45593999997E+02  0.45594000000E+02  0.51100000000E-03 0.  1.
         11   -1    0    0    0    0 -0.00000000000E+00 -0.00000000000E+00 -0.45593999997E+02  0.45594000000E+02  0.51100000000E-03 0. -1.
    9900012    2    1    2    0    0 -0.89078331645E+00  0.24603903461E+00  0.73420708426E+00  0.90007707593E+02  0.89999968533E+02 0.  0.
         12    1    1    2    0    0  0.89078331645E+00 -0.24603903461E+00 -0.73420708426E+00  0.11802924070E+01  0.00000000000E+00 0. -1.
         11    1    3    3    0    0  0.32335965048E+02 -0.15354350950E+02 -0.35335040492E-01  0.35796256473E+02  0.51100000000E-03 0. -1.
        -11    1    3    3    0    0  0.62487493427E+01 -0.64353626082E+01  0.75911071341E+00  0.90020558531E+01  0.51100000000E-03 0.  1.
        -12    1    3    3    0    0 -0.39475497707E+02  0.22035752593E+02  0.10431411345E-01  0.45209395267E+02  0.00000000000E+00 0.  1.
</event>
<event>
 7    1  0.2084210E-015  0.9000768E+02  0.7816164E-02  0.1186339E+00
        -11   -1    0    0    0    0  0.00000000000E+00  0.00000000000E+00  0.45593999997E+02  0.45594000000E+02  0.51100000000E-03 0.  1.
         11   -1    0    0    0    0 -0.00000000000E+00 -0.00000000000E+00 -0.45593999997E+02  0.45594000000E+02  0.51100000000E-03 0. -1.
    9900012    2    1    2    0    0  0.10930039560E+01 -0.19637339450E+00 -0.39992517111E+00  0.90007677883E+02  0.89999938431E+02 0.  0.
         12    1    1    2    0    0 -0.10930039560E+01  0.19637339450E+00  0.39992517111E+00  0.11803221172E+01  0.00000000000E+00 0. -1.
         11    1    3    3    0    0 -0.69224418299E+00  0.61210802055E+01 -0.43581037819E+01  0.75458527500E+01  0.51100000000E-03 0. -1.
        -11    1    3    3    0    0 -0.13793487032E+02  0.33661603229E+02 -0.93091957090E+01  0.37550298820E+02  0.51100000000E-03 0.  1.
         12    1    3    3    0    0  0.15578735171E+02 -0.39979056829E+02  0.13267374320E+02  0.44911526313E+02  0.00000000000E+00 0. -1.
</event>
<event>
 7    1  0.2084210E-015  0.9000807E+02  0.7816164E-02  0.1186338E+00
        -11   -1    0    0    0    0  0.00000000000E+00  0.00000000000E+00  0.45593999997E+02  0.45594000000E+02  0.51100000000E-03 0. -1.
         11   -1    0    0    0    0 -0.00000000000E+00 -0.00000000000E+00 -0.45593999997E+02  0.45594000000E+02  0.51100000000E-03 0.  1.
    9900012    2    1    2    0    0  0.49578195178E+00  0.22681708732E+00 -0.10464132310E+01  0.90008073568E+02  0.90000339338E+02 0.  0.
         12    1    1    2    0    0 -0.49578195178E+00 -0.22681708732E+00  0.10464132310E+01  0.11799264320E+01  0.00000000000E+00 0. -1.
         11    1    3    3    0    0 -0.18079721387E+02  0.21358663715E+02  0.10040025909E+02  0.29729967401E+02  0.51100000000E-03 0. -1.
        -11    1    3    3    0    0 -0.16091054492E+02 -0.11120804361E+02  0.58525735238E+01  0.20416829857E+02  0.51100000000E-03 0.  1.
         12    1    3    3    0    0  0.34666557831E+02 -0.10011042267E+02 -0.16939012664E+02  0.39861276311E+02  0.00000000000E+00 0. -1.
</event>
<event>
 7    1  0.2084210E-015  0.9000774E+02  0.7816164E-02  0.1186339E+00
        -11   -1    0    0    0    0  0.00000000000E+00  0.00000000000E+00  0.45593999997E+02  0.45594000000E+02  0.51100000000E-03 0.  1.
         11   -1    0    0    0    0 -0.00000000000E+00 -0.00000000000E+00 -0.45593999997E+02  0.45594000000E+02  0.51100000000E-03 0. -1.
    9900012    2    1    2    0    0  0.88627394817E+00 -0.52956326420E+00  0.57192661681E+00  0.90007737819E+02  0.89999999158E+02 0.  0.
         12    1    1    2    0    0 -0.88627394817E+00  0.52956326420E+00 -0.57192661681E+00  0.11802621815E+01  0.00000000000E+00 0. -1.
         11    1    3    3    0    0 -0.12887256036E+02 -0.30016365268E+02  0.96312118165E+01  0.34056185831E+02  0.51100000000E-03 0. -1.
        -11    1    3    3    0    0  0.25244896634E+01 -0.10358634600E+02  0.55838034128E+01  0.12035498313E+02  0.51100000000E-03 0.  1.
        -12    1    3    3    0    0  0.11249040321E+02  0.39845436603E+02 -0.14643088613E+02  0.43916053675E+02  0.00000000000E+00 0.  1.
</event>
<event>
 7    1  0.2084210E-015  0.9000772E+02  0.7816164E-02  0.1186339E+00
        -11   -1    0    0    0    0  0.00000000000E+00  0.00000000000E+00  0.45593999997E+02  0.45594000000E+02  0.51100000000E-03 0.  1.
         11   -1    0    0    0    0 -0.00000000000E+00 -0.00000000000E+00 -0.45593999997E+02  0.45594000000E+02  0.51100000000E-03 0. -1.
    9900012    2    1    2    0    0 -0.81021491220E+00  0.12052918461E+00  0.84975745253E+00  0.90007719010E+02  0.89999980100E+02 0.  0.
         12    1    1    2    0    0  0.81021491220E+00 -0.12052918461E+00 -0.84975745253E+00  0.11802809905E+01  0.00000000000E+00 0. -1.
         11    1    3    3    0    0  0.21280349393E-01 -0.94991495785E+01 -0.15032037661E+01  0.96173758059E+01  0.51100000000E-03 0. -1.
        -11    1    3    3    0    0  0.37929029637E+02  0.12959719448E+02 -0.61957293582E+01  0.40558016222E+02  0.51100000000E-03 0.  1.
         12    1    3    3    0    0 -0.38760524898E+02 -0.33400406853E+01  0.85486905768E+01  0.39832326981E+02  0.00000000000E+00 0. -1.
</event>
<event>
 7    1  0.2084210E-015  0.9000753E+02  0.7816164E-02  0.1186339E+00
        -11   -1    0    0    0    0  0.00000000000E+00  0.00000000000E+00  0.45593999997E+02  0.45594000000E+02  0.51100000000E-03 0. -1.
         11   -1    0    0    0    0 -0.00000000000E+00 -0.00000000000E+00 -0.45593999997E+02  0.45594000000E+02  0.51100000000E-03 0.  1.
    9900012    2    1    2    0    0  0.55310866974E+00  0.74802544189E+00 -0.72665588012E+00  0.90007533977E+02  0.89999792626E+02 0.  0.
         12    1    1    2    0    0 -0.55310866974E+00 -0.74802544189E+00  0.72665588012E+00  0.11804660225E+01  0.00000000000E+00 0. -1.
         11    1    3    3    0    0  0.39348751477E+01 -0.54854446318E+01 -0.55422331805E+01  0.87343971815E+01  0.51100000000E-03 0. -1.
        -11    1    3    3    0    0 -0.14715526349E+02 -0.34254125818E+02 -0.62400118226E+01  0.37799862422E+02  0.51100000000E-03 0.  1.
         12    1    3    3    0    0  0.11333759871E+02  0.40487595892E+02  0.11055589123E+02  0.43473274374E+02  0.00000000000E+00 0. -1.
</event>
<event>
 7    1  0.2084210E-015  0.9000771E+02  0.7816164E-02  0.1186339E+00
        -11   -1    0    0    0    0  0.00000000000E+00  0.00000000000E+00  0.45593999997E+02  0.45594000000E+02  0.51100000000E-03 0.  1.
         11   -1    0    0    0    0 -0.00000000000E+00 -0.00000000000E+00 -0.45593999997E+02  0.45594000000E+02  0.51100000000E-03 0. -1.
    9900012    2    1    2    0    0 -0.79634955217E+00  0.28989196554E+00  0.82151249648E+00  0.90007706501E+02  0.89999967427E+02 0.  0.
         12    1    1    2    0    0  0.79634955217E+00 -0.28989196554E+00 -0.82151249648E+00  0.11802934986E+01  0.00000000000E+00 0. -1.
         11    1    3    3    0    0 -0.10523752886E+02  0.19646461669E+01 -0.34662278652E+01  0.11252730568E+02  0.51100000000E-03 0. -1.
        -11    1    3    3    0    0 -0.13909163572E+02  0.16481845955E+02  0.31646847652E+02  0.38296723671E+02  0.51100000000E-03 0.  1.
         12    1    3    3    0    0  0.23636566906E+02 -0.18156600157E+02 -0.27359107291E+02  0.40458252262E+02  0.00000000000E+00 0. -1.
</event>
<event>
 7    1  0.2084210E-015  0.9000771E+02  0.7816164E-02  0.1186339E+00
        -11   -1    0    0    0    0  0.00000000000E+00  0.00000000000E+00  0.45593999997E+02  0.45594000000E+02  0.51100000000E-03 0. -1.
         11   -1    0    0    0    0 -0.00000000000E+00 -0.00000000000E+00 -0.45593999997E+02  0.45594000000E+02  0.51100000000E-03 0.  1.
    9900012    2    1    2    0    0  0.85986579016E-01 -0.11697249524E+01  0.13207783834E+00  0.90007705667E+02  0.89999966582E+02 0.  0.
         12    1    1    2    0    0 -0.85986579016E-01  0.11697249524E+01 -0.13207783834E+00  0.11802943326E+01  0.00000000000E+00 0. -1.
         11    1    3    3    0    0 -0.80083974308E+01  0.13720214674E+01  0.40603359363E+01  0.90831272419E+01  0.51100000000E-03 0. -1.
        -11    1    3    3    0    0 -0.14722531580E+02 -0.14613004142E+02 -0.34904210377E+02  0.40602915270E+02  0.51100000000E-03 0.  1.
         12    1    3    3    0    0  0.22816915590E+02  0.12071257722E+02  0.30975952279E+02  0.40321663155E+02  0.00000000000E+00 0. -1.
</event>
<event>
 7    1  0.2084210E-015  0.9000776E+02  0.7816164E-02  0.1186339E+00
        -11   -1    0    0    0    0  0.00000000000E+00  0.00000000000E+00  0.45593999997E+02  0.45594000000E+02  0.51100000000E-03 0. -1.
         11   -1    0    0    0    0 -0.00000000000E+00 -0.00000000000E+00 -0.45593999997E+02  0.45594000000E+02  0.51100000000E-03 0.  1.
    9900012    2    1    2    0    0  0.91265033278E+00  0.60343252484E+00 -0.44260412405E+00  0.90007762798E+02  0.90000024467E+02 0.  0.
         12    1    1    2    0    0 -0.91265033278E+00 -0.60343252484E+00  0.44260412405E+00  0.11802372018E+01  0.00000000000E+00 0. -1.
         11    1    3    3    0    0 -0.19644239441E+02  0.91220665345E+01  0.35757806596E+02  0.41805848561E+02  0.51100000000E-03 0. -1.
        -11    1    3    3    0    0  0.30584666432E+01 -0.10285042877E+02 -0.38872609747E+01  0.11412586181E+02  0.51100000000E-03 0.  1.
        -12    1    3    3    0    0  0.17498423130E+02  0.17664088676E+01 -0.32313149746E+02  0.36789328056E+02  0.00000000000E+00 0.  1.
</event>
<event>
 7    1  0.2084210E-015  0.9000776E+02  0.7816164E-02  0.1186339E+00
        -11   -1    0    0    0    0  0.00000000000E+00  0.00000000000E+00  0.45593999997E+02  0.45594000000E+02  0.51100000000E-03 0.  1.
         11   -1    0    0    0    0 -0.00000000000E+00 -0.00000000000E+00 -0.45593999997E+02  0.45594000000E+02  0.51100000000E-03 0. -1.
    9900012    2    1    2    0    0  0.60778824486E+00  0.67437918818E+00  0.75416797424E+00  0.90007761391E+02  0.90000023042E+02 0.  0.
         12    1    1    2    0    0 -0.60778824486E+00 -0.67437918818E+00 -0.75416797424E+00  0.11802386087E+01  0.00000000000E+00 0. -1.
         11    1    3    3    0    0 -0.59319868337E+01 -0.33708860091E+01  0.68633480525E+01  0.96776488380E+01  0.51100000000E-03 0. -1.
        -11    1    3    3    0    0 -0.61973986407E+01  0.21310133047E+02  0.30606182216E+02  0.37805659768E+02  0.51100000000E-03 0.  1.
         12    1    3    3    0    0  0.12737173719E+02 -0.17264867850E+02 -0.36715362295E+02  0.42524452785E+02  0.00000000000E+00 0. -1.
</event>
<event>
 7    1  0.2084210E-015  0.9000769E+02  0.7816164E-02  0.1186339E+00
        -11   -1    0    0    0    0  0.00000000000E+00  0.00000000000E+00  0.45593999997E+02  0.45594000000E+02  0.51100000000E-03 0.  1.
         11   -1    0    0    0    0 -0.00000000000E+00 -0.00000000000E+00 -0.45593999997E+02  0.45594000000E+02  0.51100000000E-03 0. -1.
    9900012    2    1    2    0    0 -0.96739802908E+00  0.17979918763E+00  0.65188094646E+00  0.90007688404E+02  0.89999949091E+02 0.  0.
         12    1    1    2    0    0  0.96739802908E+00 -0.17979918763E+00 -0.65188094646E+00  0.11803115957E+01  0.00000000000E+00 0. -1.
         11    1    3    3    0    0  0.22674192921E+01 -0.55716306416E+01  0.83583500778E+01  0.10297877186E+02  0.51100000000E-03 0. -1.
        -11    1    3    3    0    0 -0.40692429042E+02  0.43080754639E+01  0.20644595597E+01  0.40971884129E+02  0.51100000000E-03 0.  1.
         12    1    3    3    0    0  0.37457611721E+02  0.14433543654E+01 -0.97709286911E+01  0.38737927089E+02  0.00000000000E+00 0. -1.
</event>
<event>
 7    1  0.2084210E-015  0.9000780E+02  0.7816164E-02  0.1186339E+00
        -11   -1    0    0    0    0  0.00000000000E+00  0.00000000000E+00  0.45593999997E+02  0.45594000000E+02  0.51100000000E-03 0. -1.
         11   -1    0    0    0    0 -0.00000000000E+00 -0.00000000000E+00 -0.45593999997E+02  0.45594000000E+02  0.51100000000E-03 0.  1.
    9900012    2    1    2    0    0  0.99775405056E+00 -0.26798590017E+00  0.57057106545E+00  0.90007796234E+02  0.90000058344E+02 0.  0.
         12    1    1    2    0    0 -0.99775405056E+00  0.26798590017E+00 -0.57057106545E+00  0.11802037658E+01  0.00000000000E+00 0. -1.
         11    1    3    3    0    0 -0.74760143523E+01 -0.34657209523E+02  0.13290434331E+02  0.37863552494E+02  0.51100000000E-03 0. -1.
        -11    1    3    3    0    0 -0.32250970185E+01 -0.61176215101E+01 -0.65640229843E+01  0.95348278285E+01  0.51100000000E-03 0.  1.
        -12    1    3    3    0    0  0.11698865421E+02  0.40506845133E+02 -0.61558402816E+01  0.42609415912E+02  0.00000000000E+00 0.  1.
</event>
<event>
 7    1  0.2084210E-015  0.9000783E+02  0.7816164E-02  0.1186339E+00
        -11   -1    0    0    0    0  0.00000000000E+00  0.00000000000E+00  0.45593999997E+02  0.45594000000E+02  0.51100000000E-03 0.  1.
         11   -1    0    0    0    0 -0.00000000000E+00 -0.00000000000E+00 -0.45593999997E+02  0.45594000000E+02  0.51100000000E-03 0. -1.
    9900012    2    1    2    0    0 -0.88758637854E+00  0.23023594880E+00  0.74295091020E+00  0.90007832967E+02  0.90000095562E+02 0.  0.
         12    1    1    2    0    0  0.88758637854E+00 -0.23023594880E+00 -0.74295091020E+00  0.11801670333E+01  0.00000000000E+00 0. -1.
         11    1    3    3    0    0  0.10101081416E+02  0.59684047613E-01  0.50614087066E+00  0.10113930334E+02  0.51100000000E-03 0. -1.
        -11    1    3    3    0    0  0.22870621980E+02  0.23111421068E+02  0.15779173756E+02  0.36141187836E+02  0.51100000000E-03 0.  1.
         12    1    3    3    0    0 -0.33859289774E+02 -0.22940869167E+02 -0.15542363717E+02  0.43752714796E+02  0.00000000000E+00 0. -1.
</event>
<event>
 7    1  0.2084210E-015  0.9000772E+02  0.7816164E-02  0.1186339E+00
        -11   -1    0    0    0    0  0.00000000000E+00  0.00000000000E+00  0.45593999997E+02  0.45594000000E+02  0.51100000000E-03 0.  1.
         11   -1    0    0    0    0 -0.00000000000E+00 -0.00000000000E+00 -0.45593999997E+02  0.45594000000E+02  0.51100000000E-03 0. -1.
    9900012    2    1    2    0    0 -0.68166735129E-01  0.11533698046E+01 -0.24114999218E+00  0.90007719555E+02  0.89999980653E+02 0.  0.
         12    1    1    2    0    0  0.68166735129E-01 -0.11533698046E+01  0.24114999218E+00  0.11802804450E+01  0.00000000000E+00 0. -1.
         11    1    3    3    0    0  0.17834186508E+01  0.94926560336E+01  0.46444988464E+01  0.10717391028E+02  0.51100000000E-03 0. -1.
        -11    1    3    3    0    0 -0.34581486226E+02  0.96138783997E+01 -0.17439665319E+02  0.39905485516E+02  0.51100000000E-03 0.  1.
         12    1    3    3    0    0  0.32729900841E+02 -0.17953164629E+02  0.12554016481E+02  0.39384843011E+02  0.00000000000E+00 0. -1.
</event>
<event>
 7    1  0.2084210E-015  0.9000774E+02  0.7816164E-02  0.1186339E+00
        -11   -1    0    0    0    0  0.00000000000E+00  0.00000000000E+00  0.45593999997E+02  0.45594000000E+02  0.51100000000E-03 0. -1.
         11   -1    0    0    0    0 -0.00000000000E+00 -0.00000000000E+00 -0.45593999997E+02  0.45594000000E+02  0.51100000000E-03 0.  1.
    9900012    2    1    2    0    0 -0.48995009293E+00 -0.94451853006E+00 -0.51074186748E+00  0.90007735791E+02  0.89999997104E+02 0.  0.
         12    1    1    2    0    0  0.48995009293E+00  0.94451853006E+00  0.51074186748E+00  0.11802642087E+01  0.00000000000E+00 0. -1.
         11    1    3    3    0    0  0.81475230432E+01 -0.24236079615E+02  0.26965694894E+02  0.37160710277E+02  0.51100000000E-03 0. -1.
        -11    1    3    3    0    0  0.30691969893E+01 -0.72208259134E+01  0.27666644167E+01  0.83195390068E+01  0.51100000000E-03 0.  1.
        -12    1    3    3    0    0 -0.11706670125E+02  0.30512386999E+02 -0.30243101179E+02  0.44527486508E+02  0.00000000000E+00 0.  1.
</event>
<event>
 7    1  0.2084210E-015  0.9000767E+02  0.7816164E-02  0.1186339E+00
        -11   -1    0    0    0    0  0.00000000000E+00  0.00000000000E+00  0.45593999997E+02  0.45594000000E+02  0.51100000000E-03 0. -1.
         11   -1    0    0    0    0 -0.00000000000E+00 -0.00000000000E+00 -0.45593999997E+02  0.45594000000E+02  0.51100000000E-03 0.  1.
    9900012    2    1    2    0    0  0.84815921706E+00  0.49200051903E+00 -0.65706799905E+00  0.90007670841E+02  0.89999931296E+02 0.  0.
         12    1    1    2    0    0 -0.84815921706E+00 -0.49200051903E+00  0.65706799905E+00  0.11803291590E+01  0.00000000000E+00 0. -1.
         11    1    3    3    0    0  0.36099284243E+01  0.95232847242E+01  0.51596181377E+00  0.10197585598E+02  0.51100000000E-03 0. -1.
        -11    1    3    3    0    0  0.81150067981E+01  0.32662947169E+02 -0.11380487128E+02  0.35527974058E+02  0.51100000000E-03 0.  1.
         12    1    3    3    0    0 -0.10876776005E+02 -0.41694231375E+02  0.10207457315E+02  0.44282111185E+02  0.00000000000E+00 0. -1.
</event>
<event>
 7    1  0.2084210E-015  0.9000769E+02  0.7816164E-02  0.1186339E+00
        -11   -1    0    0    0    0  0.00000000000E+00  0.00000000000E+00  0.45593999997E+02  0.45594000000E+02  0.51100000000E-03 0. -1.
         11   -1    0    0    0    0 -0.00000000000E+00 -0.00000000000E+00 -0.45593999997E+02  0.45594000000E+02  0.51100000000E-03 0.  1.
    9900012    2    1    2    0    0  0.31812753983E+00  0.13248089218E+00 -0.11288835779E+01  0.90007688833E+02  0.89999949526E+02 0.  0.
         12    1    1    2    0    0 -0.31812753983E+00 -0.13248089218E+00  0.11288835779E+01  0.11803111670E+01  0.00000000000E+00 0. -1.
         11    1    3    3    0    0 -0.68199889206E+00  0.37224528394E+01  0.10437341805E+02  0.11102246702E+02  0.51100000000E-03 0. -1.
        -11    1    3    3    0    0  0.31932047938E+02  0.37781617433E+01 -0.28423050838E+02  0.42916197535E+02  0.51100000000E-03 0.  1.
         12    1    3    3    0    0 -0.30931921506E+02 -0.73681336906E+01  0.16856825455E+02  0.35989244596E+02  0.00000000000E+00 0. -1.
</event>
<event>
 7    1  0.2084210E-015  0.9000774E+02  0.7816164E-02  0.1186339E+00
        -11   -1    0    0    0    0  0.00000000000E+00  0.00000000000E+00  0.45593999997E+02  0.45594000000E+02  0.51100000000E-03 0.  1.
         11   -1    0    0    0    0 -0.00000000000E+00 -0.00000000000E+00 -0.45593999997E+02  0.45594000000E+02  0.51100000000E-03 0. -1.
    9900012    2    1    2    0    0  0.15249602877E+00  0.10596237596E+01  0.49694062142E+00  0.90007742599E+02  0.90000004002E+02 0.  0.
         12    1    1    2    0    0 -0.15249602877E+00 -0.10596237596E+01 -0.49694062142E+00  0.11802574007E+01  0.00000000000E+00 0. -1.
         11    1    3    3    0    0  0.11852510352E+01 -0.14447985432E+01 -0.95878949484E+01  0.97683157530E+01  0.51100000000E-03 0. -1.
        -11    1    3    3    0    0 -0.29693596981E+01 -0.35872438613E+02 -0.93340447373E+01  0.37185660415E+02  0.51100000000E-03 0.  1.
         12    1    3    3    0    0  0.19366046917E+01  0.38376860916E+02  0.19418880307E+02  0.43053766431E+02  0.00000000000E+00 0. -1.
</event>
<event>
 7    1  0.2084210E-015  0.9000771E+02  0.7816164E-02  0.1186339E+00
        -11   -1    0    0    0    0  0.00000000000E+00  0.00000000000E+00  0.45593999997E+02  0.45594000000E+02  0.51100000000E-03 0.  1.
         11   -1    0    0    0    0 -0.00000000000E+00 -0.00000000000E+00 -0.45593999997E+02  0.45594000000E+02  0.51100000000E-03 0. -1.
    9900012    2    1    2    0    0 -0.36761625562E+00 -0.83405009852E+00 -0.74987400387E+00  0.90007706689E+02  0.89999967617E+02 0.  0.
         12    1    1    2    0    0  0.36761625562E+00  0.83405009852E+00  0.74987400387E+00  0.11802933110E+01  0.00000000000E+00 0. -1.
         11    1    3    3    0    0  0.44373848542E+01 -0.55563750267E+01 -0.42754903674E+01  0.82971986793E+01  0.51100000000E-03 0. -1.
        -11    1    3    3    0    0  0.30405530419E+02 -0.21163991293E+02  0.76040290538E+01  0.37818409084E+02  0.51100000000E-03 0.  1.
         12    1    3    3    0    0 -0.35210531529E+02  0.25886316221E+02 -0.40784126903E+01  0.43892098926E+02  0.00000000000E+00 0. -1.
</event>
<event>
 7    1  0.2084210E-015  0.9000766E+02  0.7816164E-02  0.1186339E+00
        -11   -1    0    0    0    0  0.00000000000E+00  0.00000000000E+00  0.45593999997E+02  0.45594000000E+02  0.51100000000E-03 0. -1.
         11   -1    0    0    0    0 -0.00000000000E+00 -0.00000000000E+00 -0.45593999997E+02  0.45594000000E+02  0.51100000000E-03 0.  1.
    9900012    2    1    2    0    0 -0.11055431001E+01  0.28582218582E+00 -0.29879739197E+00  0.90007661172E+02  0.89999921499E+02 0.  0.
         12    1    1    2    0    0  0.11055431001E+01 -0.28582218582E+00  0.29879739197E+00  0.11803388283E+01  0.00000000000E+00 0. -1.
         11    1    3    3    0    0 -0.60682629428E+01 -0.62683198539E+01 -0.44800467880E+00  0.87359233849E+01  0.51100000000E-03 0. -1.
        -11    1    3    3    0    0 -0.28069597850E+02  0.76028348485E+00  0.26508615866E+02  0.38615891415E+02  0.51100000000E-03 0.  1.
         12    1    3    3    0    0  0.33032317692E+02  0.57938585548E+01 -0.26359408579E+02  0.42655846372E+02  0.00000000000E+00 0. -1.
</event>
<event>
 7    1  0.2084210E-015  0.9000762E+02  0.7816164E-02  0.1186339E+00
        -11   -1    0    0    0    0  0.00000000000E+00  0.00000000000E+00  0.45593999997E+02  0.45594000000E+02  0.51100000000E-03 0. -1.
         11   -1    0    0    0    0 -0.00000000000E+00 -0.00000000000E+00 -0.45593999997E+02  0.45594000000E+02  0.51100000000E-03 0.  1.
    9900012    2    1    2    0    0 -0.33864955049E+00 -0.89691188266E+00 -0.68860239693E+00  0.90007615442E+02  0.89999875166E+02 0.  0.
         12    1    1    2    0    0  0.33864955049E+00  0.89691188266E+00  0.68860239693E+00  0.11803845578E+01  0.00000000000E+00 0. -1.
         11    1    3    3    0    0  0.16957600139E+02  0.33066072246E+02 -0.87184682735E+01  0.38169844453E+02  0.51100000000E-03 0. -1.
        -11    1    3    3    0    0 -0.10507227184E+01  0.61269996341E+01 -0.34151915430E+01  0.70927904440E+01  0.51100000000E-03 0.  1.
        -12    1    3    3    0    0 -0.16245526971E+02 -0.40089983763E+02  0.11445057420E+02  0.44744980545E+02  0.00000000000E+00 0.  1.
</event>
<event>
 7    1  0.2084210E-015  0.9000774E+02  0.7816164E-02  0.1186339E+00
        -11   -1    0    0    0    0  0.00000000000E+00  0.00000000000E+00  0.45593999997E+02  0.45594000000E+02  0.51100000000E-03 0.  1.
         11   -1    0    0    0    0 -0.00000000000E+00 -0.00000000000E+00 -0.45593999997E+02  0.45594000000E+02  0.51100000000E-03 0. -1.
    9900012    2    1    2    0    0  0.70285082843E+00  0.44489106611E+00  0.83730348149E+00  0.90007743897E+02  0.90000005317E+02 0.  0.
         12    1    1    2    0    0 -0.70285082843E+00 -0.44489106611E+00 -0.83730348149E+00  0.11802561026E+01  0.00000000000E+00 0. -1.
         11    1    3    3    0    0  0.79101638764E+01 -0.98937510663E+01  0.40277640294E+01  0.13292098632E+02  0.51100000000E-03 0. -1.
        -11    1    3    3    0    0 -0.30188293498E+02  0.22776989047E+02  0.19101983789E+02  0.42367559279E+02  0.51100000000E-03 0.  1.
         12    1    3    3    0    0  0.22980980450E+02 -0.12438346915E+02 -0.22292444337E+02  0.34348085986E+02  0.00000000000E+00 0. -1.
</event>
<event>
 7    1  0.2084210E-015  0.9000800E+02  0.7816164E-02  0.1186339E+00
        -11   -1    0    0    0    0  0.00000000000E+00  0.00000000000E+00  0.45593999997E+02  0.45594000000E+02  0.51100000000E-03 0. -1.
         11   -1    0    0    0    0 -0.00000000000E+00 -0.00000000000E+00 -0.45593999997E+02  0.45594000000E+02  0.51100000000E-03 0.  1.
    9900012    2    1    2    0    0  0.17525143745E+00 -0.11666508797E+01 -0.24615152333E-01  0.90008002861E+02  0.90000267699E+02 0.  0.
         12    1    1    2    0    0 -0.17525143745E+00  0.11666508797E+01  0.24615152333E-01  0.11799971387E+01  0.00000000000E+00 0. -1.
         11    1    3    3    0    0 -0.18671524698E+02 -0.21231727971E+02  0.17347471833E+02  0.33171477001E+02  0.51100000000E-03 0. -1.
        -11    1    3    3    0    0 -0.40771483809E+01  0.33163193883E+01  0.13744148097E+02  0.14714711019E+02  0.51100000000E-03 0.  1.
        -12    1    3    3    0    0  0.22923924517E+02  0.16748757703E+02 -0.31116235082E+02  0.42121814841E+02  0.00000000000E+00 0.  1.
</event>
<event>
 7    1  0.2084210E-015  0.9000781E+02  0.7816164E-02  0.1186339E+00
        -11   -1    0    0    0    0  0.00000000000E+00  0.00000000000E+00  0.45593999997E+02  0.45594000000E+02  0.51100000000E-03 0.  1.
         11   -1    0    0    0    0 -0.00000000000E+00 -0.00000000000E+00 -0.45593999997E+02  0.45594000000E+02  0.51100000000E-03 0. -1.
    9900012    2    1    2    0    0  0.56520645754E+00  0.10360371233E+01  0.38329981893E-02  0.90007811052E+02  0.90000073358E+02 0.  0.
         12    1    1    2    0    0 -0.56520645754E+00 -0.10360371233E+01 -0.38329981893E-02  0.11801889478E+01  0.00000000000E+00 0. -1.
         11    1    3    3    0    0  0.11729943763E+02 -0.11685678522E+02 -0.35464817483E+02  0.39139493387E+02  0.51100000000E-03 0. -1.
        -11    1    3    3    0    0 -0.10760744291E+01  0.25905517179E+00 -0.61598788049E+01  0.62585264169E+01  0.51100000000E-03 0.  1.
        -12    1    3    3    0    0 -0.10088662876E+02  0.12462660473E+02  0.41628529286E+02  0.44609791249E+02  0.00000000000E+00 0.  1.
</event>
<event>
 7    1  0.2084210E-015  0.9000767E+02  0.7816164E-02  0.1186339E+00
        -11   -1    0    0    0    0  0.00000000000E+00  0.00000000000E+00  0.45593999997E+02  0.45594000000E+02  0.51100000000E-03 0.  1.
         11   -1    0    0    0    0 -0.00000000000E+00 -0.00000000000E+00 -0.45593999997E+02  0.45594000000E+02  0.51100000000E-03 0. -1.
    9900012    2    1    2    0    0  0.72331017756E-01 -0.63969617922E+00  0.98930619401E+00  0.90007673891E+02  0.89999934386E+02 0.  0.
         12    1    1    2    0    0 -0.72331017756E-01  0.63969617922E+00 -0.98930619401E+00  0.11803261089E+01  0.00000000000E+00 0. -1.
         11    1    3    3    0    0  0.18507545245E+02  0.27322435978E+02  0.20234631542E+02  0.38710270636E+02  0.51100000000E-03 0. -1.
        -11    1    3    3    0    0 -0.10178092721E+02  0.47145109388E+01  0.20876450343E+01  0.11409576981E+02  0.51100000000E-03 0.  1.
        -12    1    3    3    0    0 -0.82571215065E+01 -0.32676643096E+02 -0.21332970382E+02  0.39887826275E+02  0.00000000000E+00 0.  1.
</event>
<event>
 7    1  0.2084330E-015  0.9000766E+02  0.7816164E-02  0.1186339E+00
        -11   -1    0    0    0    0  0.00000000000E+00  0.00000000000E+00  0.45593999997E+02  0.45594000000E+02  0.51100000000E-03 0. -1.
         11   -1    0    0    0    0 -0.00000000000E+00 -0.00000000000E+00 -0.45593999997E+02  0.45594000000E+02  0.51100000000E-03 0.  1.
    9900012    2    1    2    0    0 -0.10546617273E+01  0.50793366655E+00 -0.15127762188E+00  0.90007664079E+02  0.89999924444E+02 0.  0.
         12    1    1    2    0    0  0.10546617273E+01 -0.50793366655E+00  0.15127762188E+00  0.11803359215E+01  0.00000000000E+00 0. -1.
         11    1    3    3    0    0 -0.12638408386E+02 -0.45555852251E+01  0.38409713618E+02  0.40691385130E+02  0.51100000000E-03 0. -1.
        -11    1    3    3    0    0 -0.39342820445E+01  0.85844123469E+01 -0.23023809108E+01  0.97196537319E+01  0.51100000000E-03 0.  1.
        -12    1    3    3    0    0  0.15518028703E+02 -0.35208934552E+01 -0.36258610329E+02  0.39596625217E+02  0.00000000000E+00 0.  1.
</event>
<event>
 7    1  0.2084210E-015  0.9000778E+02  0.7816164E-02  0.1186339E+00
        -11   -1    0    0    0    0  0.00000000000E+00  0.00000000000E+00  0.45593999997E+02  0.45594000000E+02  0.51100000000E-03 0.  1.
         11   -1    0    0    0    0 -0.00000000000E+00 -0.00000000000E+00 -0.45593999997E+02  0.45594000000E+02  0.51100000000E-03 0. -1.
    9900012    2    1    2    0    0  0.12191726613E+00 -0.11220585767E+01  0.34501431631E+00  0.90007782161E+02  0.90000044085E+02 0.  0.
         12    1    1    2    0    0 -0.12191726613E+00  0.11220585767E+01 -0.34501431631E+00  0.11802178391E+01  0.00000000000E+00 0. -1.
         11    1    3    3    0    0 -0.30826882750E+01  0.87360952183E+01 -0.24460047112E+01  0.95815064563E+01  0.51100000000E-03 0. -1.
        -11    1    3    3    0    0 -0.14837850743E+02  0.28205576871E+02 -0.14346116018E+02  0.34950356598E+02  0.51100000000E-03 0.  1.
         12    1    3    3    0    0  0.18042456284E+02 -0.38063730666E+02  0.17137135045E+02  0.45475919106E+02  0.00000000000E+00 0. -1.
</event>
<event>
 7    1  0.2084210E-015  0.9000774E+02  0.7816164E-02  0.1186339E+00
        -11   -1    0    0    0    0  0.00000000000E+00  0.00000000000E+00  0.45593999997E+02  0.45594000000E+02  0.51100000000E-03 0. -1.
         11   -1    0    0    0    0 -0.00000000000E+00 -0.00000000000E+00 -0.45593999997E+02  0.45594000000E+02  0.51100000000E-03 0.  1.
    9900012    2    1    2    0    0 -0.22548074272E+00 -0.11245546835E+01  0.27846239108E+00  0.90007743204E+02  0.90000004614E+02 0.  0.
         12    1    1    2    0    0  0.22548074272E+00  0.11245546835E+01 -0.27846239108E+00  0.11802567961E+01  0.00000000000E+00 0. -1.
         11    1    3    3    0    0  0.31677233481E+02 -0.30596567899E+01  0.22950081041E+02  0.39236651752E+02  0.51100000000E-03 0. -1.
        -11    1    3    3    0    0  0.63486251526E+01 -0.26939420753E+01 -0.35641609243E+01  0.77630927206E+01  0.51100000000E-03 0.  1.
        -12    1    3    3    0    0 -0.38251339376E+02  0.46290441817E+01 -0.19107457726E+02  0.43007998731E+02  0.00000000000E+00 0.  1.
</event>
<event>
 7    1  0.2084210E-015  0.9000797E+02  0.7816164E-02  0.1186339E+00
        -11   -1    0    0    0    0  0.00000000000E+00  0.00000000000E+00  0.45593999997E+02  0.45594000000E+02  0.51100000000E-03 0.  1.
         11   -1    0    0    0    0 -0.00000000000E+00 -0.00000000000E+00 -0.45593999997E+02  0.45594000000E+02  0.51100000000E-03 0. -1.
    9900012    2    1    2    0    0  0.98138483433E+00 -0.64753868001E+00  0.10028155393E+00  0.90007966558E+02  0.90000230916E+02 0.  0.
         12    1    1    2    0    0 -0.98138483433E+00  0.64753868001E+00 -0.10028155393E+00  0.11800334424E+01  0.00000000000E+00 0. -1.
         11    1    3    3    0    0  0.61640163334E+01  0.29655404303E+01  0.70570128783E+01  0.98280699239E+01  0.51100000000E-03 0. -1.
        -11    1    3    3    0    0  0.21905345550E+02 -0.68077634143E+01  0.27772045416E+02  0.36020498514E+02  0.51100000000E-03 0.  1.
         12    1    3    3    0    0 -0.27087977049E+02  0.31946843039E+01 -0.34728776740E+02  0.44159398120E+02  0.00000000000E+00 0. -1.
</event>
<event>
 7    1  0.2084210E-015  0.9000773E+02  0.7816164E-02  0.1186339E+00
        -11   -1    0    0    0    0  0.00000000000E+00  0.00000000000E+00  0.45593999997E+02  0.45594000000E+02  0.51100000000E-03 0.  1.
         11   -1    0    0    0    0 -0.00000000000E+00 -0.00000000000E+00 -0.45593999997E+02  0.45594000000E+02  0.51100000000E-03 0. -1.
    9900012    2    1    2    0    0  0.69505996924E+00 -0.34877131838E+00  0.88785260647E+00  0.90007732215E+02  0.89999993480E+02 0.  0.
         12    1    1    2    0    0 -0.69505996924E+00  0.34877131838E+00 -0.88785260647E+00  0.11802677849E+01  0.00000000000E+00 0. -1.
         11    1    3    3    0    0  0.27149370110E+02  0.22843249557E+02 -0.79052661766E+01  0.36351005231E+02  0.51100000000E-03 0. -1.
        -11    1    3    3    0    0  0.84822932044E+01  0.28253930140E+01 -0.10397588456E+01  0.90007356592E+01  0.51100000000E-03 0.  1.
        -12    1    3    3    0    0 -0.34936603345E+02 -0.26017413889E+02  0.98328776287E+01  0.44655991325E+02  0.00000000000E+00 0.  1.
</event>
<event>
 7    1  0.2084210E-015  0.9000783E+02  0.7816164E-02  0.1186339E+00
        -11   -1    0    0    0    0  0.00000000000E+00  0.00000000000E+00  0.45593999997E+02  0.45594000000E+02  0.51100000000E-03 0.  1.
         11   -1    0    0    0    0 -0.00000000000E+00 -0.00000000000E+00 -0.45593999997E+02  0.45594000000E+02  0.51100000000E-03 0. -1.
    9900012    2    1    2    0    0  0.13081554757E+00  0.95735275990E+00 -0.67761981588E+00  0.90007828136E+02  0.90000090667E+02 0.  0.
         12    1    1    2    0    0 -0.13081554757E+00 -0.95735275990E+00  0.67761981588E+00  0.11801718643E+01  0.00000000000E+00 0. -1.
         11    1    3    3    0    0 -0.15323368682E+01 -0.87772229002E+01 -0.32488954358E+02  0.33688571559E+02  0.51100000000E-03 0. -1.
        -11    1    3    3    0    0 -0.31258110769E+01  0.22588002336E+01 -0.11488547709E+02  0.12118564359E+02  0.51100000000E-03 0.  1.
        -12    1    3    3    0    0  0.47889634927E+01  0.74757754265E+01  0.43299882252E+02  0.44200692218E+02  0.00000000000E+00 0.  1.
</event>
<event>
 7    1  0.2084210E-015  0.9000764E+02  0.7816164E-02  0.1186339E+00
        -11   -1    0    0    0    0  0.00000000000E+00  0.00000000000E+00  0.45593999997E+02  0.45594000000E+02  0.51100000000E-03 0. -1.
         11   -1    0    0    0    0 -0.00000000000E+00 -0.00000000000E+00 -0.45593999997E+02  0.45594000000E+02  0.51100000000E-03 0.  1.
    9900012    2    1    2    0    0 -0.22314228466E+00 -0.11269850638E+01 -0.27084316711E+00  0.90007642497E+02  0.89999902578E+02 0.  0.
         12    1    1    2    0    0  0.22314228466E+00  0.11269850638E+01  0.27084316711E+00  0.11803575028E+01  0.00000000000E+00 0. -1.
         11    1    3    3    0    0  0.30298226392E+02  0.13347118173E+02  0.90962983095E+01  0.34334686968E+02  0.51100000000E-03 0. -1.
        -11    1    3    3    0    0 -0.86283884635E+01  0.65514244842E+01 -0.20625913021E+02  0.23298037224E+02  0.51100000000E-03 0.  1.
        -12    1    3    3    0    0 -0.21892980213E+02 -0.21025527721E+02  0.11258771545E+02  0.32374918305E+02  0.00000000000E+00 0.  1.
</event>
<event>
 7    1  0.2084210E-015  0.9000772E+02  0.7816164E-02  0.1186339E+00
        -11   -1    0    0    0    0  0.00000000000E+00  0.00000000000E+00  0.45593999997E+02  0.45594000000E+02  0.51100000000E-03 0.  1.
         11   -1    0    0    0    0 -0.00000000000E+00 -0.00000000000E+00 -0.45593999997E+02  0.45594000000E+02  0.51100000000E-03 0. -1.
    9900012    2    1    2    0    0 -0.49546273129E+00  0.78192293264E+00  0.73223507179E+00  0.90007722494E+02  0.89999983631E+02 0.  0.
         12    1    1    2    0    0  0.49546273129E+00 -0.78192293264E+00 -0.73223507179E+00  0.11802775059E+01  0.00000000000E+00 0. -1.
         11    1    3    3    0    0 -0.10210313535E+01  0.57861021796E+01  0.10256653756E+02  0.11820339673E+02  0.51100000000E-03 0. -1.
        -11    1    3    3    0    0 -0.74293029035E+01 -0.79605374111E+01  0.33038537696E+02  0.34786630634E+02  0.51100000000E-03 0.  1.
         12    1    3    3    0    0  0.79548715258E+01  0.29563581641E+01 -0.42562956380E+02  0.43400752187E+02  0.00000000000E+00 0. -1.
</event>
<event>
 7    1  0.2084210E-015  0.9000768E+02  0.7816164E-02  0.1186339E+00
        -11   -1    0    0    0    0  0.00000000000E+00  0.00000000000E+00  0.45593999997E+02  0.45594000000E+02  0.51100000000E-03 0.  1.
         11   -1    0    0    0    0 -0.00000000000E+00 -0.00000000000E+00 -0.45593999997E+02  0.45594000000E+02  0.51100000000E-03 0. -1.
    9900012    2    1    2    0    0 -0.53947686065E-02 -0.84770799698E+00  0.82129269862E+00  0.90007678159E+02  0.89999938711E+02 0.  0.
         12    1    1    2    0    0  0.53947686065E-02  0.84770799698E+00 -0.82129269862E+00  0.11803218411E+01  0.00000000000E+00 0. -1.
         11    1    3    3    0    0 -0.21739400725E+02  0.14196614942E+02 -0.22755644905E+02  0.34524843157E+02  0.51100000000E-03 0. -1.
        -11    1    3    3    0    0 -0.77929799057E+01 -0.21661129460E+00 -0.69903473250E+01  0.10471027278E+02  0.51100000000E-03 0.  1.
        -12    1    3    3    0    0  0.29526985862E+02 -0.14827711645E+02  0.30567284929E+02  0.45011807724E+02  0.00000000000E+00 0.  1.
</event>
<event>
 7    1  0.2084210E-015  0.9000798E+02  0.7816164E-02  0.1186339E+00
        -11   -1    0    0    0    0  0.00000000000E+00  0.00000000000E+00  0.45593999997E+02  0.45594000000E+02  0.51100000000E-03 0. -1.
         11   -1    0    0    0    0 -0.00000000000E+00 -0.00000000000E+00 -0.45593999997E+02  0.45594000000E+02  0.51100000000E-03 0.  1.
    9900012    2    1    2    0    0 -0.81592062676E+00 -0.74648192384E+00  0.41168557105E+00  0.90007980195E+02  0.90000244733E+02 0.  0.
         12    1    1    2    0    0  0.81592062676E+00  0.74648192384E+00 -0.41168557105E+00  0.11800198054E+01  0.00000000000E+00 0. -1.
         11    1    3    3    0    0  0.31163031773E+02  0.12007806988E+02  0.18930730350E+02  0.38388729202E+02  0.51100000000E-03 0. -1.
        -11    1    3    3    0    0  0.57609963317E+01  0.14615637831E+01 -0.79547908044E+01  0.99299518846E+01  0.51100000000E-03 0.  1.
        -12    1    3    3    0    0 -0.37739948731E+02 -0.14215852695E+02 -0.10564253974E+02  0.41689299108E+02  0.00000000000E+00 0.  1.
</event>
<event>
 7    1  0.2084210E-015  0.9000776E+02  0.7816164E-02  0.1186339E+00
        -11   -1    0    0    0    0  0.00000000000E+00  0.00000000000E+00  0.45593999997E+02  0.45594000000E+02  0.51100000000E-03 0. -1.
         11   -1    0    0    0    0 -0.00000000000E+00 -0.00000000000E+00 -0.45593999997E+02  0.45594000000E+02  0.51100000000E-03 0.  1.
    9900012    2    1    2    0    0  0.38767275032E+00 -0.10961236471E+01  0.20292744982E+00  0.90007764108E+02  0.90000025794E+02 0.  0.
         12    1    1    2    0    0 -0.38767275032E+00  0.10961236471E+01 -0.20292744982E+00  0.11802358921E+01  0.00000000000E+00 0. -1.
         11    1    3    3    0    0  0.10255054501E+02 -0.15909971129E-01 -0.92208488898E+01  0.13790955386E+02  0.51100000000E-03 0. -1.
        -11    1    3    3    0    0 -0.78799994587E+01  0.36333968859E+02 -0.14404075022E+01  0.37206537847E+02  0.51100000000E-03 0.  1.
         12    1    3    3    0    0 -0.19873822921E+01 -0.37414182535E+02  0.10864183842E+02  0.39010270875E+02  0.00000000000E+00 0. -1.
</event>
<event>
 7    1  0.2084210E-015  0.9000769E+02  0.7816164E-02  0.1186339E+00
        -11   -1    0    0    0    0  0.00000000000E+00  0.00000000000E+00  0.45593999997E+02  0.45594000000E+02  0.51100000000E-03 0. -1.
         11   -1    0    0    0    0 -0.00000000000E+00 -0.00000000000E+00 -0.45593999997E+02  0.45594000000E+02  0.51100000000E-03 0.  1.
    9900012    2    1    2    0    0  0.59426162121E+00  0.27400824561E-02 -0.10197876479E+01  0.90007694434E+02  0.89999955200E+02 0.  0.
         12    1    1    2    0    0 -0.59426162121E+00 -0.27400824561E-02  0.10197876479E+01  0.11803055660E+01  0.00000000000E+00 0. -1.
         11    1    3    3    0    0  0.77278997261E+01  0.28765495459E+02  0.19150133024E+02  0.35410475262E+02  0.51100000000E-03 0. -1.
        -11    1    3    3    0    0 -0.11039712876E+02 -0.79509352308E+01  0.10598840260E+02  0.17246102358E+02  0.51100000000E-03 0.  1.
        -12    1    3    3    0    0  0.39060747713E+01 -0.20811820146E+02 -0.30768760932E+02  0.37351116813E+02  0.00000000000E+00 0.  1.
</event>
<event>
 7    1  0.2084210E-015  0.9000775E+02  0.7816164E-02  0.1186339E+00
        -11   -1    0    0    0    0  0.00000000000E+00  0.00000000000E+00  0.45593999997E+02  0.45594000000E+02  0.51100000000E-03 0.  1.
         11   -1    0    0    0    0 -0.00000000000E+00 -0.00000000000E+00 -0.45593999997E+02  0.45594000000E+02  0.51100000000E-03 0. -1.
    9900012    2    1    2    0    0 -0.45107413578E+00 -0.33462193652E+00  0.10380515957E+01  0.90007749674E+02  0.90000011170E+02 0.  0.
         12    1    1    2    0    0  0.45107413578E+00  0.33462193652E+00 -0.10380515957E+01  0.11802503258E+01  0.00000000000E+00 0. -1.
         11    1    3    3    0    0  0.12298198717E+02  0.32832982872E+01 -0.76288293370E+00  0.12751773601E+02  0.51100000000E-03 0. -1.
        -11    1    3    3    0    0  0.31834716191E+02  0.35573188710E+01  0.20387919856E+01  0.32097668849E+02  0.51100000000E-03 0.  1.
         12    1    3    3    0    0 -0.44583989044E+02 -0.71752390947E+01 -0.23785745618E+00  0.45158307224E+02  0.00000000000E+00 0. -1.
</event>
<event>
 7    1  0.2084210E-015  0.9000778E+02  0.7816164E-02  0.1186339E+00
        -11   -1    0    0    0    0  0.00000000000E+00  0.00000000000E+00  0.45593999997E+02  0.45594000000E+02  0.51100000000E-03 0.  1.
         11   -1    0    0    0    0 -0.00000000000E+00 -0.00000000000E+00 -0.45593999997E+02  0.45594000000E+02  0.51100000000E-03 0. -1.
    9900012    2    1    2    0    0 -0.38522218104E+00 -0.49592534663E+00  0.99929298450E+00  0.90007777755E+02  0.90000039622E+02 0.  0.
         12    1    1    2    0    0  0.38522218104E+00  0.49592534663E+00 -0.99929298450E+00  0.11802222448E+01  0.00000000000E+00 0. -1.
         11    1    3    3    0    0  0.50013642009E+01  0.31251154877E+01  0.77225860150E+01  0.97169092670E+01  0.51100000000E-03 0. -1.
        -11    1    3    3    0    0  0.34104169491E+02  0.57407283917E+01 -0.16836592968E+02  0.38464544742E+02  0.51100000000E-03 0.  1.
         12    1    3    3    0    0 -0.39490755873E+02 -0.93617692260E+01  0.10113299938E+02  0.41826323746E+02  0.00000000000E+00 0. -1.
</event>
<event>
 7    1  0.2084210E-015  0.9000762E+02  0.7816164E-02  0.1186339E+00
        -11   -1    0    0    0    0  0.00000000000E+00  0.00000000000E+00  0.45593999997E+02  0.45594000000E+02  0.51100000000E-03 0.  1.
         11   -1    0    0    0    0 -0.00000000000E+00 -0.00000000000E+00 -0.45593999997E+02  0.45594000000E+02  0.51100000000E-03 0. -1.
    9900012    2    1    2    0    0  0.10334744803E+01  0.20271872427E+00  0.53303227417E+00  0.90007623879E+02  0.89999883714E+02 0.  0.
         12    1    1    2    0    0 -0.10334744803E+01 -0.20271872427E+00 -0.53303227417E+00  0.11803761214E+01  0.00000000000E+00 0. -1.
         11    1    3    3    0    0  0.36640168332E+02  0.11072909614E+02  0.11404809058E+02  0.39939716231E+02  0.51100000000E-03 0. -1.
        -11    1    3    3    0    0  0.40028200215E+01 -0.37895762068E+01 -0.80173204230E+01  0.97293824561E+01  0.51100000000E-03 0.  1.
        -12    1    3    3    0    0 -0.39609513873E+02 -0.70806146825E+01 -0.28544563604E+01  0.40338525192E+02  0.00000000000E+00 0.  1.
</event>
<event>
 7    1  0.2084210E-015  0.9000795E+02  0.7816164E-02  0.1186339E+00
        -11   -1    0    0    0    0  0.00000000000E+00  0.00000000000E+00  0.45593999997E+02  0.45594000000E+02  0.51100000000E-03 0.  1.
         11   -1    0    0    0    0 -0.00000000000E+00 -0.00000000000E+00 -0.45593999997E+02  0.45594000000E+02  0.51100000000E-03 0. -1.
    9900012    2    1    2    0    0 -0.70157890892E+00  0.47011028102E+00  0.82419190653E+00  0.90007953840E+02  0.90000218030E+02 0.  0.
         12    1    1    2    0    0  0.70157890892E+00 -0.47011028102E+00 -0.82419190653E+00  0.11800461604E+01  0.00000000000E+00 0. -1.
         11    1    3    3    0    0  0.25266274887E+01  0.13690447330E+02 -0.11539284491E+02  0.18082236625E+02  0.51100000000E-03 0. -1.
        -11    1    3    3    0    0 -0.28213127890E+02 -0.10958723566E+02 -0.15854981161E+02  0.34168035287E+02  0.51100000000E-03 0.  1.
         12    1    3    3    0    0  0.24984921492E+02 -0.22616134829E+01  0.28218457559E+02  0.37757681927E+02  0.00000000000E+00 0. -1.
</event>
<event>
 7    1  0.2084210E-015  0.9000771E+02  0.7816164E-02  0.1186339E+00
        -11   -1    0    0    0    0  0.00000000000E+00  0.00000000000E+00  0.45593999997E+02  0.45594000000E+02  0.51100000000E-03 0. -1.
         11   -1    0    0    0    0 -0.00000000000E+00 -0.00000000000E+00 -0.45593999997E+02  0.45594000000E+02  0.51100000000E-03 0.  1.
    9900012    2    1    2    0    0  0.31065492285E+00 -0.11377158956E-01 -0.11386182711E+01  0.90007708727E+02  0.89999969683E+02 0.  0.
         12    1    1    2    0    0 -0.31065492285E+00  0.11377158956E-01  0.11386182711E+01  0.11802912726E+01  0.00000000000E+00 0. -1.
         11    1    3    3    0    0  0.86089600955E+01  0.29414153316E+01  0.53453945904E+01  0.10551746854E+02  0.51100000000E-03 0. -1.
        -11    1    3    3    0    0  0.22275356046E+02  0.69355646998E+01 -0.31170846594E+02  0.38934755969E+02  0.51100000000E-03 0.  1.
         12    1    3    3    0    0 -0.30573661219E+02 -0.98883571903E+01  0.24686833733E+02  0.40521205905E+02  0.00000000000E+00 0. -1.
</event>
<event>
 7    1  0.2084210E-015  0.9000772E+02  0.7816164E-02  0.1186339E+00
        -11   -1    0    0    0    0  0.00000000000E+00  0.00000000000E+00  0.45593999997E+02  0.45594000000E+02  0.51100000000E-03 0.  1.
         11   -1    0    0    0    0 -0.00000000000E+00 -0.00000000000E+00 -0.45593999997E+02  0.45594000000E+02  0.51100000000E-03 0. -1.
    9900012    2    1    2    0    0  0.13254720605E+00 -0.41583794136E-01  0.11720792610E+01  0.90007717081E+02  0.89999978147E+02 0.  0.
         12    1    1    2    0    0 -0.13254720605E+00  0.41583794136E-01 -0.11720792610E+01  0.11802829186E+01  0.00000000000E+00 0. -1.
         11    1    3    3    0    0  0.81799312928E+00 -0.80328537430E+01 -0.95320944012E+00  0.81304649630E+01  0.51100000000E-03 0. -1.
        -11    1    3    3    0    0 -0.27633506281E+02  0.20928792752E+02  0.26235340963E+02  0.43473188877E+02  0.51100000000E-03 0.  1.
         12    1    3    3    0    0  0.26948060358E+02 -0.12937522803E+02 -0.24110052262E+02  0.38404063241E+02  0.00000000000E+00 0. -1.
</event>
<event>
 7    1  0.2084210E-015  0.9000770E+02  0.7816164E-02  0.1186339E+00
        -11   -1    0    0    0    0  0.00000000000E+00  0.00000000000E+00  0.45593999997E+02  0.45594000000E+02  0.51100000000E-03 0. -1.
         11   -1    0    0    0    0 -0.00000000000E+00 -0.00000000000E+00 -0.45593999997E+02  0.45594000000E+02  0.51100000000E-03 0.  1.
    9900012    2    1    2    0    0 -0.42017742792E+00  0.10970934206E+01 -0.11382120943E+00  0.90007695670E+02  0.89999956452E+02 0.  0.
         12    1    1    2    0    0  0.42017742792E+00 -0.10970934206E+01  0.11382120943E+00  0.11803043304E+01  0.00000000000E+00 0. -1.
         11    1    3    3    0    0 -0.31985515224E+01  0.90031322714E+01 -0.18472140230E+01  0.97313576877E+01  0.51100000000E-03 0. -1.
        -11    1    3    3    0    0  0.18093757338E+02  0.97932585779E+01 -0.32704333867E+02  0.38637616672E+02  0.51100000000E-03 0.  1.
         12    1    3    3    0    0 -0.15315383243E+02 -0.17699297429E+02  0.34437726681E+02  0.41638721309E+02  0.00000000000E+00 0. -1.
</event>
<event>
 7    1  0.2084210E-015  0.9000767E+02  0.7816164E-02  0.1186339E+00
        -11   -1    0    0    0    0  0.00000000000E+00  0.00000000000E+00  0.45593999997E+02  0.45594000000E+02  0.51100000000E-03 0.  1.
         11   -1    0    0    0    0 -0.00000000000E+00 -0.00000000000E+00 -0.45593999997E+02  0.45594000000E+02  0.51100000000E-03 0. -1.
    9900012    2    1    2    0    0  0.65061672057E-01  0.98683863814E+00  0.64427525680E+00  0.90007672026E+02  0.89999932497E+02 0.  0.
         12    1    1    2    0    0 -0.65061672057E-01 -0.98683863814E+00 -0.64427525680E+00  0.11803279737E+01  0.00000000000E+00 0. -1.
         11    1    3    3    0    0 -0.97868996739E+00  0.64928190563E+01  0.80226031469E+01  0.10367096742E+02  0.51100000000E-03 0. -1.
        -11    1    3    3    0    0 -0.25334992699E+01 -0.26468958876E+02  0.27841108989E+02  0.38498724038E+02  0.51100000000E-03 0.  1.
         12    1    3    3    0    0  0.35772509093E+01  0.20962978458E+02 -0.35219436879E+02  0.41141851246E+02  0.00000000000E+00 0. -1.
</event>
<event>
 7    1  0.2084210E-015  0.9000773E+02  0.7816164E-02  0.1186339E+00
        -11   -1    0    0    0    0  0.00000000000E+00  0.00000000000E+00  0.45593999997E+02  0.45594000000E+02  0.51100000000E-03 0.  1.
         11   -1    0    0    0    0 -0.00000000000E+00 -0.00000000000E+00 -0.45593999997E+02  0.45594000000E+02  0.51100000000E-03 0. -1.
    9900012    2    1    2    0    0  0.41315079234E-01 -0.36509855603E+00  0.11216185326E+01  0.90007732224E+02  0.89999993489E+02 0.  0.
         12    1    1    2    0    0 -0.41315079234E-01  0.36509855603E+00 -0.11216185326E+01  0.11802677764E+01  0.00000000000E+00 0. -1.
         11    1    3    3    0    0  0.46980014386E+01  0.81436369833E+01 -0.17108092343E+01  0.95559881399E+01  0.51100000000E-03 0. -1.
        -11    1    3    3    0    0 -0.10372742002E+02  0.33131301752E+02  0.13232850504E+02  0.37153536375E+02  0.51100000000E-03 0.  1.
         12    1    3    3    0    0  0.57160556430E+01 -0.41640037291E+02 -0.10400422738E+02  0.43298207709E+02  0.00000000000E+00 0. -1.
</event>
<event>
 7    1  0.2084210E-015  0.9000772E+02  0.7816164E-02  0.1186339E+00
        -11   -1    0    0    0    0  0.00000000000E+00  0.00000000000E+00  0.45593999997E+02  0.45594000000E+02  0.51100000000E-03 0. -1.
         11   -1    0    0    0    0 -0.00000000000E+00 -0.00000000000E+00 -0.45593999997E+02  0.45594000000E+02  0.51100000000E-03 0.  1.
    9900012    2    1    2    0    0  0.18065005323E+00  0.93478089361E+00 -0.69757744059E+00  0.90007718658E+02  0.89999979744E+02 0.  0.
         12    1    1    2    0    0 -0.18065005323E+00 -0.93478089361E+00  0.69757744059E+00  0.11802813421E+01  0.00000000000E+00 0. -1.
         11    1    3    3    0    0 -0.77079947885E+01  0.97732596879E+00 -0.12904345011E+01  0.78761393570E+01  0.51100000000E-03 0. -1.
        -11    1    3    3    0    0 -0.13813203666E+02 -0.12471675420E+02 -0.34405327551E+02  0.39116158393E+02  0.51100000000E-03 0.  1.
         12    1    3    3    0    0  0.21701848508E+02  0.12429130344E+02  0.34998184611E+02  0.43015420908E+02  0.00000000000E+00 0. -1.
</event>
<event>
 7    1  0.2084210E-015  0.9000770E+02  0.7816164E-02  0.1186339E+00
        -11   -1    0    0    0    0  0.00000000000E+00  0.00000000000E+00  0.45593999997E+02  0.45594000000E+02  0.51100000000E-03 0.  1.
         11   -1    0    0    0    0 -0.00000000000E+00 -0.00000000000E+00 -0.45593999997E+02  0.45594000000E+02  0.51100000000E-03 0. -1.
    9900012    2    1    2    0    0 -0.13586812315E+00 -0.10903482374E+00  0.11673746599E+01  0.90007698201E+02  0.89999959017E+02 0.  0.
         12    1    1    2    0    0  0.13586812315E+00  0.10903482374E+00 -0.11673746599E+01  0.11803017988E+01  0.00000000000E+00 0. -1.
         11    1    3    3    0    0 -0.32111941935E+02 -0.35706207841E+01  0.15290282506E+02  0.35745193901E+02  0.51100000000E-03 0. -1.
        -11    1    3    3    0    0 -0.71353538467E+01 -0.28946111371E+01  0.60554901253E+01  0.97959690215E+01  0.51100000000E-03 0.  1.
        -12    1    3    3    0    0  0.39111427659E+02  0.63561970974E+01 -0.20178397971E+02  0.44466535279E+02  0.00000000000E+00 0.  1.
</event>
<event>
 7    1  0.2084210E-015  0.9000776E+02  0.7816164E-02  0.1186339E+00
        -11   -1    0    0    0    0  0.00000000000E+00  0.00000000000E+00  0.45593999997E+02  0.45594000000E+02  0.51100000000E-03 0. -1.
         11   -1    0    0    0    0 -0.00000000000E+00 -0.00000000000E+00 -0.45593999997E+02  0.45594000000E+02  0.51100000000E-03 0.  1.
    9900012    2    1    2    0    0 -0.43794299286E+00  0.97535355781E+00 -0.49985181459E+00  0.90007762539E+02  0.90000024205E+02 0.  0.
         12    1    1    2    0    0  0.43794299286E+00 -0.97535355781E+00  0.49985181459E+00  0.11802374610E+01  0.00000000000E+00 0. -1.
         11    1    3    3    0    0  0.19859370962E+01 -0.45224186300E+01  0.82469363969E+01  0.96129171749E+01  0.51100000000E-03 0. -1.
        -11    1    3    3    0    0  0.36386010769E+02  0.68123024550E+01 -0.16936237158E+02  0.40708541779E+02  0.51100000000E-03 0.  1.
         12    1    3    3    0    0 -0.38809890858E+02 -0.13145302672E+01  0.81894489469E+01  0.39686303585E+02  0.00000000000E+00 0. -1.
</event>
<event>
 7    1  0.2084210E-015  0.9000772E+02  0.7816164E-02  0.1186339E+00
        -11   -1    0    0    0    0  0.00000000000E+00  0.00000000000E+00  0.45593999997E+02  0.45594000000E+02  0.51100000000E-03 0. -1.
         11   -1    0    0    0    0 -0.00000000000E+00 -0.00000000000E+00 -0.45593999997E+02  0.45594000000E+02  0.51100000000E-03 0.  1.
    9900012    2    1    2    0    0 -0.84656943168E+00  0.29254135581E+00 -0.76864235837E+00  0.90007715576E+02  0.89999976621E+02 0.  0.
         12    1    1    2    0    0  0.84656943168E+00 -0.29254135581E+00  0.76864235837E+00  0.11802844245E+01  0.00000000000E+00 0. -1.
         11    1    3    3    0    0  0.47341350006E+01 -0.43472981777E+01 -0.62794632188E+01  0.89856938645E+01  0.51100000000E-03 0. -1.
        -11    1    3    3    0    0  0.94951754235E+01 -0.17525022391E+02 -0.30313221444E+02  0.36279142226E+02  0.51100000000E-03 0.  1.
         12    1    3    3    0    0 -0.15075879856E+02  0.22164861924E+02  0.35824042304E+02  0.44742879485E+02  0.00000000000E+00 0. -1.
</event>
<event>
 7    1  0.2084210E-015  0.9000788E+02  0.7816164E-02  0.1186339E+00
        -11   -1    0    0    0    0  0.00000000000E+00  0.00000000000E+00  0.45593999997E+02  0.45594000000E+02  0.51100000000E-03 0.  1.
         11   -1    0    0    0    0 -0.00000000000E+00 -0.00000000000E+00 -0.45593999997E+02  0.45594000000E+02  0.51100000000E-03 0. -1.
    9900012    2    1    2    0    0 -0.56690640895E+00  0.28961503878E+00  0.99369643762E+00  0.90007876126E+02  0.90000139291E+02 0.  0.
         12    1    1    2    0    0  0.56690640895E+00 -0.28961503878E+00 -0.99369643762E+00  0.11801238737E+01  0.00000000000E+00 0. -1.
         11    1    3    3    0    0  0.23955930288E+02 -0.12289505771E+02 -0.21843183636E+02  0.34670494944E+02  0.51100000000E-03 0. -1.
        -11    1    3    3    0    0  0.94738952615E+01 -0.31048138022E+01 -0.23128849174E+01  0.10234451479E+02  0.51100000000E-03 0.  1.
        -12    1    3    3    0    0 -0.33996731958E+02  0.15683934612E+02  0.25149764991E+02  0.45102929704E+02  0.00000000000E+00 0.  1.
</event>
<event>
 7    1  0.2084210E-015  0.9000758E+02  0.7816164E-02  0.1186339E+00
        -11   -1    0    0    0    0  0.00000000000E+00  0.00000000000E+00  0.45593999997E+02  0.45594000000E+02  0.51100000000E-03 0.  1.
         11   -1    0    0    0    0 -0.00000000000E+00 -0.00000000000E+00 -0.45593999997E+02  0.45594000000E+02  0.51100000000E-03 0. -1.
    9900012    2    1    2    0    0  0.11304096865E+01 -0.32449623647E+00  0.10132033011E+00  0.90007580720E+02  0.89999839986E+02 0.  0.
         12    1    1    2    0    0 -0.11304096865E+01  0.32449623647E+00 -0.10132033011E+00  0.11804192798E+01  0.00000000000E+00 0. -1.
         11    1    3    3    0    0 -0.31998636831E+02  0.16161443160E+02 -0.19818638485E+02  0.40961975486E+02  0.51100000000E-03 0. -1.
        -11    1    3    3    0    0  0.45645052479E+01  0.62520504940E+01  0.66308115711E+01  0.10192669223E+02  0.51100000000E-03 0.  1.
        -12    1    3    3    0    0  0.28564541270E+02 -0.22737989890E+02  0.13289147244E+02  0.38852936011E+02  0.00000000000E+00 0.  1.
</event>
<event>
 7    1  0.2084210E-015  0.9000757E+02  0.7816164E-02  0.1186339E+00
        -11   -1    0    0    0    0  0.00000000000E+00  0.00000000000E+00  0.45593999997E+02  0.45594000000E+02  0.51100000000E-03 0.  1.
         11   -1    0    0    0    0 -0.00000000000E+00 -0.00000000000E+00 -0.45593999997E+02  0.45594000000E+02  0.51100000000E-03 0. -1.
    9900012    2    1    2    0    0 -0.52471122223E+00 -0.39238868380E+00  0.98189581345E+00  0.90007572055E+02  0.89999831206E+02 0.  0.
         12    1    1    2    0    0  0.52471122223E+00  0.39238868380E+00 -0.98189581345E+00  0.11804279454E+01  0.00000000000E+00 0. -1.
         11    1    3    3    0    0 -0.81614299218E+01 -0.25930585211E+02 -0.20443977025E+02  0.34014120371E+02  0.51100000000E-03 0. -1.
        -11    1    3    3    0    0 -0.98850459381E+00 -0.10306863156E+02 -0.41157515270E+01  0.11142171258E+02  0.51100000000E-03 0.  1.
        -12    1    3    3    0    0  0.86252232934E+01  0.35845059683E+02  0.25541624365E+02  0.44851280425E+02  0.00000000000E+00 0.  1.
</event>
<event>
 7    1  0.2084210E-015  0.9000776E+02  0.7816164E-02  0.1186339E+00
        -11   -1    0    0    0    0  0.00000000000E+00  0.00000000000E+00  0.45593999997E+02  0.45594000000E+02  0.51100000000E-03 0.  1.
         11   -1    0    0    0    0 -0.00000000000E+00 -0.00000000000E+00 -0.45593999997E+02  0.45594000000E+02  0.51100000000E-03 0. -1.
    9900012    2    1    2    0    0  0.91653379747E+00 -0.27008095443E+00  0.69281038164E+00  0.90007760978E+02  0.90000022623E+02 0.  0.
         12    1    1    2    0    0 -0.91653379747E+00  0.27008095443E+00 -0.69281038164E+00  0.11802390219E+01  0.00000000000E+00 0. -1.
         11    1    3    3    0    0  0.10994697636E+02  0.29914365672E+02  0.11411690550E+02  0.33852316481E+02  0.51100000000E-03 0. -1.
        -11    1    3    3    0    0  0.14024407243E+01  0.11641079073E+02 -0.15896756536E+01  0.11832524284E+02  0.51100000000E-03 0.  1.
        -12    1    3    3    0    0 -0.11480604563E+02 -0.41825525700E+02 -0.91292045147E+01  0.44322920214E+02  0.00000000000E+00 0.  1.
</event>
<event>
 7    1  0.2084210E-015  0.9000773E+02  0.7816164E-02  0.1186339E+00
        -11   -1    0    0    0    0  0.00000000000E+00  0.00000000000E+00  0.45593999997E+02  0.45594000000E+02  0.51100000000E-03 0.  1.
         11   -1    0    0    0    0 -0.00000000000E+00 -0.00000000000E+00 -0.45593999997E+02  0.45594000000E+02  0.51100000000E-03 0. -1.
    9900012    2    1    2    0    0  0.50806724942E+00 -0.49084236695E+00  0.94550847491E+00  0.90007726796E+02  0.89999987990E+02 0.  0.
         12    1    1    2    0    0 -0.50806724942E+00  0.49084236695E+00 -0.94550847491E+00  0.11802732037E+01  0.00000000000E+00 0. -1.
         11    1    3    3    0    0 -0.95407726220E+01 -0.33878841461E+02 -0.42522493134E+01  0.35452557953E+02  0.51100000000E-03 0. -1.
        -11    1    3    3    0    0 -0.65438017388E+01 -0.72611019412E+01 -0.22306549226E+01  0.10026004401E+02  0.51100000000E-03 0.  1.
        -12    1    3    3    0    0  0.16592641610E+02  0.40649101035E+02  0.74284127109E+01  0.44529164443E+02  0.00000000000E+00 0.  1.
</event>
<event>
 7    1  0.2084210E-015  0.9000776E+02  0.7816164E-02  0.1186339E+00
        -11   -1    0    0    0    0  0.00000000000E+00  0.00000000000E+00  0.45593999997E+02  0.45594000000E+02  0.51100000000E-03 0.  1.
         11   -1    0    0    0    0 -0.00000000000E+00 -0.00000000000E+00 -0.45593999997E+02  0.45594000000E+02  0.51100000000E-03 0. -1.
    9900012    2    1    2    0    0 -0.16842630928E+00  0.75641381258E+00  0.89018807765E+00  0.90007761003E+02  0.90000022648E+02 0.  0.
         12    1    1    2    0    0  0.16842630928E+00 -0.75641381258E+00 -0.89018807765E+00  0.11802389975E+01  0.00000000000E+00 0. -1.
         11    1    3    3    0    0  0.58255832743E+01  0.32123983896E+01 -0.35209787788E+02  0.35832751502E+02  0.51100000000E-03 0. -1.
        -11    1    3    3    0    0 -0.21296274383E+02 -0.19074073718E+01  0.93156040040E+01  0.23322735339E+02  0.51100000000E-03 0.  1.
        -12    1    3    3    0    0  0.15302264799E+02 -0.54857720529E+00  0.26784371861E+02  0.30852274161E+02  0.00000000000E+00 0.  1.
</event>
<event>
 7    1  0.2084210E-015  0.9000775E+02  0.7816164E-02  0.1186339E+00
        -11   -1    0    0    0    0  0.00000000000E+00  0.00000000000E+00  0.45593999997E+02  0.45594000000E+02  0.51100000000E-03 0.  1.
         11   -1    0    0    0    0 -0.00000000000E+00 -0.00000000000E+00 -0.45593999997E+02  0.45594000000E+02  0.51100000000E-03 0. -1.
    9900012    2    1    2    0    0  0.10834782739E+01  0.13471838397E+00  0.44822908197E+00  0.90007752770E+02  0.90000014307E+02 0.  0.
         12    1    1    2    0    0 -0.10834782739E+01 -0.13471838397E+00 -0.44822908197E+00  0.11802472296E+01  0.00000000000E+00 0. -1.
         11    1    3    3    0    0  0.20780466156E+01 -0.10918970926E+02 -0.27346627625E+01  0.11446422345E+02  0.51100000000E-03 0. -1.
        -11    1    3    3    0    0 -0.23374836909E+02 -0.25986179245E+02  0.46500478591E+01  0.35260281587E+02  0.51100000000E-03 0.  1.
         12    1    3    3    0    0  0.22380268567E+02  0.37039868555E+02 -0.14671560146E+01  0.43301048838E+02  0.00000000000E+00 0. -1.
</event>
<event>
 7    1  0.2084210E-015  0.9000772E+02  0.7816164E-02  0.1186339E+00
        -11   -1    0    0    0    0  0.00000000000E+00  0.00000000000E+00  0.45593999997E+02  0.45594000000E+02  0.51100000000E-03 0. -1.
         11   -1    0    0    0    0 -0.00000000000E+00 -0.00000000000E+00 -0.45593999997E+02  0.45594000000E+02  0.51100000000E-03 0.  1.
    9900012    2    1    2    0    0 -0.11359196217E+01  0.22242126411E+00 -0.23082777331E+00  0.90007717802E+02  0.89999978877E+02 0.  0.
         12    1    1    2    0    0  0.11359196217E+01 -0.22242126411E+00  0.23082777331E+00  0.11802821979E+01  0.00000000000E+00 0. -1.
         11    1    3    3    0    0  0.10353818922E+02 -0.55137122348E+01  0.15796272473E+02  0.19675487622E+02  0.51100000000E-03 0. -1.
        -11    1    3    3    0    0 -0.11922006754E+02  0.34357324527E+02  0.21390868541E+01  0.36429873545E+02  0.51100000000E-03 0.  1.
         12    1    3    3    0    0  0.43226821055E+00 -0.28621191028E+02 -0.18166187100E+02  0.33902356635E+02  0.00000000000E+00 0. -1.
</event>
<event>
 7    1  0.2814439E-015  0.9000786E+02  0.7816164E-02  0.1186339E+00
        -11   -1    0    0    0    0  0.00000000000E+00  0.00000000000E+00  0.45593999997E+02  0.45594000000E+02  0.51100000000E-03 0.  1.
         11   -1    0    0    0    0 -0.00000000000E+00 -0.00000000000E+00 -0.45593999997E+02  0.45594000000E+02  0.51100000000E-03 0. -1.
    9900012    2    1    2    0    0 -0.10636013187E+01  0.41667699156E+00  0.29640038492E+00  0.90007864131E+02  0.90000127138E+02 0.  0.
         12    1    1    2    0    0  0.10636013187E+01 -0.41667699156E+00 -0.29640038492E+00  0.11801358687E+01  0.00000000000E+00 0. -1.
         11    1    3    3    0    0  0.30152424678E+01 -0.15029946253E+02 -0.32768661245E+02  0.36177011092E+02  0.51100000000E-03 0. -1.
        -11    1    3    3    0    0 -0.57759042518E+01 -0.50300102384E+01 -0.59749522456E+01  0.97140170641E+01  0.51100000000E-03 0.  1.
        -12    1    3    3    0    0  0.16970604652E+01  0.20476633483E+02  0.39040013876E+02  0.44116835975E+02  0.00000000000E+00 0.  1.
</event>
<event>
 7    1  0.2084210E-015  0.9000777E+02  0.7816164E-02  0.1186339E+00
        -11   -1    0    0    0    0  0.00000000000E+00  0.00000000000E+00  0.45593999997E+02  0.45594000000E+02  0.51100000000E-03 0.  1.
         11   -1    0    0    0    0 -0.00000000000E+00 -0.00000000000E+00 -0.45593999997E+02  0.45594000000E+02  0.51100000000E-03 0. -1.
    9900012    2    1    2    0    0 -0.65862881767E+00 -0.60186388740E+00  0.77259646281E+00  0.90007772330E+02  0.90000034125E+02 0.  0.
         12    1    1    2    0    0  0.65862881767E+00  0.60186388740E+00 -0.77259646281E+00  0.11802276699E+01  0.00000000000E+00 0. -1.
         11    1    3    3    0    0 -0.88300278048E+01 -0.12166037784E+02  0.14053384449E+02  0.20578617085E+02  0.51100000000E-03 0. -1.
        -11    1    3    3    0    0 -0.86801068957E+01 -0.21003994100E+02  0.11201938057E+02  0.25337628942E+02  0.51100000000E-03 0.  1.
         12    1    3    3    0    0  0.16851505883E+02  0.32568167997E+02 -0.24482726044E+02  0.44091526303E+02  0.00000000000E+00 0. -1.
</event>
<event>
 7    1  0.2084210E-015  0.9000770E+02  0.7816164E-02  0.1186339E+00
        -11   -1    0    0    0    0  0.00000000000E+00  0.00000000000E+00  0.45593999997E+02  0.45594000000E+02  0.51100000000E-03 0. -1.
         11   -1    0    0    0    0 -0.00000000000E+00 -0.00000000000E+00 -0.45593999997E+02  0.45594000000E+02  0.51100000000E-03 0.  1.
    9900012    2    1    2    0    0  0.38318888834E+00 -0.46429417361E+00 -0.10152421928E+01  0.90007695161E+02  0.89999955937E+02 0.  0.
         12    1    1    2    0    0 -0.38318888834E+00  0.46429417361E+00  0.10152421928E+01  0.11803048394E+01  0.00000000000E+00 0. -1.
         11    1    3    3    0    0 -0.32775183246E+01 -0.38922724649E+02 -0.54726458028E+01  0.39441988702E+02  0.51100000000E-03 0. -1.
        -11    1    3    3    0    0 -0.14512278764E+01  0.77065004827E+00 -0.98085953739E+01  0.99452756279E+01  0.51100000000E-03 0.  1.
        -12    1    3    3    0    0  0.51119350893E+01  0.37687780427E+02  0.14265998984E+02  0.40620430831E+02  0.00000000000E+00 0.  1.
</event>
<event>
 7    1  0.2084210E-015  0.9000828E+02  0.7816164E-02  0.1186338E+00
        -11   -1    0    0    0    0  0.00000000000E+00  0.00000000000E+00  0.45593999997E+02  0.45594000000E+02  0.51100000000E-03 0. -1.
         11   -1    0    0    0    0 -0.00000000000E+00 -0.00000000000E+00 -0.45593999997E+02  0.45594000000E+02  0.51100000000E-03 0.  1.
    9900012    2    1    2    0    0  0.50665107087E+00  0.61554978362E+00 -0.86956482002E+00  0.90008279770E+02  0.90000548262E+02 0.  0.
         12    1    1    2    0    0 -0.50665107087E+00 -0.61554978362E+00  0.86956482002E+00  0.11797202295E+01  0.00000000000E+00 0. -1.
         11    1    3    3    0    0 -0.19075359087E+01 -0.81315957718E+01  0.10473379782E+01  0.84177467377E+01  0.51100000000E-03 0. -1.
        -11    1    3    3    0    0  0.21392657007E+01  0.12333329919E+02 -0.40730536072E+02  0.42610609637E+02  0.51100000000E-03 0.  1.
         12    1    3    3    0    0  0.27492127886E+00 -0.35861843634E+01  0.38813633274E+02  0.38979923396E+02  0.00000000000E+00 0. -1.
</event>
<event>
 7    1  0.2084210E-015  0.9000758E+02  0.7816164E-02  0.1186339E+00
        -11   -1    0    0    0    0  0.00000000000E+00  0.00000000000E+00  0.45593999997E+02  0.45594000000E+02  0.51100000000E-03 0.  1.
         11   -1    0    0    0    0 -0.00000000000E+00 -0.00000000000E+00 -0.45593999997E+02  0.45594000000E+02  0.51100000000E-03 0. -1.
    9900012    2    1    2    0    0  0.97952337631E+00  0.20121585241E+00 -0.62724194781E+00  0.90007582140E+02  0.89999841424E+02 0.  0.
         12    1    1    2    0    0 -0.97952337631E+00 -0.20121585241E+00  0.62724194781E+00  0.11804178604E+01  0.00000000000E+00 0. -1.
         11    1    3    3    0    0  0.11210322236E+02 -0.75482946450E+01  0.82031587568E+01  0.15809487358E+02  0.51100000000E-03 0. -1.
        -11    1    3    3    0    0  0.14534397506E+02  0.23438672848E+02  0.19226097331E+02  0.33619383019E+02  0.51100000000E-03 0.  1.
         12    1    3    3    0    0 -0.24765196365E+02 -0.15689162351E+02 -0.28056498035E+02  0.40578711762E+02  0.00000000000E+00 0. -1.
</event>
<event>
 7    1  0.2084210E-015  0.9000787E+02  0.7816164E-02  0.1186339E+00
        -11   -1    0    0    0    0  0.00000000000E+00  0.00000000000E+00  0.45593999997E+02  0.45594000000E+02  0.51100000000E-03 0.  1.
         11   -1    0    0    0    0 -0.00000000000E+00 -0.00000000000E+00 -0.45593999997E+02  0.45594000000E+02  0.51100000000E-03 0. -1.
    9900012    2    1    2    0    0 -0.31356061904E+00 -0.63817518453E+00  0.94186813066E+00  0.90007871446E+02  0.90000134549E+02 0.  0.
         12    1    1    2    0    0  0.31356061904E+00  0.63817518453E+00 -0.94186813066E+00  0.11801285538E+01  0.00000000000E+00 0. -1.
         11    1    3    3    0    0  0.11937326086E+01  0.70056244255E+01  0.64599005252E+01  0.96038578805E+01  0.51100000000E-03 0. -1.
        -11    1    3    3    0    0  0.17785809318E+02 -0.33404660377E+02  0.16627829517E+02  0.41336316511E+02  0.51100000000E-03 0.  1.
         12    1    3    3    0    0 -0.19293102546E+02  0.25760860767E+02 -0.22145861912E+02  0.39067697054E+02  0.00000000000E+00 0. -1.
</event>
<event>
 7    1  0.2084210E-015  0.9000772E+02  0.7816164E-02  0.1186339E+00
        -11   -1    0    0    0    0  0.00000000000E+00  0.00000000000E+00  0.45593999997E+02  0.45594000000E+02  0.51100000000E-03 0.  1.
         11   -1    0    0    0    0 -0.00000000000E+00 -0.00000000000E+00 -0.45593999997E+02  0.45594000000E+02  0.51100000000E-03 0. -1.
    9900012    2    1    2    0    0  0.10398060777E+00 -0.11743958118E+01  0.55166175054E-01  0.90007720035E+02  0.89999981139E+02 0.  0.
         12    1    1    2    0    0 -0.10398060777E+00  0.11743958118E+01 -0.55166175054E-01  0.11802799653E+01  0.00000000000E+00 0. -1.
         11    1    3    3    0    0 -0.43922609241E+01 -0.46985458748E+01  0.72859212576E+01  0.97186901482E+01  0.51100000000E-03 0. -1.
        -11    1    3    3    0    0  0.84454891676E+01  0.21567929157E+02  0.30489079875E+02  0.38289500483E+02  0.51100000000E-03 0.  1.
         12    1    3    3    0    0 -0.39492476358E+01 -0.18043779093E+02 -0.37719834958E+02  0.41999529403E+02  0.00000000000E+00 0. -1.
</event>
<event>
 7    1  0.2084210E-015  0.9000774E+02  0.7816164E-02  0.1186339E+00
        -11   -1    0    0    0    0  0.00000000000E+00  0.00000000000E+00  0.45593999997E+02  0.45594000000E+02  0.51100000000E-03 0. -1.
         11   -1    0    0    0    0 -0.00000000000E+00 -0.00000000000E+00 -0.45593999997E+02  0.45594000000E+02  0.51100000000E-03 0.  1.
    9900012    2    1    2    0    0  0.78225767389E+00 -0.81055801126E+00  0.35225886751E+00  0.90007738305E+02  0.89999999651E+02 0.  0.
         12    1    1    2    0    0 -0.78225767389E+00  0.81055801126E+00 -0.35225886751E+00  0.11802616946E+01  0.00000000000E+00 0. -1.
         11    1    3    3    0    0  0.69688258152E-01 -0.68122593550E+01 -0.73307360518E+01  0.10007568401E+02  0.51100000000E-03 0. -1.
        -11    1    3    3    0    0 -0.35556066207E+02 -0.13000941690E+02  0.94387506442E+01  0.39017282618E+02  0.51100000000E-03 0.  1.
         12    1    3    3    0    0  0.36268635623E+02  0.19002643033E+02 -0.17557557249E+01  0.40982887287E+02  0.00000000000E+00 0. -1.
</event>
<event>
 7    1  0.2084210E-015  0.9000779E+02  0.7816164E-02  0.1186339E+00
        -11   -1    0    0    0    0  0.00000000000E+00  0.00000000000E+00  0.45593999997E+02  0.45594000000E+02  0.51100000000E-03 0. -1.
         11   -1    0    0    0    0 -0.00000000000E+00 -0.00000000000E+00 -0.45593999997E+02  0.45594000000E+02  0.51100000000E-03 0.  1.
    9900012    2    1    2    0    0 -0.12205804659E+00 -0.11336067015E+01  0.30484873342E+00  0.90007790243E+02  0.90000052274E+02 0.  0.
         12    1    1    2    0    0  0.12205804659E+00  0.11336067015E+01 -0.30484873342E+00  0.11802097570E+01  0.00000000000E+00 0. -1.
         11    1    3    3    0    0  0.78639014788E+01  0.74185552605E+01 -0.90713333657E+01  0.14112582964E+02  0.51100000000E-03 0. -1.
        -11    1    3    3    0    0  0.18087051162E+02  0.22231605423E+02 -0.11001767639E+02  0.30698934686E+02  0.51100000000E-03 0.  1.
         12    1    3    3    0    0 -0.26073010688E+02 -0.30783767385E+02  0.20377949738E+02  0.45196272593E+02  0.00000000000E+00 0. -1.
</event>
<event>
 7    1  0.2084210E-015  0.9000803E+02  0.7816164E-02  0.1186338E+00
        -11   -1    0    0    0    0  0.00000000000E+00  0.00000000000E+00  0.45593999997E+02  0.45594000000E+02  0.51100000000E-03 0.  1.
         11   -1    0    0    0    0 -0.00000000000E+00 -0.00000000000E+00 -0.45593999997E+02  0.45594000000E+02  0.51100000000E-03 0. -1.
    9900012    2    1    2    0    0  0.99941944431E+00  0.26615850160E+00 -0.56802913818E+00  0.90008026833E+02  0.90000291986E+02 0.  0.
         12    1    1    2    0    0 -0.99941944431E+00 -0.26615850160E+00  0.56802913818E+00  0.11799731673E+01  0.00000000000E+00 0. -1.
         11    1    3    3    0    0  0.79880664099E+01  0.32286797833E+01 -0.21433369463E+01  0.88784836340E+01  0.51100000000E-03 0. -1.
        -11    1    3    3    0    0  0.71560016924E+01 -0.45098762912E+00  0.39723814348E+02  0.40365742613E+02  0.51100000000E-03 0.  1.
         12    1    3    3    0    0 -0.14144648658E+02 -0.25115336526E+01 -0.38148506540E+02  0.40763800586E+02  0.00000000000E+00 0. -1.
</event>
<event>
 7    1  0.2084210E-015  0.9000769E+02  0.7816164E-02  0.1186339E+00
        -11   -1    0    0    0    0  0.00000000000E+00  0.00000000000E+00  0.45593999997E+02  0.45594000000E+02  0.51100000000E-03 0. -1.
         11   -1    0    0    0    0 -0.00000000000E+00 -0.00000000000E+00 -0.45593999997E+02  0.45594000000E+02  0.51100000000E-03 0.  1.
    9900012    2    1    2    0    0 -0.84449175199E+00 -0.82444897304E+00 -0.16017433484E-01  0.90007686912E+02  0.89999947579E+02 0.  0.
         12    1    1    2    0    0  0.84449175199E+00  0.82444897304E+00  0.16017433484E-01  0.11803130883E+01  0.00000000000E+00 0. -1.
         11    1    3    3    0    0  0.22377948954E+02  0.27149273350E+02 -0.25599446215E+01  0.35276181193E+02  0.51100000000E-03 0. -1.
        -11    1    3    3    0    0  0.49552537238E+00  0.94840714486E+01  0.41565596699E+01  0.10366780850E+02  0.51100000000E-03 0.  1.
        -12    1    3    3    0    0 -0.23717966079E+02 -0.37457793772E+02 -0.16126324819E+01  0.44364724869E+02  0.00000000000E+00 0.  1.
</event>
<event>
 7    1  0.2084210E-015  0.9000772E+02  0.7816164E-02  0.1186339E+00
        -11   -1    0    0    0    0  0.00000000000E+00  0.00000000000E+00  0.45593999997E+02  0.45594000000E+02  0.51100000000E-03 0.  1.
         11   -1    0    0    0    0 -0.00000000000E+00 -0.00000000000E+00 -0.45593999997E+02  0.45594000000E+02  0.51100000000E-03 0. -1.
    9900012    2    1    2    0    0 -0.92245056193E+00 -0.69906398749E+00  0.23120988279E+00  0.90007718886E+02  0.89999979975E+02 0.  0.
         12    1    1    2    0    0  0.92245056193E+00  0.69906398749E+00 -0.23120988279E+00  0.11802811139E+01  0.00000000000E+00 0. -1.
         11    1    3    3    0    0 -0.97279790854E+01 -0.42354418967E+01 -0.15315024159E+01  0.10719983445E+02  0.51100000000E-03 0. -1.
        -11    1    3    3    0    0  0.27615519393E+02 -0.80607699963E+01 -0.29368610082E+02  0.41110925344E+02  0.51100000000E-03 0.  1.
         12    1    3    3    0    0 -0.18809990869E+02  0.11597147906E+02  0.31131322380E+02  0.38176810097E+02  0.00000000000E+00 0. -1.
</event>
<event>
 7    1  0.2084210E-015  0.9000770E+02  0.7816164E-02  0.1186339E+00
        -11   -1    0    0    0    0  0.00000000000E+00  0.00000000000E+00  0.45593999997E+02  0.45594000000E+02  0.51100000000E-03 0.  1.
         11   -1    0    0    0    0 -0.00000000000E+00 -0.00000000000E+00 -0.45593999997E+02  0.45594000000E+02  0.51100000000E-03 0. -1.
    9900012    2    1    2    0    0 -0.77223356950E+00  0.60080326266E+00  0.66014485795E+00  0.90007703224E+02  0.89999964106E+02 0.  0.
         12    1    1    2    0    0  0.77223356950E+00 -0.60080326266E+00 -0.66014485795E+00  0.11802967761E+01  0.00000000000E+00 0. -1.
         11    1    3    3    0    0  0.18295585536E+02  0.18314896277E+02 -0.27049806335E+02  0.37441366145E+02  0.51100000000E-03 0. -1.
        -11    1    3    3    0    0  0.81658849765E+01 -0.44173254666E+01 -0.26640705682E+01  0.96587635845E+01  0.51100000000E-03 0.  1.
        -12    1    3    3    0    0 -0.27233704082E+02 -0.13296767548E+02  0.30374021761E+02  0.42907573495E+02  0.00000000000E+00 0.  1.
</event>
<event>
 7    1  0.2084210E-015  0.9000775E+02  0.7816164E-02  0.1186339E+00
        -11   -1    0    0    0    0  0.00000000000E+00  0.00000000000E+00  0.45593999997E+02  0.45594000000E+02  0.51100000000E-03 0. -1.
         11   -1    0    0    0    0 -0.00000000000E+00 -0.00000000000E+00 -0.45593999997E+02  0.45594000000E+02  0.51100000000E-03 0.  1.
    9900012    2    1    2    0    0  0.99931333815E-01 -0.10529070894E+01 -0.52381525178E+00  0.90007753404E+02  0.90000014949E+02 0.  0.
         12    1    1    2    0    0 -0.99931333815E-01  0.10529070894E+01  0.52381525178E+00  0.11802465964E+01  0.00000000000E+00 0. -1.
         11    1    3    3    0    0  0.32325087956E+02  0.12815168265E+02  0.17468055981E+02  0.38913658643E+02  0.51100000000E-03 0. -1.
        -11    1    3    3    0    0 -0.52838672273E+01  0.92352881942E+01  0.12660455187E+01  0.10715067542E+02  0.51100000000E-03 0.  1.
        -12    1    3    3    0    0 -0.26941289395E+02 -0.23103363549E+02 -0.19257916751E+02  0.40379027218E+02  0.00000000000E+00 0.  1.
</event>
<event>
 7    1  0.2084210E-015  0.9000763E+02  0.7816164E-02  0.1186339E+00
        -11   -1    0    0    0    0  0.00000000000E+00  0.00000000000E+00  0.45593999997E+02  0.45594000000E+02  0.51100000000E-03 0.  1.
         11   -1    0    0    0    0 -0.00000000000E+00 -0.00000000000E+00 -0.45593999997E+02  0.45594000000E+02  0.51100000000E-03 0. -1.
    9900012    2    1    2    0    0  0.85358208985E+00 -0.26455947257E+00  0.77115241689E+00  0.90007631351E+02  0.89999891284E+02 0.  0.
         12    1    1    2    0    0 -0.85358208985E+00  0.26455947257E+00 -0.77115241689E+00  0.11803686495E+01  0.00000000000E+00 0. -1.
         11    1    3    3    0    0 -0.41289139479E+01  0.16231913570E+02 -0.31467397239E+02  0.35647160305E+02  0.51100000000E-03 0. -1.
        -11    1    3    3    0    0  0.66730001951E+01  0.60748704316E+01 -0.53444244191E+01  0.10487890875E+02  0.51100000000E-03 0.  1.
        -12    1    3    3    0    0 -0.16905041574E+01 -0.22571343474E+02  0.37582974075E+02  0.43872580171E+02  0.00000000000E+00 0.  1.
</event>
<event>
 7    1  0.2084210E-015  0.9000775E+02  0.7816164E-02  0.1186339E+00
        -11   -1    0    0    0    0  0.00000000000E+00  0.00000000000E+00  0.45593999997E+02  0.45594000000E+02  0.51100000000E-03 0.  1.
         11   -1    0    0    0    0 -0.00000000000E+00 -0.00000000000E+00 -0.45593999997E+02  0.45594000000E+02  0.51100000000E-03 0. -1.
    9900012    2    1    2    0    0  0.56553664100E+00 -0.95588469884E+00 -0.39930234328E+00  0.90007750191E+02  0.90000011694E+02 0.  0.
         12    1    1    2    0    0 -0.56553664100E+00  0.95588469884E+00  0.39930234328E+00  0.11802498088E+01  0.00000000000E+00 0. -1.
         11    1    3    3    0    0  0.56503955440E+00 -0.56483032718E+01  0.70669735450E+01  0.90644754341E+01  0.51100000000E-03 0. -1.
        -11    1    3    3    0    0  0.12592387633E+02 -0.13770514914E+02  0.31158788670E+02  0.36318940223E+02  0.51100000000E-03 0.  1.
         12    1    3    3    0    0 -0.12591890546E+02  0.18462933487E+02 -0.38625064558E+02  0.44624334534E+02  0.00000000000E+00 0. -1.
</event>
<event>
 7    1  0.2084210E-015  0.9000769E+02  0.7816164E-02  0.1186339E+00
        -11   -1    0    0    0    0  0.00000000000E+00  0.00000000000E+00  0.45593999997E+02  0.45594000000E+02  0.51100000000E-03 0. -1.
         11   -1    0    0    0    0 -0.00000000000E+00 -0.00000000000E+00 -0.45593999997E+02  0.45594000000E+02  0.51100000000E-03 0.  1.
    9900012    2    1    2    0    0  0.71135611531E+00  0.82508624378E+00 -0.45424039709E+00  0.90007691070E+02  0.89999951792E+02 0.  0.
         12    1    1    2    0    0 -0.71135611531E+00 -0.82508624378E+00  0.45424039709E+00  0.11803089302E+01  0.00000000000E+00 0. -1.
         11    1    3    3    0    0  0.11164713905E+01  0.83171737652E+01 -0.40584221432E+01  0.93216242340E+01  0.51100000000E-03 0. -1.
        -11    1    3    3    0    0  0.28665672303E+02 -0.24018292693E+02  0.21106464031E+02  0.42942775605E+02  0.51100000000E-03 0.  1.
         12    1    3    3    0    0 -0.29070787578E+02  0.16526205172E+02 -0.17502282285E+02  0.37743291231E+02  0.00000000000E+00 0. -1.
</event>
<event>
 7    1  0.2789329E-015  0.9000773E+02  0.7816164E-02  0.1186339E+00
        -11   -1    0    0    0    0  0.00000000000E+00  0.00000000000E+00  0.45593999997E+02  0.45594000000E+02  0.51100000000E-03 0.  1.
         11   -1    0    0    0    0 -0.00000000000E+00 -0.00000000000E+00 -0.45593999997E+02  0.45594000000E+02  0.51100000000E-03 0. -1.
    9900012    2    1    2    0    0 -0.55962751782E-01  0.11101000206E+01  0.39698153840E+00  0.90007725359E+02  0.89999986534E+02 0.  0.
         12    1    1    2    0    0  0.55962751782E-01 -0.11101000206E+01 -0.39698153840E+00  0.11802746406E+01  0.00000000000E+00 0. -1.
         11    1    3    3    0    0 -0.48035418516E+01  0.14924709015E+02 -0.34292826587E+02  0.37707014057E+02  0.51100000000E-03 0. -1.
        -11    1    3    3    0    0  0.51598022769E+01  0.77209509942E+01 -0.22360668066E+01  0.95517872053E+01  0.51100000000E-03 0.  1.
        -12    1    3    3    0    0 -0.41222317711E+00 -0.21535559989E+02  0.36925874932E+02  0.42748924097E+02  0.00000000000E+00 0.  1.
</event>
<event>
 7    1  0.2084210E-015  0.9000796E+02  0.7816164E-02  0.1186339E+00
        -11   -1    0    0    0    0  0.00000000000E+00  0.00000000000E+00  0.45593999997E+02  0.45594000000E+02  0.51100000000E-03 0. -1.
         11   -1    0    0    0    0 -0.00000000000E+00 -0.00000000000E+00 -0.45593999997E+02  0.45594000000E+02  0.51100000000E-03 0.  1.
    9900012    2    1    2    0    0 -0.10609147061E+01 -0.30081048576E-01 -0.51580889300E+00  0.90007956061E+02  0.90000220281E+02 0.  0.
         12    1    1    2    0    0  0.10609147061E+01  0.30081048576E-01  0.51580889300E+00  0.11800439386E+01  0.00000000000E+00 0. -1.
         11    1    3    3    0    0 -0.50087391500E+00  0.34452210421E+01 -0.83316726318E+01  0.90297946717E+01  0.51100000000E-03 0. -1.
        -11    1    3    3    0    0  0.97395339582E+01 -0.14683061797E+02 -0.33003921365E+02  0.37412693717E+02  0.51100000000E-03 0.  1.
         12    1    3    3    0    0 -0.10299574749E+02  0.11207759706E+02  0.40819785104E+02  0.43565467673E+02  0.00000000000E+00 0. -1.
</event>
<event>
 7    1  0.2084210E-015  0.9000768E+02  0.7816164E-02  0.1186339E+00
        -11   -1    0    0    0    0  0.00000000000E+00  0.00000000000E+00  0.45593999997E+02  0.45594000000E+02  0.51100000000E-03 0. -1.
         11   -1    0    0    0    0 -0.00000000000E+00 -0.00000000000E+00 -0.45593999997E+02  0.45594000000E+02  0.51100000000E-03 0.  1.
    9900012    2    1    2    0    0  0.17334544906E+00  0.10111820678E+01 -0.58362497740E+00  0.90007679733E+02  0.89999940305E+02 0.  0.
         12    1    1    2    0    0 -0.17334544906E+00 -0.10111820678E+01  0.58362497740E+00  0.11803202672E+01  0.00000000000E+00 0. -1.
         11    1    3    3    0    0 -0.73255679292E+01 -0.10529871826E+01 -0.85612418637E+01  0.11316695189E+02  0.51100000000E-03 0. -1.
        -11    1    3    3    0    0  0.30274570673E+01 -0.11459965744E+02 -0.33129412817E+02  0.35185995865E+02  0.51100000000E-03 0.  1.
         12    1    3    3    0    0  0.44714563110E+01  0.13524134995E+02  0.41107029703E+02  0.43504988679E+02  0.00000000000E+00 0. -1.
</event>
<event>
 7    1  0.2084210E-015  0.9000772E+02  0.7816164E-02  0.1186339E+00
        -11   -1    0    0    0    0  0.00000000000E+00  0.00000000000E+00  0.45593999997E+02  0.45594000000E+02  0.51100000000E-03 0.  1.
         11   -1    0    0    0    0 -0.00000000000E+00 -0.00000000000E+00 -0.45593999997E+02  0.45594000000E+02  0.51100000000E-03 0. -1.
    9900012    2    1    2    0    0  0.11707092685E+01  0.18697669132E-01  0.14881453158E+00  0.90007722253E+02  0.89999983387E+02 0.  0.
         12    1    1    2    0    0 -0.11707092685E+01 -0.18697669132E-01 -0.14881453158E+00  0.11802777465E+01  0.00000000000E+00 0. -1.
         11    1    3    3    0    0  0.90053979129E+01 -0.29133884318E+01  0.16384443427E+00  0.94663545773E+01  0.51100000000E-03 0. -1.
        -11    1    3    3    0    0 -0.50771282446E+00 -0.25536588057E+02  0.29406907824E+02  0.38950498455E+02  0.51100000000E-03 0.  1.
         12    1    3    3    0    0 -0.73269758199E+01  0.28468674158E+02 -0.29421937727E+02  0.41590869221E+02  0.00000000000E+00 0. -1.
</event>
<event>
 7    1  0.2084210E-015  0.9000715E+02  0.7816164E-02  0.1186340E+00
        -11   -1    0    0    0    0  0.00000000000E+00  0.00000000000E+00  0.45593999997E+02  0.45594000000E+02  0.51100000000E-03 0.  1.
         11   -1    0    0    0    0 -0.00000000000E+00 -0.00000000000E+00 -0.45593999997E+02  0.45594000000E+02  0.51100000000E-03 0. -1.
    9900012    2    1    2    0    0 -0.13573742494E+00 -0.39194672581E+00  0.11056008514E+01  0.90007152793E+02  0.89999406408E+02 0.  0.
         12    1    1    2    0    0  0.13573742494E+00  0.39194672581E+00 -0.11056008514E+01  0.11808472073E+01  0.00000000000E+00 0. -1.
         11    1    3    3    0    0  0.28808391793E+01 -0.79063974581E+01 -0.46595000273E+01  0.96187990887E+01  0.51100000000E-03 0. -1.
        -11    1    3    3    0    0 -0.10447048258E+01 -0.16085161377E+00  0.42649334587E+02  0.42662431042E+02  0.51100000000E-03 0.  1.
         12    1    3    3    0    0 -0.19718717785E+01  0.76753023460E+01 -0.36884233709E+02  0.37725922662E+02  0.00000000000E+00 0. -1.
</event>
<event>
 7    1  0.2084210E-015  0.9000811E+02  0.7816164E-02  0.1186338E+00
        -11   -1    0    0    0    0  0.00000000000E+00  0.00000000000E+00  0.45593999997E+02  0.45594000000E+02  0.51100000000E-03 0.  1.
         11   -1    0    0    0    0 -0.00000000000E+00 -0.00000000000E+00 -0.45593999997E+02  0.45594000000E+02  0.51100000000E-03 0. -1.
    9900012    2    1    2    0    0 -0.92408006903E-01 -0.11536199903E+01 -0.22969873336E+00  0.90008110247E+02  0.90000376501E+02 0.  0.
         12    1    1    2    0    0  0.92408006903E-01  0.11536199903E+01  0.22969873336E+00  0.11798897533E+01  0.00000000000E+00 0. -1.
         11    1    3    3    0    0  0.89774355883E+01 -0.34766135223E+01 -0.96675706016E+00  0.96755263836E+01  0.51100000000E-03 0. -1.
        -11    1    3    3    0    0  0.22519786132E+01 -0.24347689553E+02  0.30301974080E+02  0.38937013595E+02  0.51100000000E-03 0.  1.
         12    1    3    3    0    0 -0.11321822208E+02  0.26670683085E+02 -0.29564915753E+02  0.41395570268E+02  0.00000000000E+00 0. -1.
</event>
<event>
 7    1  0.2084210E-015  0.9000772E+02  0.7816164E-02  0.1186339E+00
        -11   -1    0    0    0    0  0.00000000000E+00  0.00000000000E+00  0.45593999997E+02  0.45594000000E+02  0.51100000000E-03 0. -1.
         11   -1    0    0    0    0 -0.00000000000E+00 -0.00000000000E+00 -0.45593999997E+02  0.45594000000E+02  0.51100000000E-03 0.  1.
    9900012    2    1    2    0    0  0.71075204615E+00  0.86447612769E+00 -0.37493715172E+00  0.90007718121E+02  0.89999979200E+02 0.  0.
         12    1    1    2    0    0 -0.71075204615E+00 -0.86447612769E+00  0.37493715172E+00  0.11802818791E+01  0.00000000000E+00 0. -1.
         11    1    3    3    0    0 -0.24559861814E+01  0.64436195335E+01  0.71332448522E+01  0.99214556996E+01  0.51100000000E-03 0. -1.
        -11    1    3    3    0    0  0.17438155443E+02  0.15177399830E+01 -0.40128649359E+02  0.43780147322E+02  0.51100000000E-03 0.  1.
         12    1    3    3    0    0 -0.14271417215E+02 -0.70968833888E+01  0.32620467355E+02  0.36306115099E+02  0.00000000000E+00 0. -1.
</event>
<event>
 7    1  0.2084210E-015  0.9000757E+02  0.7816164E-02  0.1186339E+00
        -11   -1    0    0    0    0  0.00000000000E+00  0.00000000000E+00  0.45593999997E+02  0.45594000000E+02  0.51100000000E-03 0. -1.
         11   -1    0    0    0    0 -0.00000000000E+00 -0.00000000000E+00 -0.45593999997E+02  0.45594000000E+02  0.51100000000E-03 0.  1.
    9900012    2    1    2    0    0 -0.24725505231E+00  0.53703907689E+00  0.10216987742E+01  0.90007570241E+02  0.89999829368E+02 0.  0.
         12    1    1    2    0    0  0.24725505231E+00 -0.53703907689E+00 -0.10216987742E+01  0.11804297591E+01  0.00000000000E+00 0. -1.
         11    1    3    3    0    0  0.19625051281E+02 -0.18300051953E+02  0.22675841808E+02  0.35131586090E+02  0.51100000000E-03 0. -1.
        -11    1    3    3    0    0  0.71098062609E+01 -0.87284543126E+00  0.76154655215E+01  0.10454975829E+02  0.51100000000E-03 0.  1.
        -12    1    3    3    0    0 -0.26982112594E+02  0.19709936461E+02 -0.29269608555E+02  0.44421008322E+02  0.00000000000E+00 0.  1.
</event>
<event>
 7    1  0.2143963E-015  0.9000766E+02  0.7816164E-02  0.1186339E+00
        -11   -1    0    0    0    0  0.00000000000E+00  0.00000000000E+00  0.45593999997E+02  0.45594000000E+02  0.51100000000E-03 0. -1.
         11   -1    0    0    0    0 -0.00000000000E+00 -0.00000000000E+00 -0.45593999997E+02  0.45594000000E+02  0.51100000000E-03 0.  1.
    9900012    2    1    2    0    0 -0.75617227139E+00 -0.90584139061E+00 -0.29126717137E-01  0.90007663821E+02  0.89999924184E+02 0.  0.
         12    1    1    2    0    0  0.75617227139E+00  0.90584139061E+00  0.29126717137E-01  0.11803361786E+01  0.00000000000E+00 0. -1.
         11    1    3    3    0    0 -0.17921118568E+01  0.30941678542E+01  0.41555157842E+02  0.41708712317E+02  0.51100000000E-03 0. -1.
        -11    1    3    3    0    0  0.69020799041E+01  0.48716699911E+01 -0.42066276518E+01  0.94375628192E+01  0.51100000000E-03 0.  1.
        -12    1    3    3    0    0 -0.58661403187E+01 -0.88716792359E+01 -0.37377656907E+02  0.38861388685E+02  0.00000000000E+00 0.  1.
</event>
<event>
 7    1  0.2084210E-015  0.9000777E+02  0.7816164E-02  0.1186339E+00
        -11   -1    0    0    0    0  0.00000000000E+00  0.00000000000E+00  0.45593999997E+02  0.45594000000E+02  0.51100000000E-03 0.  1.
         11   -1    0    0    0    0 -0.00000000000E+00 -0.00000000000E+00 -0.45593999997E+02  0.45594000000E+02  0.51100000000E-03 0. -1.
    9900012    2    1    2    0    0 -0.98996138962E+00 -0.63581867692E+00  0.93019472878E-01  0.90007770546E+02  0.90000032317E+02 0.  0.
         12    1    1    2    0    0  0.98996138962E+00  0.63581867692E+00 -0.93019472878E-01  0.11802294545E+01  0.00000000000E+00 0. -1.
         11    1    3    3    0    0  0.48038638195E+01  0.76162129897E+01 -0.19439916532E+01  0.92121068008E+01  0.51100000000E-03 0. -1.
        -11    1    3    3    0    0  0.17953655181E+02  0.22209830772E+02  0.23162607709E+02  0.36771139681E+02  0.51100000000E-03 0.  1.
         12    1    3    3    0    0 -0.23747480390E+02 -0.30461862439E+02 -0.21125596583E+02  0.44024524064E+02  0.00000000000E+00 0. -1.
</event>
<event>
 7    1  0.2084210E-015  0.9000773E+02  0.7816164E-02  0.1186339E+00
        -11   -1    0    0    0    0  0.00000000000E+00  0.00000000000E+00  0.45593999997E+02  0.45594000000E+02  0.51100000000E-03 0. -1.
         11   -1    0    0    0    0 -0.00000000000E+00 -0.00000000000E+00 -0.45593999997E+02  0.45594000000E+02  0.51100000000E-03 0.  1.
    9900012    2    1    2    0    0  0.83588044407E+00  0.33923769499E+00 -0.76109748474E+00  0.90007725578E+02  0.89999986755E+02 0.  0.
         12    1    1    2    0    0 -0.83588044407E+00 -0.33923769499E+00  0.76109748474E+00  0.11802744222E+01  0.00000000000E+00 0. -1.
         11    1    3    3    0    0 -0.22408697256E+01 -0.21308966992E+01 -0.87222096498E+01  0.92541428185E+01  0.51100000000E-03 0. -1.
        -11    1    3    3    0    0 -0.10370819002E+02 -0.30270206978E+02 -0.18134609094E+02  0.36779115874E+02  0.51100000000E-03 0.  1.
         12    1    3    3    0    0  0.13447569172E+02  0.32740341372E+02  0.26095721259E+02  0.43974466885E+02  0.00000000000E+00 0. -1.
</event>
<event>
 7    1  0.2084210E-015  0.9000767E+02  0.7816164E-02  0.1186339E+00
        -11   -1    0    0    0    0  0.00000000000E+00  0.00000000000E+00  0.45593999997E+02  0.45594000000E+02  0.51100000000E-03 0. -1.
         11   -1    0    0    0    0 -0.00000000000E+00 -0.00000000000E+00 -0.45593999997E+02  0.45594000000E+02  0.51100000000E-03 0.  1.
    9900012    2    1    2    0    0 -0.10447411605E+01  0.36770377179E+00 -0.40804245360E+00  0.90007665810E+02  0.89999926199E+02 0.  0.
         12    1    1    2    0    0  0.10447411605E+01 -0.36770377179E+00  0.40804245360E+00  0.11803341900E+01  0.00000000000E+00 0. -1.
         11    1    3    3    0    0 -0.56973501185E+01  0.89291214649E+00  0.71794002335E+01  0.92087392431E+01  0.51100000000E-03 0. -1.
        -11    1    3    3    0    0  0.38333280667E+02  0.17418973088E+02 -0.66315840024E+01  0.42624393682E+02  0.51100000000E-03 0.  1.
         12    1    3    3    0    0 -0.33680671709E+02 -0.17944181462E+02 -0.95585868465E+00  0.38174532885E+02  0.00000000000E+00 0. -1.
</event>
<event>
 7    1  0.2084210E-015  0.9000763E+02  0.7816164E-02  0.1186339E+00
        -11   -1    0    0    0    0  0.00000000000E+00  0.00000000000E+00  0.45593999997E+02  0.45594000000E+02  0.51100000000E-03 0.  1.
         11   -1    0    0    0    0 -0.00000000000E+00 -0.00000000000E+00 -0.45593999997E+02  0.45594000000E+02  0.51100000000E-03 0. -1.
    9900012    2    1    2    0    0 -0.80986389316E+00 -0.85581620477E+00  0.70457157737E-01  0.90007633484E+02  0.89999893446E+02 0.  0.
         12    1    1    2    0    0  0.80986389316E+00  0.85581620477E+00 -0.70457157737E-01  0.11803665163E+01  0.00000000000E+00 0. -1.
         11    1    3    3    0    0  0.63787190879E+01 -0.40069384093E+01 -0.56124048256E+01  0.93937586091E+01  0.51100000000E-03 0. -1.
        -11    1    3    3    0    0  0.17546394198E+02 -0.22495165263E+02  0.26844174069E+02  0.39172925488E+02  0.51100000000E-03 0.  1.
         12    1    3    3    0    0 -0.24734977179E+02  0.25646287467E+02 -0.21161312086E+02  0.41440949387E+02  0.00000000000E+00 0. -1.
</event>
<event>
 7    1  0.2084210E-015  0.9000780E+02  0.7816164E-02  0.1186339E+00
        -11   -1    0    0    0    0  0.00000000000E+00  0.00000000000E+00  0.45593999997E+02  0.45594000000E+02  0.51100000000E-03 0.  1.
         11   -1    0    0    0    0 -0.00000000000E+00 -0.00000000000E+00 -0.45593999997E+02  0.45594000000E+02  0.51100000000E-03 0. -1.
    9900012    2    1    2    0    0  0.87686200962E+00 -0.31715691124E+00  0.72345723459E+00  0.90007802618E+02  0.90000064813E+02 0.  0.
         12    1    1    2    0    0 -0.87686200962E+00  0.31715691124E+00 -0.72345723459E+00  0.11801973820E+01  0.00000000000E+00 0. -1.
         11    1    3    3    0    0 -0.25265240158E+02  0.22918924815E+02 -0.22044185225E+02  0.40614721191E+02  0.51100000000E-03 0. -1.
        -11    1    3    3    0    0 -0.13485341927E+01 -0.93357346101E+01 -0.22634341548E+01  0.97003927556E+01  0.51100000000E-03 0.  1.
        -12    1    3    3    0    0  0.27490636360E+02 -0.13900347116E+02  0.25031076615E+02  0.39692688671E+02  0.00000000000E+00 0.  1.
</event>
<event>
 7    1  0.2084210E-015  0.9000769E+02  0.7816164E-02  0.1186339E+00
        -11   -1    0    0    0    0  0.00000000000E+00  0.00000000000E+00  0.45593999997E+02  0.45594000000E+02  0.51100000000E-03 0. -1.
         11   -1    0    0    0    0 -0.00000000000E+00 -0.00000000000E+00 -0.45593999997E+02  0.45594000000E+02  0.51100000000E-03 0.  1.
    9900012    2    1    2    0    0  0.83287524527E+00 -0.77611945321E+00 -0.31157936045E+00  0.90007693143E+02  0.89999953892E+02 0.  0.
         12    1    1    2    0    0 -0.83287524527E+00  0.77611945321E+00  0.31157936045E+00  0.11803068574E+01  0.00000000000E+00 0. -1.
         11    1    3    3    0    0  0.23223675084E+00  0.39073395761E+02  0.65175848116E+01  0.39613925611E+02  0.51100000000E-03 0. -1.
        -11    1    3    3    0    0 -0.68491650401E+01  0.14523326073E+01 -0.45775487117E+01  0.83650633122E+01  0.51100000000E-03 0.  1.
        -12    1    3    3    0    0  0.74498035345E+01 -0.41301847822E+02 -0.22516154604E+01  0.42028704220E+02  0.00000000000E+00 0.  1.
</event>
<event>
 7    1  0.2084210E-015  0.9000768E+02  0.7816164E-02  0.1186339E+00
        -11   -1    0    0    0    0  0.00000000000E+00  0.00000000000E+00  0.45593999997E+02  0.45594000000E+02  0.51100000000E-03 0. -1.
         11   -1    0    0    0    0 -0.00000000000E+00 -0.00000000000E+00 -0.45593999997E+02  0.45594000000E+02  0.51100000000E-03 0.  1.
    9900012    2    1    2    0    0 -0.49703471323E+00 -0.91826918127E+00 -0.55036655278E+00  0.90007675834E+02  0.89999936355E+02 0.  0.
         12    1    1    2    0    0  0.49703471323E+00  0.91826918127E+00  0.55036655278E+00  0.11803241664E+01  0.00000000000E+00 0. -1.
         11    1    3    3    0    0 -0.93177516888E+01  0.12770132778E+01  0.21814165446E+00  0.94073824993E+01  0.51100000000E-03 0. -1.
        -11    1    3    3    0    0 -0.97559228356E+01  0.36407906889E+02 -0.19608802924E+01  0.37743327439E+02  0.51100000000E-03 0.  1.
         12    1    3    3    0    0  0.18576639811E+02 -0.38603189348E+02  0.11923720851E+01  0.42856965895E+02  0.00000000000E+00 0. -1.
</event>
<event>
 7    1  0.2084210E-015  0.9000772E+02  0.7816164E-02  0.1186339E+00
        -11   -1    0    0    0    0  0.00000000000E+00  0.00000000000E+00  0.45593999997E+02  0.45594000000E+02  0.51100000000E-03 0. -1.
         11   -1    0    0    0    0 -0.00000000000E+00 -0.00000000000E+00 -0.45593999997E+02  0.45594000000E+02  0.51100000000E-03 0.  1.
    9900012    2    1    2    0    0  0.11213773120E+01  0.30678106822E+00 -0.20361669633E+00  0.90007719754E+02  0.89999980855E+02 0.  0.
         12    1    1    2    0    0 -0.11213773120E+01 -0.30678106822E+00  0.20361669633E+00  0.11802802459E+01  0.00000000000E+00 0. -1.
         11    1    3    3    0    0 -0.39155330465E+00 -0.44153222328E+01 -0.76876118434E+01  0.88739934937E+01  0.51100000000E-03 0. -1.
        -11    1    3    3    0    0  0.47999293072E+01  0.26368388955E+02 -0.28430260576E+02  0.39071869345E+02  0.51100000000E-03 0.  1.
         12    1    3    3    0    0 -0.32869986905E+01 -0.21646285654E+02  0.35914255723E+02  0.42061856915E+02  0.00000000000E+00 0. -1.
</event>
<event>
 7    1  0.2084210E-015  0.9000781E+02  0.7816164E-02  0.1186339E+00
        -11   -1    0    0    0    0  0.00000000000E+00  0.00000000000E+00  0.45593999997E+02  0.45594000000E+02  0.51100000000E-03 0.  1.
         11   -1    0    0    0    0 -0.00000000000E+00 -0.00000000000E+00 -0.45593999997E+02  0.45594000000E+02  0.51100000000E-03 0. -1.
    9900012    2    1    2    0    0  0.73916983873E+00  0.16176115021E+00  0.90570616246E+00  0.90007812569E+02  0.90000074895E+02 0.  0.
         12    1    1    2    0    0 -0.73916983873E+00 -0.16176115021E+00 -0.90570616246E+00  0.11801874313E+01  0.00000000000E+00 0. -1.
         11    1    3    3    0    0 -0.28053139916E+01 -0.44633644450E+01  0.92242199984E+01  0.10624389093E+02  0.51100000000E-03 0. -1.
        -11    1    3    3    0    0 -0.28997109031E+02  0.16668813104E+02  0.15934888466E+02  0.37048648196E+02  0.51100000000E-03 0.  1.
         12    1    3    3    0    0  0.32541592862E+02 -0.12043687508E+02 -0.24253402302E+02  0.42334775280E+02  0.00000000000E+00 0. -1.
</event>
<event>
 7    1  0.2084210E-015  0.9000770E+02  0.7816164E-02  0.1186339E+00
        -11   -1    0    0    0    0  0.00000000000E+00  0.00000000000E+00  0.45593999997E+02  0.45594000000E+02  0.51100000000E-03 0.  1.
         11   -1    0    0    0    0 -0.00000000000E+00 -0.00000000000E+00 -0.45593999997E+02  0.45594000000E+02  0.51100000000E-03 0. -1.
    9900012    2    1    2    0    0  0.85112128140E+00 -0.74924702560E+00  0.32761449236E+00  0.90007699277E+02  0.89999960107E+02 0.  0.
         12    1    1    2    0    0 -0.85112128140E+00  0.74924702560E+00 -0.32761449236E+00  0.11803007230E+01  0.00000000000E+00 0. -1.
         11    1    3    3    0    0  0.96307552793E+01  0.52957757297E+01 -0.58852337805E+01  0.12467263723E+02  0.51100000000E-03 0. -1.
        -11    1    3    3    0    0 -0.29925358684E+01 -0.40495247333E+02  0.11516444874E+02  0.42207213013E+02  0.51100000000E-03 0.  1.
         12    1    3    3    0    0 -0.57870981295E+01  0.34450224578E+02 -0.53035966012E+01  0.35333222541E+02  0.00000000000E+00 0. -1.
</event>
<event>
 7    1  0.2084210E-015  0.9000769E+02  0.7816164E-02  0.1186339E+00
        -11   -1    0    0    0    0  0.00000000000E+00  0.00000000000E+00  0.45593999997E+02  0.45594000000E+02  0.51100000000E-03 0. -1.
         11   -1    0    0    0    0 -0.00000000000E+00 -0.00000000000E+00 -0.45593999997E+02  0.45594000000E+02  0.51100000000E-03 0.  1.
    9900012    2    1    2    0    0  0.72767831543E+00  0.65621089633E+00 -0.65802685729E+00  0.90007691644E+02  0.89999952373E+02 0.  0.
         12    1    1    2    0    0 -0.72767831543E+00 -0.65621089633E+00  0.65802685729E+00  0.11803083564E+01  0.00000000000E+00 0. -1.
         11    1    3    3    0    0  0.14902007396E+02  0.32754513803E+02 -0.79927569919E+01  0.36862069441E+02  0.51100000000E-03 0. -1.
        -11    1    3    3    0    0 -0.85110664762E+01  0.80022247838E+01 -0.12448834738E+01  0.11748344104E+02  0.51100000000E-03 0.  1.
        -12    1    3    3    0    0 -0.56632626041E+01 -0.40100527690E+02  0.85796136085E+01  0.41397278099E+02  0.00000000000E+00 0.  1.
</event>
<event>
 7    1  0.2084210E-015  0.9000803E+02  0.7816164E-02  0.1186338E+00
        -11   -1    0    0    0    0  0.00000000000E+00  0.00000000000E+00  0.45593999997E+02  0.45594000000E+02  0.51100000000E-03 0. -1.
         11   -1    0    0    0    0 -0.00000000000E+00 -0.00000000000E+00 -0.45593999997E+02  0.45594000000E+02  0.51100000000E-03 0.  1.
    9900012    2    1    2    0    0  0.65891167309E+00 -0.95953832599E+00 -0.19350997174E+00  0.90008031991E+02  0.90000297213E+02 0.  0.
         12    1    1    2    0    0 -0.65891167309E+00  0.95953832599E+00  0.19350997174E+00  0.11799680085E+01  0.00000000000E+00 0. -1.
         11    1    3    3    0    0  0.37385249853E+02  0.73960314866E-01  0.27902016861E+01  0.37489299839E+02  0.51100000000E-03 0. -1.
        -11    1    3    3    0    0  0.53558004230E+01 -0.78321751983E+01  0.16825263089E+01  0.96363095399E+01  0.51100000000E-03 0.  1.
        -12    1    3    3    0    0 -0.42082138603E+02  0.67986765574E+01 -0.46662379667E+01  0.42882422612E+02  0.00000000000E+00 0.  1.
</event>
<event>
 7    1  0.2084210E-015  0.9000771E+02  0.7816164E-02  0.1186339E+00
        -11   -1    0    0    0    0  0.00000000000E+00  0.00000000000E+00  0.45593999997E+02  0.45594000000E+02  0.51100000000E-03 0. -1.
         11   -1    0    0    0    0 -0.00000000000E+00 -0.00000000000E+00 -0.45593999997E+02  0.45594000000E+02  0.51100000000E-03 0.  1.
    9900012    2    1    2    0    0 -0.76611571058E+00  0.44578782104E+00 -0.77938193100E+00  0.90007705012E+02  0.89999965919E+02 0.  0.
         12    1    1    2    0    0  0.76611571058E+00 -0.44578782104E+00  0.77938193100E+00  0.11802949876E+01  0.00000000000E+00 0. -1.
         11    1    3    3    0    0 -0.12613185174E+02 -0.68835965910E+01  0.24630839803E+02  0.28515865968E+02  0.51100000000E-03 0. -1.
        -11    1    3    3    0    0  0.10931550189E+00 -0.13413774044E+02  0.11423717174E+02  0.17619381326E+02  0.51100000000E-03 0.  1.
        -12    1    3    3    0    0  0.11737753961E+02  0.20743158456E+02 -0.36833938908E+02  0.43872457718E+02  0.00000000000E+00 0.  1.
</event>
<event>
 7    1  0.2084210E-015  0.9000760E+02  0.7816164E-02  0.1186339E+00
        -11   -1    0    0    0    0  0.00000000000E+00  0.00000000000E+00  0.45593999997E+02  0.45594000000E+02  0.51100000000E-03 0. -1.
         11   -1    0    0    0    0 -0.00000000000E+00 -0.00000000000E+00 -0.45593999997E+02  0.45594000000E+02  0.51100000000E-03 0.  1.
    9900012    2    1    2    0    0  0.11362109417E+01 -0.15473582272E+00 -0.28002499730E+00  0.90007604948E+02  0.89999864534E+02 0.  0.
         12    1    1    2    0    0 -0.11362109417E+01  0.15473582272E+00  0.28002499730E+00  0.11803950516E+01  0.00000000000E+00 0. -1.
         11    1    3    3    0    0 -0.36706671784E+02 -0.18689157897E+02 -0.93332751511E+01  0.42234753482E+02  0.51100000000E-03 0. -1.
        -11    1    3    3    0    0  0.49612281777E+01 -0.99729052258E-02  0.87064556931E+01  0.10020791161E+02  0.51100000000E-03 0.  1.
        -12    1    3    3    0    0  0.32881654547E+02  0.18544394980E+02  0.34679446062E+00  0.37752060306E+02  0.00000000000E+00 0.  1.
</event>
<event>
 7    1  0.2084210E-015  0.9000766E+02  0.7816164E-02  0.1186339E+00
        -11   -1    0    0    0    0  0.00000000000E+00  0.00000000000E+00  0.45593999997E+02  0.45594000000E+02  0.51100000000E-03 0. -1.
         11   -1    0    0    0    0 -0.00000000000E+00 -0.00000000000E+00 -0.45593999997E+02  0.45594000000E+02  0.51100000000E-03 0.  1.
    9900012    2    1    2    0    0 -0.88571382436E+00  0.68573101691E+00 -0.37215336005E+00  0.90007655080E+02  0.89999915327E+02 0.  0.
         12    1    1    2    0    0  0.88571382436E+00 -0.68573101691E+00  0.37215336005E+00  0.11803449198E+01  0.00000000000E+00 0. -1.
         11    1    3    3    0    0 -0.32243377052E+01 -0.77938690108E+01  0.35785849477E+01  0.91622605444E+01  0.51100000000E-03 0. -1.
        -11    1    3    3    0    0 -0.43618928377E+01 -0.11576873539E+02  0.34671849742E+02  0.36812868332E+02  0.51100000000E-03 0.  1.
         12    1    3    3    0    0  0.67005167185E+01  0.20056473567E+02 -0.38622588049E+02  0.44032526204E+02  0.00000000000E+00 0. -1.
</event>
<event>
 7    1  0.2084210E-015  0.9000771E+02  0.7816164E-02  0.1186339E+00
        -11   -1    0    0    0    0  0.00000000000E+00  0.00000000000E+00  0.45593999997E+02  0.45594000000E+02  0.51100000000E-03 0.  1.
         11   -1    0    0    0    0 -0.00000000000E+00 -0.00000000000E+00 -0.45593999997E+02  0.45594000000E+02  0.51100000000E-03 0. -1.
    9900012    2    1    2    0    0 -0.77264562162E+00 -0.65430582167E+00 -0.60661411406E+00  0.90007712726E+02  0.89999973734E+02 0.  0.
         12    1    1    2    0    0  0.77264562162E+00  0.65430582167E+00  0.60661411406E+00  0.11802872736E+01  0.00000000000E+00 0. -1.
         11    1    3    3    0    0 -0.13223951021E+02  0.46138234711E+01  0.17146007515E+01  0.14110283613E+02  0.51100000000E-03 0. -1.
        -11    1    3    3    0    0 -0.27759718474E+02  0.11236548925E+02  0.84487244923E+01  0.31116602438E+02  0.51100000000E-03 0.  1.
         12    1    3    3    0    0  0.40211023873E+02 -0.16504678217E+02 -0.10769939358E+02  0.44780826676E+02  0.00000000000E+00 0. -1.
</event>
<event>
 7    1  0.2084210E-015  0.9000794E+02  0.7816164E-02  0.1186339E+00
        -11   -1    0    0    0    0  0.00000000000E+00  0.00000000000E+00  0.45593999997E+02  0.45594000000E+02  0.51100000000E-03 0. -1.
         11   -1    0    0    0    0 -0.00000000000E+00 -0.00000000000E+00 -0.45593999997E+02  0.45594000000E+02  0.51100000000E-03 0.  1.
    9900012    2    1    2    0    0 -0.96232001737E-01  0.11757706048E+01 -0.29201974462E-01  0.90007936498E+02  0.90000200460E+02 0.  0.
         12    1    1    2    0    0  0.96232001737E-01 -0.11757706048E+01  0.29201974462E-01  0.11800635019E+01  0.00000000000E+00 0. -1.
         11    1    3    3    0    0 -0.68874918835E+01 -0.76219335417E+01 -0.39692301608E+01  0.11013001575E+02  0.51100000000E-03 0. -1.
        -11    1    3    3    0    0  0.77770324683E+01 -0.33831793402E+02 -0.59544368593E+01  0.35221127145E+02  0.51100000000E-03 0.  1.
         12    1    3    3    0    0 -0.98577258648E+00  0.42629497549E+02  0.98944650457E+01  0.43773807778E+02  0.00000000000E+00 0. -1.
</event>
<event>
 7    1  0.2146119E-015  0.9000773E+02  0.7816164E-02  0.1186339E+00
        -11   -1    0    0    0    0  0.00000000000E+00  0.00000000000E+00  0.45593999997E+02  0.45594000000E+02  0.51100000000E-03 0.  1.
         11   -1    0    0    0    0 -0.00000000000E+00 -0.00000000000E+00 -0.45593999997E+02  0.45594000000E+02  0.51100000000E-03 0. -1.
    9900012    2    1    2    0    0  0.46016086714E+00  0.57801897978E+00  0.92043112300E+00  0.90007725703E+02  0.89999986882E+02 0.  0.
         12    1    1    2    0    0 -0.46016086714E+00 -0.57801897978E+00 -0.92043112300E+00  0.11802742973E+01  0.00000000000E+00 0. -1.
         11    1    3    3    0    0 -0.32339819920E+02 -0.92847084125E+00 -0.14605402814E+02  0.35497095687E+02  0.51100000000E-03 0. -1.
        -11    1    3    3    0    0 -0.93917625918E+01 -0.19976555810E+01  0.60360873546E+00  0.96208199322E+01  0.51100000000E-03 0.  1.
        -12    1    3    3    0    0  0.42191743379E+02  0.35041454020E+01  0.14922225202E+02  0.44889810084E+02  0.00000000000E+00 0.  1.
</event>
<event>
 7    1  0.2287317E-015  0.9000771E+02  0.7816164E-02  0.1186339E+00
        -11   -1    0    0    0    0  0.00000000000E+00  0.00000000000E+00  0.45593999997E+02  0.45594000000E+02  0.51100000000E-03 0.  1.
         11   -1    0    0    0    0 -0.00000000000E+00 -0.00000000000E+00 -0.45593999997E+02  0.45594000000E+02  0.51100000000E-03 0. -1.
    9900012    2    1    2    0    0 -0.11408378635E+01 -0.91176034287E-01  0.28854914686E+00  0.90007709904E+02  0.89999970875E+02 0.  0.
         12    1    1    2    0    0  0.11408378635E+01  0.91176034287E-01 -0.28854914686E+00  0.11802900957E+01  0.00000000000E+00 0. -1.
         11    1    3    3    0    0  0.37999406576E+02  0.41704657445E+01 -0.14648404819E+02  0.40938044026E+02  0.51100000000E-03 0. -1.
        -11    1    3    3    0    0 -0.27713627408E+01 -0.90490486101E+01  0.37549170902E-02  0.94639181394E+01  0.51100000000E-03 0.  1.
        -12    1    3    3    0    0 -0.36368881698E+02  0.47874068313E+01  0.14933199049E+02  0.39605747739E+02  0.00000000000E+00 0.  1.
</event>
<event>
 7    1  0.2084210E-015  0.9000785E+02  0.7816164E-02  0.1186339E+00
        -11   -1    0    0    0    0  0.00000000000E+00  0.00000000000E+00  0.45593999997E+02  0.45594000000E+02  0.51100000000E-03 0.  1.
         11   -1    0    0    0    0 -0.00000000000E+00 -0.00000000000E+00 -0.45593999997E+02  0.45594000000E+02  0.51100000000E-03 0. -1.
    9900012    2    1    2    0    0  0.89614940300E+00  0.72783038315E+00 -0.24482894658E+00  0.90007846606E+02  0.90000109382E+02 0.  0.
         12    1    1    2    0    0 -0.89614940300E+00 -0.72783038315E+00  0.24482894658E+00  0.11801533935E+01  0.00000000000E+00 0. -1.
         11    1    3    3    0    0  0.31906338836E+01  0.20266476201E+02 -0.30312140066E+02  0.36602404810E+02  0.51100000000E-03 0. -1.
        -11    1    3    3    0    0 -0.37007116453E+00 -0.14046588257E+01 -0.96199979559E+01  0.97290482584E+01  0.51100000000E-03 0.  1.
        -12    1    3    3    0    0 -0.19244133161E+01 -0.18133986992E+02  0.39687309076E+02  0.43676393538E+02  0.00000000000E+00 0.  1.
</event>
<event>
 7    1  0.2084210E-015  0.9000733E+02  0.7816164E-02  0.1186340E+00
        -11   -1    0    0    0    0  0.00000000000E+00  0.00000000000E+00  0.45593999997E+02  0.45594000000E+02  0.51100000000E-03 0. -1.
         11   -1    0    0    0    0 -0.00000000000E+00 -0.00000000000E+00 -0.45593999997E+02  0.45594000000E+02  0.51100000000E-03 0.  1.
    9900012    2    1    2    0    0 -0.11093421772E+01  0.24757302117E+00 -0.31946744083E+00  0.90007325653E+02  0.89999581551E+02 0.  0.
         12    1    1    2    0    0  0.11093421772E+01 -0.24757302117E+00  0.31946744083E+00  0.11806743465E+01  0.00000000000E+00 0. -1.
         11    1    3    3    0    0  0.17101341750E+02  0.29734541668E+02  0.14607649133E+02  0.37282466004E+02  0.51100000000E-03 0. -1.
        -11    1    3    3    0    0  0.25932230108E+01  0.69348740800E+01  0.17140417083E+01  0.75996857388E+01  0.51100000000E-03 0.  1.
        -12    1    3    3    0    0 -0.20803906938E+02 -0.36421842727E+02 -0.16641158282E+02  0.45125173911E+02  0.00000000000E+00 0.  1.
</event>
<event>
 7    1  0.2084210E-015  0.9000770E+02  0.7816164E-02  0.1186339E+00
        -11   -1    0    0    0    0  0.00000000000E+00  0.00000000000E+00  0.45593999997E+02  0.45594000000E+02  0.51100000000E-03 0.  1.
         11   -1    0    0    0    0 -0.00000000000E+00 -0.00000000000E+00 -0.45593999997E+02  0.45594000000E+02  0.51100000000E-03 0. -1.
    9900012    2    1    2    0    0  0.15073352351E+00 -0.18342248159E+00  0.11561805994E+01  0.90007695810E+02  0.89999956595E+02 0.  0.
         12    1    1    2    0    0 -0.15073352351E+00  0.18342248159E+00 -0.11561805994E+01  0.11803041897E+01  0.00000000000E+00 0. -1.
         11    1    3    3    0    0  0.11452963039E+02 -0.60024947128E+01 -0.35583641650E+02  0.37860214718E+02  0.51100000000E-03 0. -1.
        -11    1    3    3    0    0  0.10158209656E+02  0.31594396974E+01  0.14186199219E+01  0.10732369979E+02  0.51100000000E-03 0.  1.
        -12    1    3    3    0    0 -0.21460439172E+02  0.26596325337E+01  0.35321202327E+02  0.41415111113E+02  0.00000000000E+00 0.  1.
</event>
<event>
 7    1  0.2084210E-015  0.9000769E+02  0.7816164E-02  0.1186339E+00
        -11   -1    0    0    0    0  0.00000000000E+00  0.00000000000E+00  0.45593999997E+02  0.45594000000E+02  0.51100000000E-03 0.  1.
         11   -1    0    0    0    0 -0.00000000000E+00 -0.00000000000E+00 -0.45593999997E+02  0.45594000000E+02  0.51100000000E-03 0. -1.
    9900012    2    1    2    0    0 -0.92240238473E+00 -0.34162121521E+00 -0.65237513484E+00  0.90007693035E+02  0.89999953783E+02 0.  0.
         12    1    1    2    0    0  0.92240238473E+00  0.34162121521E+00  0.65237513484E+00  0.11803069646E+01  0.00000000000E+00 0. -1.
         11    1    3    3    0    0  0.17327914676E+01  0.21741360292E+02 -0.33640783429E+02  0.40092288829E+02  0.51100000000E-03 0. -1.
        -11    1    3    3    0    0 -0.40465037798E+01  0.67882067972E+01  0.11251142552E+02  0.13749260102E+02  0.51100000000E-03 0.  1.
        -12    1    3    3    0    0  0.13913099275E+01 -0.28871188304E+02  0.21737265742E+02  0.36166144104E+02  0.00000000000E+00 0.  1.
</event>
<event>
 7    1  0.2084210E-015  0.9000777E+02  0.7816164E-02  0.1186339E+00
        -11   -1    0    0    0    0  0.00000000000E+00  0.00000000000E+00  0.45593999997E+02  0.45594000000E+02  0.51100000000E-03 0. -1.
         11   -1    0    0    0    0 -0.00000000000E+00 -0.00000000000E+00 -0.45593999997E+02  0.45594000000E+02  0.51100000000E-03 0.  1.
    9900012    2    1    2    0    0 -0.97785744451E+00 -0.65849958794E+00 -0.55748998029E-01  0.90007773395E+02  0.90000035203E+02 0.  0.
         12    1    1    2    0    0  0.97785744451E+00  0.65849958794E+00  0.55748998029E-01  0.11802266053E+01  0.00000000000E+00 0. -1.
         11    1    3    3    0    0  0.86735372857E+01 -0.39074980101E+01  0.79041713483E+01  0.12368294737E+02  0.51100000000E-03 0. -1.
        -11    1    3    3    0    0  0.83387642022E+01 -0.31683746570E+02 -0.17586494498E+02  0.37184399607E+02  0.51100000000E-03 0.  1.
         12    1    3    3    0    0 -0.17990158932E+02  0.34932744992E+02  0.96265741513E+01  0.40455079051E+02  0.00000000000E+00 0. -1.
</event>
<event>
 7    1  0.2084210E-015  0.9000775E+02  0.7816164E-02  0.1186339E+00
        -11   -1    0    0    0    0  0.00000000000E+00  0.00000000000E+00  0.45593999997E+02  0.45594000000E+02  0.51100000000E-03 0. -1.
         11   -1    0    0    0    0 -0.00000000000E+00 -0.00000000000E+00 -0.45593999997E+02  0.45594000000E+02  0.51100000000E-03 0.  1.
    9900012    2    1    2    0    0  0.60522185114E+00 -0.82285018495E+00 -0.59127589795E+00  0.90007752948E+02  0.90000014487E+02 0.  0.
         12    1    1    2    0    0 -0.60522185114E+00  0.82285018495E+00  0.59127589795E+00  0.11802470519E+01  0.00000000000E+00 0. -1.
         11    1    3    3    0    0  0.52309324511E+01 -0.51215267968E+01  0.83119792966E+01  0.11076176738E+02  0.51100000000E-03 0. -1.
        -11    1    3    3    0    0  0.21315180814E+01 -0.16536056742E+02  0.29979615248E+02  0.34303962928E+02  0.51100000000E-03 0.  1.
         12    1    3    3    0    0 -0.67572286814E+01  0.20834733354E+02 -0.38882870443E+02  0.44627613282E+02  0.00000000000E+00 0. -1.
</event>
<event>
 7    1  0.2084210E-015  0.9000771E+02  0.7816164E-02  0.1186339E+00
        -11   -1    0    0    0    0  0.00000000000E+00  0.00000000000E+00  0.45593999997E+02  0.45594000000E+02  0.51100000000E-03 0.  1.
         11   -1    0    0    0    0 -0.00000000000E+00 -0.00000000000E+00 -0.45593999997E+02  0.45594000000E+02  0.51100000000E-03 0. -1.
    9900012    2    1    2    0    0  0.64698372854E+00  0.94253010651E+00  0.29346868475E+00  0.90007714096E+02  0.89999975122E+02 0.  0.
         12    1    1    2    0    0 -0.64698372854E+00 -0.94253010651E+00 -0.29346868475E+00  0.11802859042E+01  0.00000000000E+00 0. -1.
         11    1    3    3    0    0 -0.88242589141E+00  0.35647529627E+02  0.24039394271E+02  0.43004854623E+02  0.51100000000E-03 0. -1.
        -11    1    3    3    0    0 -0.21283487584E+00 -0.10007525829E+01 -0.10811704705E+02  0.10860007519E+02  0.51100000000E-03 0.  1.
        -12    1    3    3    0    0  0.17422444958E+01 -0.33704246938E+02 -0.12934220880E+02  0.36142851954E+02  0.00000000000E+00 0.  1.
</event>
<event>
 7    1  0.2084210E-015  0.9000774E+02  0.7816164E-02  0.1186339E+00
        -11   -1    0    0    0    0  0.00000000000E+00  0.00000000000E+00  0.45593999997E+02  0.45594000000E+02  0.51100000000E-03 0.  1.
         11   -1    0    0    0    0 -0.00000000000E+00 -0.00000000000E+00 -0.45593999997E+02  0.45594000000E+02  0.51100000000E-03 0. -1.
    9900012    2    1    2    0    0 -0.39491895128E+00  0.73352622136E+00  0.83605630216E+00  0.90007740776E+02  0.90000002154E+02 0.  0.
         12    1    1    2    0    0  0.39491895128E+00 -0.73352622136E+00 -0.83605630216E+00  0.11802592240E+01  0.00000000000E+00 0. -1.
         11    1    3    3    0    0 -0.80382433441E+01 -0.62857776009E+01 -0.17431305785E+01  0.10351949603E+02  0.51100000000E-03 0. -1.
        -11    1    3    3    0    0 -0.70726855019E+01 -0.87955515001E-02  0.39060305756E+02  0.39695471324E+02  0.51100000000E-03 0.  1.
         12    1    3    3    0    0  0.14716009895E+02  0.70280993737E+01 -0.36481118876E+02  0.39960319849E+02  0.00000000000E+00 0. -1.
</event>
<event>
 7    1  0.2477082E-015  0.9000768E+02  0.7816164E-02  0.1186339E+00
        -11   -1    0    0    0    0  0.00000000000E+00  0.00000000000E+00  0.45593999997E+02  0.45594000000E+02  0.51100000000E-03 0.  1.
         11   -1    0    0    0    0 -0.00000000000E+00 -0.00000000000E+00 -0.45593999997E+02  0.45594000000E+02  0.51100000000E-03 0. -1.
    9900012    2    1    2    0    0  0.94170681876E+00  0.61180229572E+00  0.36337378330E+00  0.90007680430E+02  0.89999941011E+02 0.  0.
         12    1    1    2    0    0 -0.94170681876E+00 -0.61180229572E+00 -0.36337378330E+00  0.11803195703E+01  0.00000000000E+00 0. -1.
         11    1    3    3    0    0  0.28045585646E+01  0.25860023772E+02 -0.29926833306E+02  0.39651251308E+02  0.51100000000E-03 0. -1.
        -11    1    3    3    0    0 -0.39041022903E+01 -0.64888563136E+01 -0.58614760248E+01  0.95762295504E+01  0.51100000000E-03 0.  1.
        -12    1    3    3    0    0  0.20412505445E+01 -0.18759365163E+02  0.36151683115E+02  0.40780199572E+02  0.00000000000E+00 0.  1.
</event>
<event>
 7    1  0.2084210E-015  0.9000790E+02  0.7816164E-02  0.1186339E+00
        -11   -1    0    0    0    0  0.00000000000E+00  0.00000000000E+00  0.45593999997E+02  0.45594000000E+02  0.51100000000E-03 0.  1.
         11   -1    0    0    0    0 -0.00000000000E+00 -0.00000000000E+00 -0.45593999997E+02  0.45594000000E+02  0.51100000000E-03 0. -1.
    9900012    2    1    2    0    0  0.74595632272E+00 -0.10432593464E+00 -0.90845485675E+00  0.90007904681E+02  0.90000168222E+02 0.  0.
         12    1    1    2    0    0 -0.74595632272E+00  0.10432593464E+00  0.90845485675E+00  0.11800953194E+01  0.00000000000E+00 0. -1.
         11    1    3    3    0    0 -0.14584938079E+01  0.10441494829E+02 -0.84127955719E+01  0.13488037220E+02  0.51100000000E-03 0. -1.
        -11    1    3    3    0    0 -0.20743318870E+02 -0.34545144680E+02  0.14054004928E+02  0.42675137416E+02  0.51100000000E-03 0.  1.
         12    1    3    3    0    0  0.22947769000E+02  0.23999323917E+02 -0.65496642127E+01  0.33844730045E+02  0.00000000000E+00 0. -1.
</event>
<event>
 7    1  0.2084210E-015  0.9000772E+02  0.7816164E-02  0.1186339E+00
        -11   -1    0    0    0    0  0.00000000000E+00  0.00000000000E+00  0.45593999997E+02  0.45594000000E+02  0.51100000000E-03 0.  1.
         11   -1    0    0    0    0 -0.00000000000E+00 -0.00000000000E+00 -0.45593999997E+02  0.45594000000E+02  0.51100000000E-03 0. -1.
    9900012    2    1    2    0    0  0.43615346876E+00  0.30352071918E+00  0.10539005003E+01  0.90007719974E+02  0.89999981078E+02 0.  0.
         12    1    1    2    0    0 -0.43615346876E+00 -0.30352071918E+00 -0.10539005003E+01  0.11802800260E+01  0.00000000000E+00 0. -1.
         11    1    3    3    0    0 -0.12436426507E+02  0.15817864237E+02 -0.17903326601E+02  0.26933225520E+02  0.51100000000E-03 0. -1.
        -11    1    3    3    0    0 -0.43734847396E+01  0.76341340364E+01 -0.15683540999E+02  0.17982792603E+02  0.51100000000E-03 0.  1.
        -12    1    3    3    0    0  0.17246064715E+02 -0.23148477555E+02  0.34640768100E+02  0.45091701851E+02  0.00000000000E+00 0.  1.
</event>
<event>
 7    1  0.2084210E-015  0.9000784E+02  0.7816164E-02  0.1186339E+00
        -11   -1    0    0    0    0  0.00000000000E+00  0.00000000000E+00  0.45593999997E+02  0.45594000000E+02  0.51100000000E-03 0. -1.
         11   -1    0    0    0    0 -0.00000000000E+00 -0.00000000000E+00 -0.45593999997E+02  0.45594000000E+02  0.51100000000E-03 0.  1.
    9900012    2    1    2    0    0  0.27669404071E+00 -0.81561440433E+00 -0.80683570660E+00  0.90007843101E+02  0.90000105830E+02 0.  0.
         12    1    1    2    0    0 -0.27669404071E+00  0.81561440433E+00  0.80683570660E+00  0.11801568990E+01  0.00000000000E+00 0. -1.
         11    1    3    3    0    0 -0.24718636474E+01  0.84399929908E+01  0.17313967405E+01  0.89633323329E+01  0.51100000000E-03 0. -1.
        -11    1    3    3    0    0  0.68317119275E+01  0.32133144586E+02 -0.17028997588E+02  0.37002675957E+02  0.51100000000E-03 0.  1.
         12    1    3    3    0    0 -0.40831542394E+01 -0.41388751982E+02  0.14490765141E+02  0.44041834811E+02  0.00000000000E+00 0. -1.
</event>
<event>
 7    1  0.2084210E-015  0.9000777E+02  0.7816164E-02  0.1186339E+00
        -11   -1    0    0    0    0  0.00000000000E+00  0.00000000000E+00  0.45593999997E+02  0.45594000000E+02  0.51100000000E-03 0. -1.
         11   -1    0    0    0    0 -0.00000000000E+00 -0.00000000000E+00 -0.45593999997E+02  0.45594000000E+02  0.51100000000E-03 0.  1.
    9900012    2    1    2    0    0  0.44784081146E+00 -0.10782061205E+01 -0.17279929170E+00  0.90007767215E+02  0.90000028943E+02 0.  0.
         12    1    1    2    0    0 -0.44784081146E+00  0.10782061205E+01  0.17279929170E+00  0.11802327846E+01  0.00000000000E+00 0. -1.
         11    1    3    3    0    0 -0.83530098247E+01 -0.33367700525E+01 -0.23205084623E+01  0.92893254491E+01  0.51100000000E-03 0. -1.
        -11    1    3    3    0    0  0.56984210042E+01  0.22874061156E+02 -0.32579904132E+02  0.40213739309E+02  0.51100000000E-03 0.  1.
         12    1    3    3    0    0  0.31024296320E+01 -0.20615497224E+02  0.34727613303E+02  0.40504702457E+02  0.00000000000E+00 0. -1.
</event>
<event>
 7    1  0.2084210E-015  0.9000780E+02  0.7816164E-02  0.1186339E+00
        -11   -1    0    0    0    0  0.00000000000E+00  0.00000000000E+00  0.45593999997E+02  0.45594000000E+02  0.51100000000E-03 0. -1.
         11   -1    0    0    0    0 -0.00000000000E+00 -0.00000000000E+00 -0.45593999997E+02  0.45594000000E+02  0.51100000000E-03 0.  1.
    9900012    2    1    2    0    0 -0.10685716430E+01 -0.49990598047E+00  0.33493340828E-01  0.90007799530E+02  0.90000061684E+02 0.  0.
         12    1    1    2    0    0  0.10685716430E+01  0.49990598047E+00 -0.33493340828E-01  0.11802004700E+01  0.00000000000E+00 0. -1.
         11    1    3    3    0    0  0.24718947024E+01  0.17388303938E+01  0.40291159208E+02  0.40404347602E+02  0.51100000000E-03 0. -1.
        -11    1    3    3    0    0  0.90764506389E+01  0.44582333365E+00 -0.21034177231E+01  0.93276514206E+01  0.51100000000E-03 0.  1.
        -12    1    3    3    0    0 -0.12616916984E+02 -0.26845597079E+01 -0.38154248144E+02  0.40275800507E+02  0.00000000000E+00 0.  1.
</event>
<event>
 7    1  0.2084210E-015  0.9000745E+02  0.7816164E-02  0.1186340E+00
        -11   -1    0    0    0    0  0.00000000000E+00  0.00000000000E+00  0.45593999997E+02  0.45594000000E+02  0.51100000000E-03 0. -1.
         11   -1    0    0    0    0 -0.00000000000E+00 -0.00000000000E+00 -0.45593999997E+02  0.45594000000E+02  0.51100000000E-03 0.  1.
    9900012    2    1    2    0    0  0.94284275432E+00  0.46123555440E+00 -0.54037600192E+00  0.90007450586E+02  0.89999708133E+02 0.  0.
         12    1    1    2    0    0 -0.94284275432E+00 -0.46123555440E+00  0.54037600192E+00  0.11805494142E+01  0.00000000000E+00 0. -1.
         11    1    3    3    0    0 -0.24035547470E+01  0.80984676944E+01 -0.54316006282E+01  0.10043133976E+02  0.51100000000E-03 0. -1.
        -11    1    3    3    0    0  0.21577798460E+02  0.32692642689E+01 -0.31205513254E+02  0.38079831052E+02  0.51100000000E-03 0.  1.
         12    1    3    3    0    0 -0.18231400959E+02 -0.10906496409E+02  0.36096737880E+02  0.41884485558E+02  0.00000000000E+00 0. -1.
</event>
<event>
 7    1  0.2084210E-015  0.9000759E+02  0.7816164E-02  0.1186339E+00
        -11   -1    0    0    0    0  0.00000000000E+00  0.00000000000E+00  0.45593999997E+02  0.45594000000E+02  0.51100000000E-03 0.  1.
         11   -1    0    0    0    0 -0.00000000000E+00 -0.00000000000E+00 -0.45593999997E+02  0.45594000000E+02  0.51100000000E-03 0. -1.
    9900012    2    1    2    0    0 -0.71651467372E-01  0.71823519658E+00  0.93400901261E+00  0.90007589662E+02  0.89999849045E+02 0.  0.
         12    1    1    2    0    0  0.71651467372E-01 -0.71823519658E+00 -0.93400901261E+00  0.11804103380E+01  0.00000000000E+00 0. -1.
         11    1    3    3    0    0  0.12172868808E+01 -0.47621640288E+01 -0.81192055566E+01  0.94911270521E+01  0.51100000000E-03 0. -1.
        -11    1    3    3    0    0  0.26332651263E+02 -0.23785292266E+02  0.17238691662E+02  0.39450236263E+02  0.51100000000E-03 0.  1.
         12    1    3    3    0    0 -0.27621589611E+02  0.29265691491E+02 -0.81854770927E+01  0.41066226347E+02  0.00000000000E+00 0. -1.
</event>
<event>
 7    1  0.2376042E-015  0.9000779E+02  0.7816164E-02  0.1186339E+00
        -11   -1    0    0    0    0  0.00000000000E+00  0.00000000000E+00  0.45593999997E+02  0.45594000000E+02  0.51100000000E-03 0.  1.
         11   -1    0    0    0    0 -0.00000000000E+00 -0.00000000000E+00 -0.45593999997E+02  0.45594000000E+02  0.51100000000E-03 0. -1.
    9900012    2    1    2    0    0 -0.42778750254E+00  0.97164019006E+00  0.51555793867E+00  0.90007793749E+02  0.90000055827E+02 0.  0.
         12    1    1    2    0    0  0.42778750254E+00 -0.97164019006E+00 -0.51555793867E+00  0.11802062508E+01  0.00000000000E+00 0. -1.
         11    1    3    3    0    0 -0.36851569667E+01 -0.18097869178E+02 -0.36045714265E+02  0.40501935359E+02  0.51100000000E-03 0. -1.
        -11    1    3    3    0    0 -0.44689130604E+01  0.82175196472E+01 -0.12307464190E+01  0.94346992587E+01  0.51100000000E-03 0.  1.
        -12    1    3    3    0    0  0.77262825245E+01  0.10851989721E+02  0.37792018623E+02  0.40071159132E+02  0.00000000000E+00 0.  1.
</event>
<event>
 7    1  0.2084210E-015  0.9000776E+02  0.7816164E-02  0.1186339E+00
        -11   -1    0    0    0    0  0.00000000000E+00  0.00000000000E+00  0.45593999997E+02  0.45594000000E+02  0.51100000000E-03 0.  1.
         11   -1    0    0    0    0 -0.00000000000E+00 -0.00000000000E+00 -0.45593999997E+02  0.45594000000E+02  0.51100000000E-03 0. -1.
    9900012    2    1    2    0    0 -0.10583452169E+01  0.26065094967E+00  0.45270400551E+00  0.90007756622E+02  0.90000018209E+02 0.  0.
         12    1    1    2    0    0  0.10583452169E+01 -0.26065094967E+00 -0.45270400551E+00  0.11802433784E+01  0.00000000000E+00 0. -1.
         11    1    3    3    0    0 -0.21840830178E+02 -0.25021040562E+02  0.16194148707E+02  0.36950301573E+02  0.51100000000E-03 0. -1.
        -11    1    3    3    0    0  0.25084388715E+01 -0.10330219697E+02 -0.28497046645E+01  0.11005749475E+02  0.51100000000E-03 0.  1.
        -12    1    3    3    0    0  0.18274046090E+02  0.35611911210E+02 -0.12891740037E+02  0.42051705574E+02  0.00000000000E+00 0.  1.
</event>
<event>
 7    1  0.2084210E-015  0.9000774E+02  0.7816164E-02  0.1186339E+00
        -11   -1    0    0    0    0  0.00000000000E+00  0.00000000000E+00  0.45593999997E+02  0.45594000000E+02  0.51100000000E-03 0. -1.
         11   -1    0    0    0    0 -0.00000000000E+00 -0.00000000000E+00 -0.45593999997E+02  0.45594000000E+02  0.51100000000E-03 0.  1.
    9900012    2    1    2    0    0 -0.99300763279E+00 -0.59259355817E+00 -0.23617898218E+00  0.90007740793E+02  0.90000002172E+02 0.  0.
         12    1    1    2    0    0  0.99300763279E+00  0.59259355817E+00  0.23617898218E+00  0.11802592069E+01  0.00000000000E+00 0. -1.
         11    1    3    3    0    0 -0.16701869586E+02  0.27726233934E+02 -0.46219817560E+01  0.32696470932E+02  0.51100000000E-03 0. -1.
        -11    1    3    3    0    0  0.18735245482E+02  0.52437875130E+01  0.11871318618E+02  0.22791115303E+02  0.51100000000E-03 0.  1.
        -12    1    3    3    0    0 -0.30263835291E+01 -0.33562615005E+02 -0.74855158438E+01  0.34520154558E+02  0.00000000000E+00 0.  1.
</event>
<event>
 7    1  0.2084210E-015  0.9000748E+02  0.7816164E-02  0.1186340E+00
        -11   -1    0    0    0    0  0.00000000000E+00  0.00000000000E+00  0.45593999997E+02  0.45594000000E+02  0.51100000000E-03 0.  1.
         11   -1    0    0    0    0 -0.00000000000E+00 -0.00000000000E+00 -0.45593999997E+02  0.45594000000E+02  0.51100000000E-03 0. -1.
    9900012    2    1    2    0    0  0.29530106902E+00 -0.16930073997E+00  0.11303801380E+01  0.90007481166E+02  0.89999739117E+02 0.  0.
         12    1    1    2    0    0 -0.29530106902E+00  0.16930073997E+00 -0.11303801380E+01  0.11805188344E+01  0.00000000000E+00 0. -1.
         11    1    3    3    0    0  0.46414286620E+01 -0.14980037172E+02 -0.31852657459E+02  0.35504030210E+02  0.51100000000E-03 0. -1.
        -11    1    3    3    0    0 -0.61956373328E+00 -0.58724019857E+01 -0.71062350134E+01  0.92394556456E+01  0.51100000000E-03 0.  1.
        -12    1    3    3    0    0 -0.37265638597E+01  0.20683138418E+02  0.40089272610E+02  0.45263995310E+02  0.00000000000E+00 0.  1.
</event>
<event>
 7    1  0.2084210E-015  0.9000777E+02  0.7816164E-02  0.1186339E+00
        -11   -1    0    0    0    0  0.00000000000E+00  0.00000000000E+00  0.45593999997E+02  0.45594000000E+02  0.51100000000E-03 0. -1.
         11   -1    0    0    0    0 -0.00000000000E+00 -0.00000000000E+00 -0.45593999997E+02  0.45594000000E+02  0.51100000000E-03 0.  1.
    9900012    2    1    2    0    0 -0.41970396901E+00  0.30549676349E+00 -0.10599409273E+01  0.90007765081E+02  0.90000026780E+02 0.  0.
         12    1    1    2    0    0  0.41970396901E+00 -0.30549676349E+00  0.10599409273E+01  0.11802349188E+01  0.00000000000E+00 0. -1.
         11    1    3    3    0    0  0.11104590027E+02 -0.36799637879E+02  0.35991671107E+01  0.38606725733E+02  0.51100000000E-03 0. -1.
        -11    1    3    3    0    0 -0.78670990254E+01 -0.17397199395E+00  0.86081235523E+01  0.11662817185E+02  0.51100000000E-03 0.  1.
        -12    1    3    3    0    0 -0.36571949703E+01  0.37279106636E+02 -0.13267231590E+02  0.39738222164E+02  0.00000000000E+00 0.  1.
</event>
<event>
 7    1  0.2084210E-015  0.9000777E+02  0.7816164E-02  0.1186339E+00
        -11   -1    0    0    0    0  0.00000000000E+00  0.00000000000E+00  0.45593999997E+02  0.45594000000E+02  0.51100000000E-03 0. -1.
         11   -1    0    0    0    0 -0.00000000000E+00 -0.00000000000E+00 -0.45593999997E+02  0.45594000000E+02  0.51100000000E-03 0.  1.
    9900012    2    1    2    0    0  0.11407968142E+01  0.16197663596E+00 -0.25551182516E+00  0.90007771169E+02  0.90000032948E+02 0.  0.
         12    1    1    2    0    0 -0.11407968142E+01 -0.16197663596E+00  0.25551182516E+00  0.11802288314E+01  0.00000000000E+00 0. -1.
         11    1    3    3    0    0 -0.40518900756E+02  0.75399447967E+01 -0.60660551823E+01  0.41658481871E+02  0.51100000000E-03 0. -1.
        -11    1    3    3    0    0  0.11143510273E+02  0.78276228343E+01  0.40573348975E+01  0.14209555488E+02  0.51100000000E-03 0.  1.
        -12    1    3    3    0    0  0.30516187298E+02 -0.15205590995E+02  0.17532084596E+01  0.34139733810E+02  0.00000000000E+00 0.  1.
</event>
<event>
 7    1  0.2084210E-015  0.9000794E+02  0.7816164E-02  0.1186339E+00
        -11   -1    0    0    0    0  0.00000000000E+00  0.00000000000E+00  0.45593999997E+02  0.45594000000E+02  0.51100000000E-03 0.  1.
         11   -1    0    0    0    0 -0.00000000000E+00 -0.00000000000E+00 -0.45593999997E+02  0.45594000000E+02  0.51100000000E-03 0. -1.
    9900012    2    1    2    0    0 -0.30266133211E+00 -0.22286226452E+00  0.11186044533E+01  0.90007937547E+02  0.90000201522E+02 0.  0.
         12    1    1    2    0    0  0.30266133211E+00  0.22286226452E+00 -0.11186044533E+01  0.11800624534E+01  0.00000000000E+00 0. -1.
         11    1    3    3    0    0 -0.18847660981E+02 -0.36581491170E+02  0.38990670335E+01  0.41335729637E+02  0.51100000000E-03 0. -1.
        -11    1    3    3    0    0  0.12337381456E+01  0.25810745186E+01 -0.96809186548E+01  0.10094763085E+02  0.51100000000E-03 0.  1.
        -12    1    3    3    0    0  0.17311261503E+02  0.33777554386E+02  0.69004560747E+01  0.38577444825E+02  0.00000000000E+00 0.  1.
</event>
<event>
 7    1  0.2084210E-015  0.9000672E+02  0.7816164E-02  0.1186341E+00
        -11   -1    0    0    0    0  0.00000000000E+00  0.00000000000E+00  0.45593999997E+02  0.45594000000E+02  0.51100000000E-03 0.  1.
         11   -1    0    0    0    0 -0.00000000000E+00 -0.00000000000E+00 -0.45593999997E+02  0.45594000000E+02  0.51100000000E-03 0. -1.
    9900012    2    1    2    0    0  0.20395785624E+00 -0.53253289789E+00  0.10345192257E+01  0.90006720980E+02  0.89998968891E+02 0.  0.
         12    1    1    2    0    0 -0.20395785624E+00  0.53253289789E+00 -0.10345192257E+01  0.11812790199E+01  0.00000000000E+00 0. -1.
         11    1    3    3    0    0 -0.73585780295E+01 -0.63565225810E+01 -0.12981866054E+01  0.98101650680E+01  0.51100000000E-03 0. -1.
        -11    1    3    3    0    0  0.10635130671E+02  0.40710025642E+02  0.12204866222E+02  0.43810626016E+02  0.51100000000E-03 0.  1.
         12    1    3    3    0    0 -0.30725947856E+01 -0.34886035959E+02 -0.98721603907E+01  0.36385929896E+02  0.00000000000E+00 0. -1.
</event>
<event>
 7    1  0.2084210E-015  0.9000752E+02  0.7816164E-02  0.1186339E+00
        -11   -1    0    0    0    0  0.00000000000E+00  0.00000000000E+00  0.45593999997E+02  0.45594000000E+02  0.51100000000E-03 0.  1.
         11   -1    0    0    0    0 -0.00000000000E+00 -0.00000000000E+00 -0.45593999997E+02  0.45594000000E+02  0.51100000000E-03 0. -1.
    9900012    2    1    2    0    0 -0.71421303654E+00  0.90276421246E+00  0.26161353770E+00  0.90007523347E+02  0.89999781855E+02 0.  0.
         12    1    1    2    0    0  0.71421303654E+00 -0.90276421246E+00 -0.26161353770E+00  0.11804766529E+01  0.00000000000E+00 0. -1.
         11    1    3    3    0    0 -0.41435721402E+01  0.91116962261E+01  0.50777047877E+01  0.11223871185E+02  0.51100000000E-03 0. -1.
        -11    1    3    3    0    0 -0.16499796905E+02  0.24504903924E+02  0.17613059908E+02  0.34394090972E+02  0.51100000000E-03 0.  1.
         12    1    3    3    0    0  0.19929156009E+02 -0.32713835937E+02 -0.22429151158E+02  0.44389561190E+02  0.00000000000E+00 0. -1.
</event>
<event>
 7    1  0.2084210E-015  0.9000762E+02  0.7816164E-02  0.1186339E+00
        -11   -1    0    0    0    0  0.00000000000E+00  0.00000000000E+00  0.45593999997E+02  0.45594000000E+02  0.51100000000E-03 0.  1.
         11   -1    0    0    0    0 -0.00000000000E+00 -0.00000000000E+00 -0.45593999997E+02  0.45594000000E+02  0.51100000000E-03 0. -1.
    9900012    2    1    2    0    0  0.11237287096E+01  0.16851284052E-02  0.36127787424E+00  0.90007622622E+02  0.89999882440E+02 0.  0.
         12    1    1    2    0    0 -0.11237287096E+01 -0.16851284052E-02 -0.36127787424E+00  0.11803773781E+01  0.00000000000E+00 0. -1.
         11    1    3    3    0    0 -0.71220509592E+01 -0.54083964763E+01 -0.17678719952E+01  0.91159055482E+01  0.51100000000E-03 0. -1.
        -11    1    3    3    0    0 -0.11226391268E+02 -0.18029239402E+01  0.37878993094E+02  0.39548710645E+02  0.51100000000E-03 0.  1.
         12    1    3    3    0    0  0.19472170937E+02  0.72130055450E+01 -0.35749843224E+02  0.41343006428E+02  0.00000000000E+00 0. -1.
</event>
<event>
 7    1  0.2084210E-015  0.9000776E+02  0.7816164E-02  0.1186339E+00
        -11   -1    0    0    0    0  0.00000000000E+00  0.00000000000E+00  0.45593999997E+02  0.45594000000E+02  0.51100000000E-03 0. -1.
         11   -1    0    0    0    0 -0.00000000000E+00 -0.00000000000E+00 -0.45593999997E+02  0.45594000000E+02  0.51100000000E-03 0.  1.
    9900012    2    1    2    0    0  0.42506402803E+00 -0.96605676864E+00  0.52822602569E+00  0.90007759413E+02  0.90000021038E+02 0.  0.
         12    1    1    2    0    0 -0.42506402803E+00  0.96605676864E+00 -0.52822602569E+00  0.11802405867E+01  0.00000000000E+00 0. -1.
         11    1    3    3    0    0  0.58881306487E+01 -0.84618098273E+01 -0.26257292780E+01  0.10637986773E+02  0.51100000000E-03 0. -1.
        -11    1    3    3    0    0  0.14328142012E+02 -0.31446081878E+02  0.78460342295E+01  0.35436026476E+02  0.51100000000E-03 0.  1.
         12    1    3    3    0    0 -0.19791208633E+02  0.38941834936E+02 -0.46920789259E+01  0.43933746164E+02  0.00000000000E+00 0. -1.
</event>
<event>
 7    1  0.2084210E-015  0.9000778E+02  0.7816164E-02  0.1186339E+00
        -11   -1    0    0    0    0  0.00000000000E+00  0.00000000000E+00  0.45593999997E+02  0.45594000000E+02  0.51100000000E-03 0.  1.
         11   -1    0    0    0    0 -0.00000000000E+00 -0.00000000000E+00 -0.45593999997E+02  0.45594000000E+02  0.51100000000E-03 0. -1.
    9900012    2    1    2    0    0  0.56921160516E+00 -0.59228829469E+00 -0.84741175600E+00  0.90007782241E+02  0.90000044166E+02 0.  0.
         12    1    1    2    0    0 -0.56921160516E+00  0.59228829469E+00  0.84741175600E+00  0.11802177594E+01  0.00000000000E+00 0. -1.
         11    1    3    3    0    0 -0.98294378062E+01  0.32472106822E+01 -0.33627028364E+01  0.10884392286E+02  0.51100000000E-03 0. -1.
        -11    1    3    3    0    0 -0.18456873791E+02  0.12885928156E+02  0.28874729264E+02  0.36612201858E+02  0.51100000000E-03 0.  1.
         12    1    3    3    0    0  0.28855523203E+02 -0.16725427132E+02 -0.26359438183E+02  0.42511188097E+02  0.00000000000E+00 0. -1.
</event>
<event>
 7    1  0.2084210E-015  0.9000771E+02  0.7816164E-02  0.1186339E+00
        -11   -1    0    0    0    0  0.00000000000E+00  0.00000000000E+00  0.45593999997E+02  0.45594000000E+02  0.51100000000E-03 0.  1.
         11   -1    0    0    0    0 -0.00000000000E+00 -0.00000000000E+00 -0.45593999997E+02  0.45594000000E+02  0.51100000000E-03 0. -1.
    9900012    2    1    2    0    0  0.16275729638E+00  0.98702709994E+00  0.62638766494E+00  0.90007714467E+02  0.89999975498E+02 0.  0.
         12    1    1    2    0    0 -0.16275729638E+00 -0.98702709994E+00 -0.62638766494E+00  0.11802855334E+01  0.00000000000E+00 0. -1.
         11    1    3    3    0    0 -0.10834701122E+02  0.14014195957E+01  0.14860724537E+01  0.11025567418E+02  0.51100000000E-03 0. -1.
        -11    1    3    3    0    0 -0.15190948113E+02  0.50016677413E+01  0.32502769313E+02  0.36224461321E+02  0.51100000000E-03 0.  1.
         12    1    3    3    0    0  0.26188406531E+02 -0.54160602371E+01 -0.33362454101E+02  0.42757685728E+02  0.00000000000E+00 0. -1.
</event>
<event>
 7    1  0.2084210E-015  0.9000769E+02  0.7816164E-02  0.1186339E+00
        -11   -1    0    0    0    0  0.00000000000E+00  0.00000000000E+00  0.45593999997E+02  0.45594000000E+02  0.51100000000E-03 0.  1.
         11   -1    0    0    0    0 -0.00000000000E+00 -0.00000000000E+00 -0.45593999997E+02  0.45594000000E+02  0.51100000000E-03 0. -1.
    9900012    2    1    2    0    0  0.30835349280E+00  0.10071008614E+01  0.53271614264E+00  0.90007694739E+02  0.89999955509E+02 0.  0.
         12    1    1    2    0    0 -0.30835349280E+00 -0.10071008614E+01 -0.53271614264E+00  0.11803052614E+01  0.00000000000E+00 0. -1.
         11    1    3    3    0    0  0.66589622571E+00 -0.28029088026E+01  0.10442951795E+02  0.10833049340E+02  0.51100000000E-03 0. -1.
        -11    1    3    3    0    0  0.24300498170E+02 -0.26573581401E+02  0.67653009075E+01  0.36639305894E+02  0.51100000000E-03 0.  1.
         12    1    3    3    0    0 -0.24658040903E+02  0.30383591065E+02 -0.16675536560E+02  0.42535339504E+02  0.00000000000E+00 0. -1.
</event>
<event>
 7    1  0.2084210E-015  0.9000780E+02  0.7816164E-02  0.1186339E+00
        -11   -1    0    0    0    0  0.00000000000E+00  0.00000000000E+00  0.45593999997E+02  0.45594000000E+02  0.51100000000E-03 0.  1.
         11   -1    0    0    0    0 -0.00000000000E+00 -0.00000000000E+00 -0.45593999997E+02  0.45594000000E+02  0.51100000000E-03 0. -1.
    9900012    2    1    2    0    0  0.74240604189E+00  0.86956281593E+00 -0.29252236800E+00  0.90007798510E+02  0.90000060650E+02 0.  0.
         12    1    1    2    0    0 -0.74240604189E+00 -0.86956281593E+00  0.29252236800E+00  0.11802014903E+01  0.00000000000E+00 0. -1.
         11    1    3    3    0    0  0.92853550592E+01 -0.27917671267E+01 -0.74353749729E+00  0.97244347155E+01  0.51100000000E-03 0. -1.
        -11    1    3    3    0    0  0.14645141034E+02 -0.33355561452E+02 -0.24188656136E+01  0.36509239198E+02  0.51100000000E-03 0.  1.
         12    1    3    3    0    0 -0.23188090051E+02  0.37016891394E+02  0.28698807429E+01  0.43774124597E+02  0.00000000000E+00 0. -1.
</event>
<event>
 7    1  0.2084210E-015  0.9000772E+02  0.7816164E-02  0.1186339E+00
        -11   -1    0    0    0    0  0.00000000000E+00  0.00000000000E+00  0.45593999997E+02  0.45594000000E+02  0.51100000000E-03 0.  1.
         11   -1    0    0    0    0 -0.00000000000E+00 -0.00000000000E+00 -0.45593999997E+02  0.45594000000E+02  0.51100000000E-03 0. -1.
    9900012    2    1    2    0    0 -0.66640666150E+00  0.85237721765E+00  0.47161791140E+00  0.90007716892E+02  0.89999977955E+02 0.  0.
         12    1    1    2    0    0  0.66640666150E+00 -0.85237721765E+00 -0.47161791140E+00  0.11802831076E+01  0.00000000000E+00 0. -1.
         11    1    3    3    0    0  0.61009736792E+01  0.49029599413E-01  0.68650871609E+01  0.91844273487E+01  0.51100000000E-03 0. -1.
        -11    1    3    3    0    0 -0.32226729958E+02 -0.72771974977E+01  0.23644123186E+02  0.40627137344E+02  0.51100000000E-03 0.  1.
         12    1    3    3    0    0  0.25459349618E+02  0.80805451159E+01 -0.30037592436E+02  0.40196152200E+02  0.00000000000E+00 0. -1.
</event>
<event>
 7    1  0.2084210E-015  0.9000776E+02  0.7816164E-02  0.1186339E+00
        -11   -1    0    0    0    0  0.00000000000E+00  0.00000000000E+00  0.45593999997E+02  0.45594000000E+02  0.51100000000E-03 0.  1.
         11   -1    0    0    0    0 -0.00000000000E+00 -0.00000000000E+00 -0.45593999997E+02  0.45594000000E+02  0.51100000000E-03 0. -1.
    9900012    2    1    2    0    0  0.11370850738E+01 -0.30941628474E+00 -0.65383466051E-01  0.90007756000E+02  0.90000017579E+02 0.  0.
         12    1    1    2    0    0 -0.11370850738E+01  0.30941628474E+00  0.65383466051E-01  0.11802440002E+01  0.00000000000E+00 0. -1.
         11    1    3    3    0    0  0.60526022333E+01  0.45419475217E+01  0.61949702937E+01  0.97796185143E+01  0.51100000000E-03 0. -1.
        -11    1    3    3    0    0 -0.10738226790E+02  0.21386583354E+02  0.27903295263E+02  0.36759887771E+02  0.51100000000E-03 0.  1.
         12    1    3    3    0    0  0.58227096304E+01 -0.26237947160E+02 -0.34163649023E+02  0.43468249714E+02  0.00000000000E+00 0. -1.
</event>
<event>
 7    1  0.2084210E-015  0.9000777E+02  0.7816164E-02  0.1186339E+00
        -11   -1    0    0    0    0  0.00000000000E+00  0.00000000000E+00  0.45593999997E+02  0.45594000000E+02  0.51100000000E-03 0.  1.
         11   -1    0    0    0    0 -0.00000000000E+00 -0.00000000000E+00 -0.45593999997E+02  0.45594000000E+02  0.51100000000E-03 0. -1.
    9900012    2    1    2    0    0 -0.40033279552E+00  0.55780367160E+00  0.95996903874E+00  0.90007766193E+02  0.90000027907E+02 0.  0.
         12    1    1    2    0    0  0.40033279552E+00 -0.55780367160E+00 -0.95996903874E+00  0.11802338067E+01  0.00000000000E+00 0. -1.
         11    1    3    3    0    0 -0.34181834348E+01 -0.81946094746E+01 -0.18777472891E+01  0.90753257561E+01  0.51100000000E-03 0. -1.
        -11    1    3    3    0    0 -0.25559004787E+02 -0.22871173742E+02 -0.11163517660E+02  0.36069064874E+02  0.51100000000E-03 0.  1.
         12    1    3    3    0    0  0.28576855427E+02  0.31623586889E+02  0.14001233988E+02  0.44863375563E+02  0.00000000000E+00 0. -1.
</event>
<event>
 7    1  0.2084210E-015  0.9000777E+02  0.7816164E-02  0.1186339E+00
        -11   -1    0    0    0    0  0.00000000000E+00  0.00000000000E+00  0.45593999997E+02  0.45594000000E+02  0.51100000000E-03 0.  1.
         11   -1    0    0    0    0 -0.00000000000E+00 -0.00000000000E+00 -0.45593999997E+02  0.45594000000E+02  0.51100000000E-03 0. -1.
    9900012    2    1    2    0    0  0.26209144924E+00 -0.72113992038E-01  0.11484971001E+01  0.90007772079E+02  0.90000033871E+02 0.  0.
         12    1    1    2    0    0 -0.26209144924E+00  0.72113992038E-01 -0.11484971001E+01  0.11802279206E+01  0.00000000000E+00 0. -1.
         11    1    3    3    0    0 -0.11511706007E+02 -0.21040281405E+02 -0.20430942962E+02  0.31506130314E+02  0.51100000000E-03 0. -1.
        -11    1    3    3    0    0  0.10614984015E+02  0.21145728021E+02 -0.10865092689E+02  0.26035935523E+02  0.51100000000E-03 0.  1.
        -12    1    3    3    0    0  0.11588134408E+01 -0.17756060802E+00  0.32444532751E+02  0.32465706242E+02  0.00000000000E+00 0.  1.
</event>
<event>
 7    1  0.2084210E-015  0.9000771E+02  0.7816164E-02  0.1186339E+00
        -11   -1    0    0    0    0  0.00000000000E+00  0.00000000000E+00  0.45593999997E+02  0.45594000000E+02  0.51100000000E-03 0.  1.
         11   -1    0    0    0    0 -0.00000000000E+00 -0.00000000000E+00 -0.45593999997E+02  0.45594000000E+02  0.51100000000E-03 0. -1.
    9900012    2    1    2    0    0  0.71930195799E+00  0.93576638597E+00  0.57523745291E-02  0.90007708881E+02  0.89999969838E+02 0.  0.
         12    1    1    2    0    0 -0.71930195799E+00 -0.93576638597E+00 -0.57523745291E-02  0.11802911190E+01  0.00000000000E+00 0. -1.
         11    1    3    3    0    0 -0.41195533772E+01  0.69862765182E+01  0.37006394628E+01  0.89147917705E+01  0.51100000000E-03 0. -1.
        -11    1    3    3    0    0 -0.32491981401E+02 -0.20209638693E+01  0.18531684124E+02  0.37459798011E+02  0.51100000000E-03 0.  1.
         12    1    3    3    0    0  0.37330836736E+02 -0.40295462629E+01 -0.22226571212E+02  0.43633119099E+02  0.00000000000E+00 0. -1.
</event>
<event>
 7    1  0.2084210E-015  0.9000770E+02  0.7816164E-02  0.1186339E+00
        -11   -1    0    0    0    0  0.00000000000E+00  0.00000000000E+00  0.45593999997E+02  0.45594000000E+02  0.51100000000E-03 0. -1.
         11   -1    0    0    0    0 -0.00000000000E+00 -0.00000000000E+00 -0.45593999997E+02  0.45594000000E+02  0.51100000000E-03 0.  1.
    9900012    2    1    2    0    0  0.62038592523E+00  0.98079460081E+00 -0.21513431292E+00  0.90007695159E+02  0.89999955935E+02 0.  0.
         12    1    1    2    0    0 -0.62038592523E+00 -0.98079460081E+00  0.21513431292E+00  0.11803048410E+01  0.00000000000E+00 0. -1.
         11    1    3    3    0    0  0.32042683760E+02 -0.18070478982E+02  0.21600896650E+01  0.36850261611E+02  0.51100000000E-03 0. -1.
        -11    1    3    3    0    0 -0.65234769018E+01 -0.64344473282E+01 -0.13065808344E+02  0.15958483990E+02  0.51100000000E-03 0.  1.
        -12    1    3    3    0    0 -0.24898820933E+02  0.25485720911E+02  0.10690584366E+02  0.37198949559E+02  0.00000000000E+00 0.  1.
</event>
<event>
 7    1  0.2084210E-015  0.9000781E+02  0.7816164E-02  0.1186339E+00
        -11   -1    0    0    0    0  0.00000000000E+00  0.00000000000E+00  0.45593999997E+02  0.45594000000E+02  0.51100000000E-03 0. -1.
         11   -1    0    0    0    0 -0.00000000000E+00 -0.00000000000E+00 -0.45593999997E+02  0.45594000000E+02  0.51100000000E-03 0.  1.
    9900012    2    1    2    0    0  0.50370231442E+00  0.11343329668E-01 -0.10672409484E+01  0.90007810212E+02  0.90000072507E+02 0.  0.
         12    1    1    2    0    0 -0.50370231442E+00 -0.11343329668E-01  0.10672409484E+01  0.11801897875E+01  0.00000000000E+00 0. -1.
         11    1    3    3    0    0 -0.18909917207E+02  0.19958526273E+01  0.32282294253E+02  0.37466183672E+02  0.51100000000E-03 0. -1.
        -11    1    3    3    0    0  0.59700923610E+01  0.10448363996E+02  0.24959844882E+01  0.12289843441E+02  0.51100000000E-03 0.  1.
        -12    1    3    3    0    0  0.13443527161E+02 -0.12432873294E+02 -0.35845519689E+02  0.40251783099E+02  0.00000000000E+00 0.  1.
</event>
<event>
 7    1  0.2659261E-015  0.9000770E+02  0.7816164E-02  0.1186339E+00
        -11   -1    0    0    0    0  0.00000000000E+00  0.00000000000E+00  0.45593999997E+02  0.45594000000E+02  0.51100000000E-03 0.  1.
         11   -1    0    0    0    0 -0.00000000000E+00 -0.00000000000E+00 -0.45593999997E+02  0.45594000000E+02  0.51100000000E-03 0. -1.
    9900012    2    1    2    0    0  0.10588318908E+01  0.37099506663E+00 -0.36651989565E+00  0.90007703789E+02  0.89999964679E+02 0.  0.
         12    1    1    2    0    0 -0.10588318908E+01 -0.37099506663E+00  0.36651989565E+00  0.11802962113E+01  0.00000000000E+00 0. -1.
         11    1    3    3    0    0 -0.31225023620E+02  0.15022254907E+02  0.93710883202E+01  0.35895508620E+02  0.51100000000E-03 0. -1.
        -11    1    3    3    0    0 -0.91306371423E+01 -0.47624383175E-01  0.42052843283E-02  0.91307623259E+01  0.51100000000E-03 0.  1.
        -12    1    3    3    0    0  0.41414492653E+02 -0.14603635457E+02 -0.97418135002E+01  0.44981432842E+02  0.00000000000E+00 0.  1.
</event>
<event>
 7    1  0.2084210E-015  0.9000784E+02  0.7816164E-02  0.1186339E+00
        -11   -1    0    0    0    0  0.00000000000E+00  0.00000000000E+00  0.45593999997E+02  0.45594000000E+02  0.51100000000E-03 0.  1.
         11   -1    0    0    0    0 -0.00000000000E+00 -0.00000000000E+00 -0.45593999997E+02  0.45594000000E+02  0.51100000000E-03 0. -1.
    9900012    2    1    2    0    0 -0.81858285315E-01 -0.58699174127E+00  0.10205476080E+01  0.90007840052E+02  0.90000102740E+02 0.  0.
         12    1    1    2    0    0  0.81858285315E-01  0.58699174127E+00 -0.10205476080E+01  0.11801599482E+01  0.00000000000E+00 0. -1.
         11    1    3    3    0    0  0.14107660806E+02  0.21883659680E+02 -0.22542481426E+02  0.34439572058E+02  0.51100000000E-03 0. -1.
        -11    1    3    3    0    0  0.31955611672E+01  0.11016162708E+02  0.10752553253E+02  0.15722113525E+02  0.51100000000E-03 0.  1.
        -12    1    3    3    0    0 -0.17385080258E+02 -0.33486814130E+02  0.12810475782E+02  0.39846154468E+02  0.00000000000E+00 0.  1.
</event>
<event>
 7    1  0.2084210E-015  0.9000759E+02  0.7816164E-02  0.1186339E+00
        -11   -1    0    0    0    0  0.00000000000E+00  0.00000000000E+00  0.45593999997E+02  0.45594000000E+02  0.51100000000E-03 0.  1.
         11   -1    0    0    0    0 -0.00000000000E+00 -0.00000000000E+00 -0.45593999997E+02  0.45594000000E+02  0.51100000000E-03 0. -1.
    9900012    2    1    2    0    0 -0.76896093919E+00 -0.64174331062E+00 -0.62468072112E+00  0.90007592695E+02  0.89999852118E+02 0.  0.
         12    1    1    2    0    0  0.76896093919E+00  0.64174331062E+00  0.62468072112E+00  0.11804073052E+01  0.00000000000E+00 0. -1.
         11    1    3    3    0    0 -0.58807532375E+01 -0.28791357886E+01 -0.72669990678E+01  0.97817154550E+01  0.51100000000E-03 0. -1.
        -11    1    3    3    0    0  0.39764681312E+02  0.27776105332E+01 -0.10979487055E+02  0.41346029270E+02  0.51100000000E-03 0.  1.
         12    1    3    3    0    0 -0.34652889014E+02 -0.54021805523E+00  0.17621805402E+02  0.38879847970E+02  0.00000000000E+00 0. -1.
</event>
<event>
 7    1  0.2084210E-015  0.9000884E+02  0.7816164E-02  0.1186337E+00
        -11   -1    0    0    0    0  0.00000000000E+00  0.00000000000E+00  0.45593999997E+02  0.45594000000E+02  0.51100000000E-03 0. -1.
         11   -1    0    0    0    0 -0.00000000000E+00 -0.00000000000E+00 -0.45593999997E+02  0.45594000000E+02  0.51100000000E-03 0.  1.
    9900012    2    1    2    0    0 -0.11531996231E+01  0.17531959900E+00 -0.17267584634E+00  0.90008837891E+02  0.90001113744E+02 0.  0.
         12    1    1    2    0    0  0.11531996231E+01 -0.17531959900E+00  0.17267584634E+00  0.11791621095E+01  0.00000000000E+00 0. -1.
         11    1    3    3    0    0 -0.15423933862E+02 -0.26602054723E+00  0.28926633424E+02  0.32782901400E+02  0.51100000000E-03 0. -1.
        -11    1    3    3    0    0  0.16476749124E+02 -0.58108200434E+01  0.82297886664E+01  0.19312646453E+02  0.51100000000E-03 0.  1.
        -12    1    3    3    0    0 -0.22060148848E+01  0.62521601896E+01 -0.37329097936E+02  0.37913290037E+02  0.00000000000E+00 0.  1.
</event>
<event>
 7    1  0.2084210E-015  0.9000804E+02  0.7816164E-02  0.1186338E+00
        -11   -1    0    0    0    0  0.00000000000E+00  0.00000000000E+00  0.45593999997E+02  0.45594000000E+02  0.51100000000E-03 0. -1.
         11   -1    0    0    0    0 -0.00000000000E+00 -0.00000000000E+00 -0.45593999997E+02  0.45594000000E+02  0.51100000000E-03 0.  1.
    9900012    2    1    2    0    0 -0.99979530796E+00 -0.61655199231E+00 -0.11215439735E+00  0.90008039990E+02  0.90000305317E+02 0.  0.
         12    1    1    2    0    0  0.99979530796E+00  0.61655199231E+00  0.11215439735E+00  0.11799600103E+01  0.00000000000E+00 0. -1.
         11    1    3    3    0    0 -0.63825659428E+01  0.56008638948E+01  0.16841814482E+02  0.18861429949E+02  0.51100000000E-03 0. -1.
        -11    1    3    3    0    0  0.60454025245E+01 -0.36878652152E+01  0.26593755406E+02  0.27520448187E+02  0.51100000000E-03 0.  1.
        -12    1    3    3    0    0 -0.66263188965E+00 -0.25295506719E+01 -0.43547724286E+02  0.43626161854E+02  0.00000000000E+00 0.  1.
</event>
<event>
 7    1  0.2084210E-015  0.9000776E+02  0.7816164E-02  0.1186339E+00
        -11   -1    0    0    0    0  0.00000000000E+00  0.00000000000E+00  0.45593999997E+02  0.45594000000E+02  0.51100000000E-03 0. -1.
         11   -1    0    0    0    0 -0.00000000000E+00 -0.00000000000E+00 -0.45593999997E+02  0.45594000000E+02  0.51100000000E-03 0.  1.
    9900012    2    1    2    0    0 -0.52450844725E+00 -0.92641560823E+00 -0.50952320976E+00  0.90007758969E+02  0.90000020587E+02 0.  0.
         12    1    1    2    0    0  0.52450844725E+00  0.92641560823E+00  0.50952320976E+00  0.11802410312E+01  0.00000000000E+00 0. -1.
         11    1    3    3    0    0 -0.97632271014E+01  0.14967965905E+02 -0.11455672855E+02  0.21227177099E+02  0.51100000000E-03 0. -1.
        -11    1    3    3    0    0 -0.64429131216E+01  0.12797453120E+02 -0.19436065819E+02  0.24146357710E+02  0.51100000000E-03 0.  1.
         12    1    3    3    0    0  0.15681631776E+02 -0.28691834634E+02  0.30382215465E+02  0.44634224160E+02  0.00000000000E+00 0. -1.
</event>
<event>
 7    1  0.2084210E-015  0.9000766E+02  0.7816164E-02  0.1186339E+00
        -11   -1    0    0    0    0  0.00000000000E+00  0.00000000000E+00  0.45593999997E+02  0.45594000000E+02  0.51100000000E-03 0.  1.
         11   -1    0    0    0    0 -0.00000000000E+00 -0.00000000000E+00 -0.45593999997E+02  0.45594000000E+02  0.51100000000E-03 0. -1.
    9900012    2    1    2    0    0  0.71974954756E+00 -0.75309194593E+00  0.55499566565E+00  0.90007658067E+02  0.89999918353E+02 0.  0.
         12    1    1    2    0    0 -0.71974954756E+00  0.75309194593E+00 -0.55499566565E+00  0.11803419331E+01  0.00000000000E+00 0. -1.
         11    1    3    3    0    0  0.23164208093E+02  0.18316439005E+02 -0.59615733568E+01  0.30126613344E+02  0.51100000000E-03 0. -1.
        -11    1    3    3    0    0 -0.10323773186E+02  0.16330416337E+02 -0.63128781876E+01  0.20325236082E+02  0.51100000000E-03 0.  1.
         12    1    3    3    0    0 -0.12120685359E+02 -0.35399947287E+02  0.12829447210E+02  0.39555808641E+02  0.00000000000E+00 0. -1.
</event>
<event>
 7    1  0.2084210E-015  0.9000780E+02  0.7816164E-02  0.1186339E+00
        -11   -1    0    0    0    0  0.00000000000E+00  0.00000000000E+00  0.45593999997E+02  0.45594000000E+02  0.51100000000E-03 0.  1.
         11   -1    0    0    0    0 -0.00000000000E+00 -0.00000000000E+00 -0.45593999997E+02  0.45594000000E+02  0.51100000000E-03 0. -1.
    9900012    2    1    2    0    0  0.94466234357E+00  0.19375781521E+00  0.68040299315E+00  0.90007797785E+02  0.90000059916E+02 0.  0.
         12    1    1    2    0    0 -0.94466234357E+00 -0.19375781521E+00 -0.68040299315E+00  0.11802022146E+01  0.00000000000E+00 0. -1.
         11    1    3    3    0    0 -0.14380478218E+02  0.21622164652E+02  0.25329189966E+02  0.36275115749E+02  0.51100000000E-03 0. -1.
        -11    1    3    3    0    0  0.50634126862E+01  0.42147968933E+01  0.83913055590E+01  0.10668489590E+02  0.51100000000E-03 0.  1.
        -12    1    3    3    0    0  0.10261727876E+02 -0.25643203730E+02 -0.33040092532E+02  0.43064192446E+02  0.00000000000E+00 0.  1.
</event>
<event>
 7    1  0.2084210E-015  0.9000780E+02  0.7816164E-02  0.1186339E+00
        -11   -1    0    0    0    0  0.00000000000E+00  0.00000000000E+00  0.45593999997E+02  0.45594000000E+02  0.51100000000E-03 0.  1.
         11   -1    0    0    0    0 -0.00000000000E+00 -0.00000000000E+00 -0.45593999997E+02  0.45594000000E+02  0.51100000000E-03 0. -1.
    9900012    2    1    2    0    0  0.36764950679E-02 -0.11798860008E+01  0.26883804663E-01  0.90007802038E+02  0.90000064224E+02 0.  0.
         12    1    1    2    0    0 -0.36764950679E-02  0.11798860008E+01 -0.26883804663E-01  0.11801979624E+01  0.00000000000E+00 0. -1.
         11    1    3    3    0    0 -0.20458211340E+02 -0.30302324653E+02 -0.18303963105E+01  0.36607644578E+02  0.51100000000E-03 0. -1.
        -11    1    3    3    0    0 -0.22094942608E+01 -0.20893345964E+01 -0.12023494906E+02  0.12402081033E+02  0.51100000000E-03 0.  1.
        -12    1    3    3    0    0  0.22671382096E+02  0.31211773249E+02  0.13880775021E+02  0.40998076426E+02  0.00000000000E+00 0.  1.
</event>
<event>
 7    1  0.2084210E-015  0.9000771E+02  0.7816164E-02  0.1186339E+00
        -11   -1    0    0    0    0  0.00000000000E+00  0.00000000000E+00  0.45593999997E+02  0.45594000000E+02  0.51100000000E-03 0.  1.
         11   -1    0    0    0    0 -0.00000000000E+00 -0.00000000000E+00 -0.45593999997E+02  0.45594000000E+02  0.51100000000E-03 0. -1.
    9900012    2    1    2    0    0  0.66665406064E+00  0.62494170305E+00  0.74705942729E+00  0.90007712935E+02  0.89999973945E+02 0.  0.
         12    1    1    2    0    0 -0.66665406064E+00 -0.62494170305E+00 -0.74705942729E+00  0.11802870654E+01  0.00000000000E+00 0. -1.
         11    1    3    3    0    0 -0.77211066907E+01  0.74567739888E+01  0.31833484099E+00  0.10738729170E+02  0.51100000000E-03 0. -1.
        -11    1    3    3    0    0 -0.60455152119E+01  0.31657909409E+02  0.15140073646E+02  0.35608893729E+02  0.51100000000E-03 0.  1.
         12    1    3    3    0    0  0.14433275963E+02 -0.38489741695E+02 -0.14711349060E+02  0.43660090036E+02  0.00000000000E+00 0. -1.
</event>
<event>
 7    1  0.2084210E-015  0.9000773E+02  0.7816164E-02  0.1186339E+00
        -11   -1    0    0    0    0  0.00000000000E+00  0.00000000000E+00  0.45593999997E+02  0.45594000000E+02  0.51100000000E-03 0. -1.
         11   -1    0    0    0    0 -0.00000000000E+00 -0.00000000000E+00 -0.45593999997E+02  0.45594000000E+02  0.51100000000E-03 0.  1.
    9900012    2    1    2    0    0 -0.10432090429E+01  0.55167446596E+00 -0.20285159725E-01  0.90007728289E+02  0.89999989503E+02 0.  0.
         12    1    1    2    0    0  0.10432090429E+01 -0.55167446596E+00  0.20285159725E-01  0.11802717108E+01  0.00000000000E+00 0. -1.
         11    1    3    3    0    0 -0.48386097151E+01  0.63993071217E+01 -0.20862000454E+01  0.82894816788E+01  0.51100000000E-03 0. -1.
        -11    1    3    3    0    0 -0.15402831178E+02 -0.38412481040E+02  0.11105689072E+02  0.42849763570E+02  0.51100000000E-03 0.  1.
         12    1    3    3    0    0  0.19198231850E+02  0.32564848385E+02 -0.90397741867E+01  0.38868483040E+02  0.00000000000E+00 0. -1.
</event>
<event>
 7    1  0.2084210E-015  0.9000766E+02  0.7816164E-02  0.1186339E+00
        -11   -1    0    0    0    0  0.00000000000E+00  0.00000000000E+00  0.45593999997E+02  0.45594000000E+02  0.51100000000E-03 0. -1.
         11   -1    0    0    0    0 -0.00000000000E+00 -0.00000000000E+00 -0.45593999997E+02  0.45594000000E+02  0.51100000000E-03 0.  1.
    9900012    2    1    2    0    0 -0.83678049900E+00  0.31633194347E-01 -0.83186368688E+00  0.90007661296E+02  0.89999921625E+02 0.  0.
         12    1    1    2    0    0  0.83678049900E+00 -0.31633194347E-01  0.83186368688E+00  0.11803387039E+01  0.00000000000E+00 0. -1.
         11    1    3    3    0    0  0.20305706366E+01 -0.87600170309E+01 -0.11347609392E+00  0.89929968629E+01  0.51100000000E-03 0. -1.
        -11    1    3    3    0    0  0.28123586210E+02 -0.16829177118E+02  0.17176152077E+02  0.37002398628E+02  0.51100000000E-03 0.  1.
         12    1    3    3    0    0 -0.30990937346E+02  0.25620827343E+02 -0.17894539670E+02  0.44012265805E+02  0.00000000000E+00 0. -1.
</event>
<event>
 7    1  0.2496734E-015  0.9000703E+02  0.7816164E-02  0.1186340E+00
        -11   -1    0    0    0    0  0.00000000000E+00  0.00000000000E+00  0.45593999997E+02  0.45594000000E+02  0.51100000000E-03 0. -1.
         11   -1    0    0    0    0 -0.00000000000E+00 -0.00000000000E+00 -0.45593999997E+02  0.45594000000E+02  0.51100000000E-03 0.  1.
    9900012    2    1    2    0    0 -0.32865052059E+00 -0.63166119622E-01 -0.11325591944E+01  0.90007029445E+02  0.89999281431E+02 0.  0.
         12    1    1    2    0    0  0.32865052059E+00  0.63166119622E-01  0.11325591944E+01  0.11809705552E+01  0.00000000000E+00 0. -1.
         11    1    3    3    0    0  0.37240666733E+01  0.21699485681E+02  0.30103350195E+02  0.37295415866E+02  0.51100000000E-03 0. -1.
        -11    1    3    3    0    0 -0.64106267097E+01  0.19313004394E+01  0.56818282428E+01  0.87811860611E+01  0.51100000000E-03 0.  1.
        -12    1    3    3    0    0  0.23579095158E+01 -0.23693952240E+02 -0.36917737632E+02  0.43930427518E+02  0.00000000000E+00 0.  1.
</event>
<event>
 7    1  0.2084210E-015  0.9000775E+02  0.7816164E-02  0.1186339E+00
        -11   -1    0    0    0    0  0.00000000000E+00  0.00000000000E+00  0.45593999997E+02  0.45594000000E+02  0.51100000000E-03 0.  1.
         11   -1    0    0    0    0 -0.00000000000E+00 -0.00000000000E+00 -0.45593999997E+02  0.45594000000E+02  0.51100000000E-03 0. -1.
    9900012    2    1    2    0    0 -0.85579776147E+00  0.81153130723E+00 -0.45032289101E-01  0.90007745460E+02  0.90000006900E+02 0.  0.
         12    1    1    2    0    0  0.85579776147E+00 -0.81153130723E+00  0.45032289101E-01  0.11802545396E+01  0.00000000000E+00 0. -1.
         11    1    3    3    0    0 -0.15464254548E+02  0.40525244256E+02  0.17806370073E+01  0.43412086556E+02  0.51100000000E-03 0. -1.
        -11    1    3    3    0    0 -0.45283913322E+01 -0.79415977432E+01  0.18380720801E+01  0.93249027880E+01  0.51100000000E-03 0.  1.
        -12    1    3    3    0    0  0.19136848119E+02 -0.31772115206E+02 -0.36637413766E+01  0.37270756116E+02  0.00000000000E+00 0.  1.
</event>
<event>
 7    1  0.2084210E-015  0.9000773E+02  0.7816164E-02  0.1186339E+00
        -11   -1    0    0    0    0  0.00000000000E+00  0.00000000000E+00  0.45593999997E+02  0.45594000000E+02  0.51100000000E-03 0. -1.
         11   -1    0    0    0    0 -0.00000000000E+00 -0.00000000000E+00 -0.45593999997E+02  0.45594000000E+02  0.51100000000E-03 0.  1.
    9900012    2    1    2    0    0  0.46849965194E+00  0.89259192398E+00  0.61385299918E+00  0.90007734025E+02  0.89999995314E+02 0.  0.
         12    1    1    2    0    0 -0.46849965194E+00 -0.89259192398E+00 -0.61385299918E+00  0.11802659748E+01  0.00000000000E+00 0. -1.
         11    1    3    3    0    0 -0.10396565698E+01  0.58330869261E+01 -0.86795105617E+01  0.10509029105E+02  0.51100000000E-03 0. -1.
        -11    1    3    3    0    0  0.24553189122E+02  0.26419671575E+02 -0.79491620383E+01  0.36933011244E+02  0.51100000000E-03 0.  1.
         12    1    3    3    0    0 -0.23045032900E+02 -0.31360166577E+02  0.17242525599E+02  0.42565693676E+02  0.00000000000E+00 0. -1.
</event>
<event>
 7    1  0.2084210E-015  0.9000771E+02  0.7816164E-02  0.1186339E+00
        -11   -1    0    0    0    0  0.00000000000E+00  0.00000000000E+00  0.45593999997E+02  0.45594000000E+02  0.51100000000E-03 0.  1.
         11   -1    0    0    0    0 -0.00000000000E+00 -0.00000000000E+00 -0.45593999997E+02  0.45594000000E+02  0.51100000000E-03 0. -1.
    9900012    2    1    2    0    0  0.79605987514E+00 -0.41945102621E-01  0.87040554527E+00  0.90007713370E+02  0.89999974386E+02 0.  0.
         12    1    1    2    0    0 -0.79605987514E+00  0.41945102621E-01 -0.87040554527E+00  0.11802866303E+01  0.00000000000E+00 0. -1.
         11    1    3    3    0    0  0.38324392293E+00 -0.14645346990E+02 -0.10565885359E+02  0.18062973123E+02  0.51100000000E-03 0. -1.
        -11    1    3    3    0    0 -0.31026221619E+02 -0.85159361062E+00  0.18604156964E+02  0.36186548554E+02  0.51100000000E-03 0.  1.
         12    1    3    3    0    0  0.31439037572E+02  0.15454995498E+02 -0.71678660601E+01  0.35758191692E+02  0.00000000000E+00 0. -1.
</event>
<event>
 7    1  0.2084210E-015  0.9000750E+02  0.7816164E-02  0.1186340E+00
        -11   -1    0    0    0    0  0.00000000000E+00  0.00000000000E+00  0.45593999997E+02  0.45594000000E+02  0.51100000000E-03 0. -1.
         11   -1    0    0    0    0 -0.00000000000E+00 -0.00000000000E+00 -0.45593999997E+02  0.45594000000E+02  0.51100000000E-03 0.  1.
    9900012    2    1    2    0    0 -0.19100688725E+00 -0.97919220612E+00 -0.63109873850E+00  0.90007497300E+02  0.89999755464E+02 0.  0.
         12    1    1    2    0    0  0.19100688725E+00  0.97919220612E+00  0.63109873850E+00  0.11805027002E+01  0.00000000000E+00 0. -1.
         11    1    3    3    0    0  0.36148212860E+02 -0.18345256160E+02  0.43367713714E+01  0.40768238897E+02  0.51100000000E-03 0. -1.
        -11    1    3    3    0    0 -0.50613715742E+01 -0.69952309859E+01  0.22944817834E+01  0.89339456946E+01  0.51100000000E-03 0.  1.
        -12    1    3    3    0    0 -0.31277848173E+02  0.24361294940E+02 -0.72623518933E+01  0.40305312708E+02  0.00000000000E+00 0.  1.
</event>
<event>
 7    1  0.2084210E-015  0.9000772E+02  0.7816164E-02  0.1186339E+00
        -11   -1    0    0    0    0  0.00000000000E+00  0.00000000000E+00  0.45593999997E+02  0.45594000000E+02  0.51100000000E-03 0.  1.
         11   -1    0    0    0    0 -0.00000000000E+00 -0.00000000000E+00 -0.45593999997E+02  0.45594000000E+02  0.51100000000E-03 0. -1.
    9900012    2    1    2    0    0  0.69711138013E+00 -0.93875003054E+00 -0.16075354564E+00  0.90007721389E+02  0.89999982512E+02 0.  0.
         12    1    1    2    0    0 -0.69711138013E+00  0.93875003054E+00  0.16075354564E+00  0.11802786106E+01  0.00000000000E+00 0. -1.
         11    1    3    3    0    0 -0.23614676845E+02 -0.16032691156E+01 -0.27502435224E+02  0.36285084786E+02  0.51100000000E-03 0. -1.
        -11    1    3    3    0    0 -0.38940571410E+01  0.44993679223E+01 -0.69542785578E+01  0.91525943447E+01  0.51100000000E-03 0.  1.
        -12    1    3    3    0    0  0.28205845366E+02 -0.38348488372E+01  0.34295960237E+02  0.44570042259E+02  0.00000000000E+00 0.  1.
</event>
<event>
 7    1  0.2084210E-015  0.9000724E+02  0.7816164E-02  0.1186340E+00
        -11   -1    0    0    0    0  0.00000000000E+00  0.00000000000E+00  0.45593999997E+02  0.45594000000E+02  0.51100000000E-03 0.  1.
         11   -1    0    0    0    0 -0.00000000000E+00 -0.00000000000E+00 -0.45593999997E+02  0.45594000000E+02  0.51100000000E-03 0. -1.
    9900012    2    1    2    0    0  0.44267191505E+00  0.10714786137E+01 -0.22398468557E+00  0.90007240082E+02  0.89999494850E+02 0.  0.
         12    1    1    2    0    0 -0.44267191505E+00 -0.10714786137E+01  0.22398468557E+00  0.11807599178E+01  0.00000000000E+00 0. -1.
         11    1    3    3    0    0  0.55566709829E+01 -0.48361867324E+01 -0.53348050313E+01  0.90953526323E+01  0.51100000000E-03 0. -1.
        -11    1    3    3    0    0  0.17429625521E+02  0.35958989421E+02 -0.86818095965E+01  0.40892720430E+02  0.51100000000E-03 0.  1.
         12    1    3    3    0    0 -0.22543624589E+02 -0.30051324075E+02  0.13792629942E+02  0.40019167020E+02  0.00000000000E+00 0. -1.
</event>
<event>
 7    1  0.2084210E-015  0.9000775E+02  0.7816164E-02  0.1186339E+00
        -11   -1    0    0    0    0  0.00000000000E+00  0.00000000000E+00  0.45593999997E+02  0.45594000000E+02  0.51100000000E-03 0.  1.
         11   -1    0    0    0    0 -0.00000000000E+00 -0.00000000000E+00 -0.45593999997E+02  0.45594000000E+02  0.51100000000E-03 0. -1.
    9900012    2    1    2    0    0 -0.57785276592E+00 -0.45668314883E+00  0.92222836572E+00  0.90007754908E+02  0.90000016473E+02 0.  0.
         12    1    1    2    0    0  0.57785276592E+00  0.45668314883E+00 -0.92222836572E+00  0.11802450915E+01  0.00000000000E+00 0. -1.
         11    1    3    3    0    0 -0.14957423613E+02 -0.23535725446E+02 -0.21497228873E+02  0.35210591345E+02  0.51100000000E-03 0. -1.
        -11    1    3    3    0    0 -0.63494091999E+01 -0.41616098936E+01 -0.64933414098E+01  0.99898687188E+01  0.51100000000E-03 0.  1.
        -12    1    3    3    0    0  0.20728980047E+02  0.27240652190E+02  0.28912798649E+02  0.44807294844E+02  0.00000000000E+00 0.  1.
</event>
<event>
 7    1  0.2084210E-015  0.9000767E+02  0.7816164E-02  0.1186339E+00
        -11   -1    0    0    0    0  0.00000000000E+00  0.00000000000E+00  0.45593999997E+02  0.45594000000E+02  0.51100000000E-03 0. -1.
         11   -1    0    0    0    0 -0.00000000000E+00 -0.00000000000E+00 -0.45593999997E+02  0.45594000000E+02  0.51100000000E-03 0.  1.
    9900012    2    1    2    0    0 -0.51503077794E-01  0.10976557149E+01 -0.43090941627E+00  0.90007668030E+02  0.89999928448E+02 0.  0.
         12    1    1    2    0    0  0.51503077794E-01 -0.10976557149E+01  0.43090941627E+00  0.11803319704E+01  0.00000000000E+00 0. -1.
         11    1    3    3    0    0  0.37571169697E+01  0.67982819439E+01 -0.69689067568E+01  0.10435431326E+02  0.51100000000E-03 0. -1.
        -11    1    3    3    0    0 -0.91143351995E+01 -0.40810114281E+02  0.12328538412E+02  0.43595061572E+02  0.51100000000E-03 0.  1.
         12    1    3    3    0    0  0.53057151520E+01  0.35109488052E+02 -0.57905410718E+01  0.35977175132E+02  0.00000000000E+00 0. -1.
</event>
<event>
 7    1  0.2084210E-015  0.9000709E+02  0.7816164E-02  0.1186340E+00
        -11   -1    0    0    0    0  0.00000000000E+00  0.00000000000E+00  0.45593999997E+02  0.45594000000E+02  0.51100000000E-03 0.  1.
         11   -1    0    0    0    0 -0.00000000000E+00 -0.00000000000E+00 -0.45593999997E+02  0.45594000000E+02  0.51100000000E-03 0. -1.
    9900012    2    1    2    0    0  0.75282241207E+00  0.18117445847E+00  0.89161681140E+00  0.90007090898E+02  0.89999343696E+02 0.  0.
         12    1    1    2    0    0 -0.75282241207E+00 -0.18117445847E+00 -0.89161681140E+00  0.11809091019E+01  0.00000000000E+00 0. -1.
         11    1    3    3    0    0  0.43183813157E+01  0.59175065813E+01 -0.48968767117E+01  0.88116231829E+01  0.51100000000E-03 0. -1.
        -11    1    3    3    0    0 -0.15624876748E+02  0.29276603063E+02 -0.17432852982E+02  0.37485472168E+02  0.51100000000E-03 0.  1.
         12    1    3    3    0    0  0.12059317845E+02 -0.35012935186E+02  0.23221346505E+02  0.43709995547E+02  0.00000000000E+00 0. -1.
</event>
<event>
 7    1  0.2084210E-015  0.9000780E+02  0.7816164E-02  0.1186339E+00
        -11   -1    0    0    0    0  0.00000000000E+00  0.00000000000E+00  0.45593999997E+02  0.45594000000E+02  0.51100000000E-03 0.  1.
         11   -1    0    0    0    0 -0.00000000000E+00 -0.00000000000E+00 -0.45593999997E+02  0.45594000000E+02  0.51100000000E-03 0. -1.
    9900012    2    1    2    0    0 -0.11403588175E+01 -0.30262817425E+00 -0.29528801960E-01  0.90007799172E+02  0.90000061321E+02 0.  0.
         12    1    1    2    0    0  0.11403588175E+01  0.30262817425E+00  0.29528801960E-01  0.11802008281E+01  0.00000000000E+00 0. -1.
         11    1    3    3    0    0  0.72103405279E+01  0.24399989081E+02 -0.33429831786E+02  0.42010738284E+02  0.51100000000E-03 0. -1.
        -11    1    3    3    0    0 -0.43515136193E+01 -0.69756575772E+01 -0.17693715258E+01  0.84098837847E+01  0.51100000000E-03 0.  1.
        -12    1    3    3    0    0 -0.39991857261E+01 -0.17726959678E+02  0.35169674510E+02  0.39587177103E+02  0.00000000000E+00 0.  1.
</event>
<event>
 7    1  0.2829918E-015  0.9000771E+02  0.7816164E-02  0.1186339E+00
        -11   -1    0    0    0    0  0.00000000000E+00  0.00000000000E+00  0.45593999997E+02  0.45594000000E+02  0.51100000000E-03 0.  1.
         11   -1    0    0    0    0 -0.00000000000E+00 -0.00000000000E+00 -0.45593999997E+02  0.45594000000E+02  0.51100000000E-03 0. -1.
    9900012    2    1    2    0    0 -0.51834840164E+00 -0.19085194066E+00  0.10430606646E+01  0.90007709748E+02  0.89999970717E+02 0.  0.
         12    1    1    2    0    0  0.51834840164E+00  0.19085194066E+00 -0.10430606646E+01  0.11802902519E+01  0.00000000000E+00 0. -1.
         11    1    3    3    0    0  0.29920383255E+02  0.81612000900E+00 -0.19971600688E+02  0.35982776717E+02  0.51100000000E-03 0. -1.
        -11    1    3    3    0    0  0.51646338273E+01  0.42070708688E+01 -0.60507496124E+01  0.89991365696E+01  0.51100000000E-03 0.  1.
        -12    1    3    3    0    0 -0.35603365483E+02 -0.52140428185E+01  0.27065410965E+02  0.45025796461E+02  0.00000000000E+00 0.  1.
</event>
<event>
 7    1  0.2084210E-015  0.9000773E+02  0.7816164E-02  0.1186339E+00
        -11   -1    0    0    0    0  0.00000000000E+00  0.00000000000E+00  0.45593999997E+02  0.45594000000E+02  0.51100000000E-03 0. -1.
         11   -1    0    0    0    0 -0.00000000000E+00 -0.00000000000E+00 -0.45593999997E+02  0.45594000000E+02  0.51100000000E-03 0.  1.
    9900012    2    1    2    0    0 -0.51198404715E+00  0.90760775296E+00 -0.55422424093E+00  0.90007727147E+02  0.89999988346E+02 0.  0.
         12    1    1    2    0    0  0.51198404715E+00 -0.90760775296E+00  0.55422424093E+00  0.11802728528E+01  0.00000000000E+00 0. -1.
         11    1    3    3    0    0 -0.16089896187E+02 -0.18760005297E+02 -0.34488355426E+01  0.24954298726E+02  0.51100000000E-03 0. -1.
        -11    1    3    3    0    0 -0.18464253059E+02  0.19504365057E+02  0.12582509840E+02  0.29659205172E+02  0.51100000000E-03 0.  1.
        -12    1    3    3    0    0  0.34042165199E+02  0.16324799275E+00 -0.96878985384E+01  0.35394223249E+02  0.00000000000E+00 0.  1.
</event>
<event>
 7    1  0.2084210E-015  0.9000768E+02  0.7816164E-02  0.1186339E+00
        -11   -1    0    0    0    0  0.00000000000E+00  0.00000000000E+00  0.45593999997E+02  0.45594000000E+02  0.51100000000E-03 0. -1.
         11   -1    0    0    0    0 -0.00000000000E+00 -0.00000000000E+00 -0.45593999997E+02  0.45594000000E+02  0.51100000000E-03 0.  1.
    9900012    2    1    2    0    0  0.48742319048E+00  0.91242456348E+00 -0.56838442943E+00  0.90007677667E+02  0.89999938212E+02 0.  0.
         12    1    1    2    0    0 -0.48742319048E+00 -0.91242456348E+00  0.56838442943E+00  0.11803223332E+01  0.00000000000E+00 0. -1.
         11    1    3    3    0    0 -0.18011611642E+01  0.71463615432E+01 -0.69389423266E+01  0.10122429833E+02  0.51100000000E-03 0. -1.
        -11    1    3    3    0    0  0.16918531225E+02  0.31983561448E+02  0.12964874496E+02  0.38435307630E+02  0.51100000000E-03 0.  1.
         12    1    3    3    0    0 -0.14629946870E+02 -0.38217498428E+02 -0.65943165985E+01  0.41449940204E+02  0.00000000000E+00 0. -1.
</event>
<event>
 7    1  0.2084210E-015  0.9000777E+02  0.7816164E-02  0.1186339E+00
        -11   -1    0    0    0    0  0.00000000000E+00  0.00000000000E+00  0.45593999997E+02  0.45594000000E+02  0.51100000000E-03 0.  1.
         11   -1    0    0    0    0 -0.00000000000E+00 -0.00000000000E+00 -0.45593999997E+02  0.45594000000E+02  0.51100000000E-03 0. -1.
    9900012    2    1    2    0    0 -0.16389717390E+00  0.79702896501E+00  0.85488693014E+00  0.90007767346E+02  0.90000029075E+02 0.  0.
         12    1    1    2    0    0  0.16389717390E+00 -0.79702896501E+00 -0.85488693014E+00  0.11802326542E+01  0.00000000000E+00 0. -1.
         11    1    3    3    0    0 -0.20793378530E+01 -0.88020038309E+01  0.60244900250E+01  0.10867078617E+02  0.51100000000E-03 0. -1.
        -11    1    3    3    0    0 -0.69484656402E+01 -0.22976859038E+02  0.24424373045E+02  0.34245689143E+02  0.51100000000E-03 0.  1.
         12    1    3    3    0    0  0.88639063194E+01  0.32575891834E+02 -0.29593976140E+02  0.44894999585E+02  0.00000000000E+00 0. -1.
</event>
<event>
 7    1  0.2084210E-015  0.9000790E+02  0.7816164E-02  0.1186339E+00
        -11   -1    0    0    0    0  0.00000000000E+00  0.00000000000E+00  0.45593999997E+02  0.45594000000E+02  0.51100000000E-03 0.  1.
         11   -1    0    0    0    0 -0.00000000000E+00 -0.00000000000E+00 -0.45593999997E+02  0.45594000000E+02  0.51100000000E-03 0. -1.
    9900012    2    1    2    0    0 -0.10594330576E+01 -0.24345383356E+00  0.45931461994E+00  0.90007899118E+02  0.90000162586E+02 0.  0.
         12    1    1    2    0    0  0.10594330576E+01  0.24345383356E+00 -0.45931461994E+00  0.11801008824E+01  0.00000000000E+00 0. -1.
         11    1    3    3    0    0 -0.23137087137E+02 -0.34566303692E+02 -0.11149209354E+02  0.43063430212E+02  0.51100000000E-03 0. -1.
        -11    1    3    3    0    0 -0.34445132741E+01  0.54388832249E+01  0.42219229405E+01  0.76987502886E+01  0.51100000000E-03 0.  1.
        -12    1    3    3    0    0  0.25522167354E+02  0.28883966634E+02  0.73866010332E+01  0.39245718617E+02  0.00000000000E+00 0.  1.
</event>
<event>
 7    1  0.2084210E-015  0.9000775E+02  0.7816164E-02  0.1186339E+00
        -11   -1    0    0    0    0  0.00000000000E+00  0.00000000000E+00  0.45593999997E+02  0.45594000000E+02  0.51100000000E-03 0. -1.
         11   -1    0    0    0    0 -0.00000000000E+00 -0.00000000000E+00 -0.45593999997E+02  0.45594000000E+02  0.51100000000E-03 0.  1.
    9900012    2    1    2    0    0 -0.39268618553E+00 -0.10850837959E+01  0.24777053304E+00  0.90007745993E+02  0.90000007440E+02 0.  0.
         12    1    1    2    0    0  0.39268618553E+00  0.10850837959E+01 -0.24777053304E+00  0.11802540072E+01  0.00000000000E+00 0. -1.
         11    1    3    3    0    0 -0.88293021766E+01  0.14964063715E+02  0.37123120929E+01  0.17766852314E+02  0.51100000000E-03 0. -1.
        -11    1    3    3    0    0 -0.20064623571E+02  0.18444027355E+02 -0.36391676189E+01  0.27495723401E+02  0.51100000000E-03 0.  1.
        -12    1    3    3    0    0  0.28501239563E+02 -0.34493174866E+02  0.17462605905E+00  0.44745170278E+02  0.00000000000E+00 0.  1.
</event>
<event>
 7    1  0.2084210E-015  0.9000775E+02  0.7816164E-02  0.1186339E+00
        -11   -1    0    0    0    0  0.00000000000E+00  0.00000000000E+00  0.45593999997E+02  0.45594000000E+02  0.51100000000E-03 0.  1.
         11   -1    0    0    0    0 -0.00000000000E+00 -0.00000000000E+00 -0.45593999997E+02  0.45594000000E+02  0.51100000000E-03 0. -1.
    9900012    2    1    2    0    0  0.10179304385E+01  0.57112142733E+00  0.17502150995E+00  0.90007748081E+02  0.90000009556E+02 0.  0.
         12    1    1    2    0    0 -0.10179304385E+01 -0.57112142733E+00 -0.17502150995E+00  0.11802519186E+01  0.00000000000E+00 0. -1.
         11    1    3    3    0    0 -0.40443672546E+01  0.19755403063E+02 -0.28546702739E+02  0.34950637966E+02  0.51100000000E-03 0. -1.
        -11    1    3    3    0    0  0.23631216509E+01  0.87803346947E+01 -0.56185728039E+01  0.10688637982E+02  0.51100000000E-03 0.  1.
        -12    1    3    3    0    0  0.26991760423E+01 -0.27964616330E+02  0.34340297053E+02  0.44368472134E+02  0.00000000000E+00 0.  1.
</event>
<event>
 7    1  0.2084210E-015  0.9000760E+02  0.7816164E-02  0.1186339E+00
        -11   -1    0    0    0    0  0.00000000000E+00  0.00000000000E+00  0.45593999997E+02  0.45594000000E+02  0.51100000000E-03 0.  1.
         11   -1    0    0    0    0 -0.00000000000E+00 -0.00000000000E+00 -0.45593999997E+02  0.45594000000E+02  0.51100000000E-03 0. -1.
    9900012    2    1    2    0    0 -0.63797932124E+00 -0.88446249032E+00 -0.45171449177E+00  0.90007602824E+02  0.89999862381E+02 0.  0.
         12    1    1    2    0    0  0.63797932123E+00  0.88446249032E+00  0.45171449177E+00  0.11803971760E+01  0.00000000000E+00 0. -1.
         11    1    3    3    0    0  0.25350317409E+01  0.82192066047E+01  0.41648145430E+01  0.95565382632E+01  0.51100000000E-03 0. -1.
        -11    1    3    3    0    0  0.36052966178E+02 -0.59518411631E+01  0.10927636120E+02  0.38139926782E+02  0.51100000000E-03 0.  1.
         12    1    3    3    0    0 -0.39225977240E+02 -0.31518279319E+01 -0.15544165155E+02  0.42311137779E+02  0.00000000000E+00 0. -1.
</event>
<event>
 7    1  0.2084210E-015  0.9000780E+02  0.7816164E-02  0.1186339E+00
        -11   -1    0    0    0    0  0.00000000000E+00  0.00000000000E+00  0.45593999997E+02  0.45594000000E+02  0.51100000000E-03 0. -1.
         11   -1    0    0    0    0 -0.00000000000E+00 -0.00000000000E+00 -0.45593999997E+02  0.45594000000E+02  0.51100000000E-03 0.  1.
    9900012    2    1    2    0    0  0.10818283738E+00  0.10603368198E+01 -0.50681904804E+00  0.90007795253E+02  0.90000057350E+02 0.  0.
         12    1    1    2    0    0 -0.10818283738E+00 -0.10603368198E+01  0.50681904804E+00  0.11802047472E+01  0.00000000000E+00 0. -1.
         11    1    3    3    0    0  0.14485594962E+02 -0.20489325317E+02  0.24448670074E+02  0.35034017498E+02  0.51100000000E-03 0. -1.
        -11    1    3    3    0    0  0.21510617418E+01 -0.37852813452E+01  0.86958540644E+01  0.97248804440E+01  0.51100000000E-03 0.  1.
        -12    1    3    3    0    0 -0.16528473867E+02  0.25334943482E+02 -0.33651343187E+02  0.45248897311E+02  0.00000000000E+00 0.  1.
</event>
<event>
 7    1  0.2084210E-015  0.9000769E+02  0.7816164E-02  0.1186339E+00
        -11   -1    0    0    0    0  0.00000000000E+00  0.00000000000E+00  0.45593999997E+02  0.45594000000E+02  0.51100000000E-03 0. -1.
         11   -1    0    0    0    0 -0.00000000000E+00 -0.00000000000E+00 -0.45593999997E+02  0.45594000000E+02  0.51100000000E-03 0.  1.
    9900012    2    1    2    0    0 -0.21491134816E+00  0.10126455215E+01 -0.56701065919E+00  0.90007686937E+02  0.89999947604E+02 0.  0.
         12    1    1    2    0    0  0.21491134816E+00 -0.10126455215E+01  0.56701065919E+00  0.11803130633E+01  0.00000000000E+00 0. -1.
         11    1    3    3    0    0  0.75671146286E+00  0.22955434485E+01  0.88721365292E+01  0.91954846972E+01  0.51100000000E-03 0. -1.
        -11    1    3    3    0    0  0.24355287202E+02  0.17384092279E+02  0.21375020384E+02  0.36773335118E+02  0.51100000000E-03 0.  1.
         12    1    3    3    0    0 -0.25326910013E+02 -0.18666990206E+02 -0.30814167572E+02  0.44038867121E+02  0.00000000000E+00 0. -1.
</event>
<event>
 7    1  0.2084210E-015  0.9000761E+02  0.7816164E-02  0.1186339E+00
        -11   -1    0    0    0    0  0.00000000000E+00  0.00000000000E+00  0.45593999997E+02  0.45594000000E+02  0.51100000000E-03 0.  1.
         11   -1    0    0    0    0 -0.00000000000E+00 -0.00000000000E+00 -0.45593999997E+02  0.45594000000E+02  0.51100000000E-03 0. -1.
    9900012    2    1    2    0    0 -0.96199874524E+00  0.66009863039E+00  0.17929459404E+00  0.90007610937E+02  0.89999870602E+02 0.  0.
         12    1    1    2    0    0  0.96199874524E+00 -0.66009863039E+00 -0.17929459404E+00  0.11803890626E+01  0.00000000000E+00 0. -1.
         11    1    3    3    0    0 -0.23441252111E+02 -0.32889229806E+02 -0.71788708456E+00  0.40394419168E+02  0.51100000000E-03 0. -1.
        -11    1    3    3    0    0 -0.51826355924E+01  0.61797250062E+01 -0.60525901980E+01  0.10083777130E+02  0.51100000000E-03 0.  1.
        -12    1    3    3    0    0  0.27661888958E+02  0.27369603430E+02  0.69497718766E+01  0.39529414640E+02  0.00000000000E+00 0.  1.
</event>
<event>
 7    1  0.2084210E-015  0.9000771E+02  0.7816164E-02  0.1186339E+00
        -11   -1    0    0    0    0  0.00000000000E+00  0.00000000000E+00  0.45593999997E+02  0.45594000000E+02  0.51100000000E-03 0.  1.
         11   -1    0    0    0    0 -0.00000000000E+00 -0.00000000000E+00 -0.45593999997E+02  0.45594000000E+02  0.51100000000E-03 0. -1.
    9900012    2    1    2    0    0 -0.65050899378E+00  0.98448722788E+00  0.26645705335E-01  0.90007708915E+02  0.89999969872E+02 0.  0.
         12    1    1    2    0    0  0.65050899378E+00 -0.98448722788E+00 -0.26645705335E-01  0.11802910855E+01  0.00000000000E+00 0. -1.
         11    1    3    3    0    0 -0.10357909843E+01  0.10701524583E+02  0.11229330434E+00  0.10752120787E+02  0.51100000000E-03 0. -1.
        -11    1    3    3    0    0 -0.56746625516E+01 -0.22517990812E+02  0.34668008351E+02  0.41726879928E+02  0.51100000000E-03 0.  1.
         12    1    3    3    0    0  0.60599445421E+01  0.12800953456E+02 -0.34753655950E+02  0.37528708200E+02  0.00000000000E+00 0. -1.
</event>
<event>
 7    1  0.2084210E-015  0.9000768E+02  0.7816164E-02  0.1186339E+00
        -11   -1    0    0    0    0  0.00000000000E+00  0.00000000000E+00  0.45593999997E+02  0.45594000000E+02  0.51100000000E-03 0. -1.
         11   -1    0    0    0    0 -0.00000000000E+00 -0.00000000000E+00 -0.45593999997E+02  0.45594000000E+02  0.51100000000E-03 0.  1.
    9900012    2    1    2    0    0  0.70600042997E+00 -0.87431031125E+00  0.36096731014E+00  0.90007681176E+02  0.89999941767E+02 0.  0.
         12    1    1    2    0    0 -0.70600042997E+00  0.87431031125E+00 -0.36096731014E+00  0.11803188241E+01  0.00000000000E+00 0. -1.
         11    1    3    3    0    0 -0.57564234510E+01 -0.38152331958E+00  0.74726073013E+01  0.94404359609E+01  0.51100000000E-03 0. -1.
        -11    1    3    3    0    0 -0.20241059346E+02 -0.31683049362E+02  0.45815110055E+01  0.37874877474E+02  0.51100000000E-03 0.  1.
         12    1    3    3    0    0  0.26703483227E+02  0.31190262370E+02 -0.11693150997E+02  0.42692367741E+02  0.00000000000E+00 0. -1.
</event>
<event>
 7    1  0.2084210E-015  0.9000782E+02  0.7816164E-02  0.1186339E+00
        -11   -1    0    0    0    0  0.00000000000E+00  0.00000000000E+00  0.45593999997E+02  0.45594000000E+02  0.51100000000E-03 0.  1.
         11   -1    0    0    0    0 -0.00000000000E+00 -0.00000000000E+00 -0.45593999997E+02  0.45594000000E+02  0.51100000000E-03 0. -1.
    9900012    2    1    2    0    0 -0.20113359482E+00 -0.25893142289E+00  0.11337165353E+01  0.90007824849E+02  0.90000087337E+02 0.  0.
         12    1    1    2    0    0  0.20113359482E+00  0.25893142289E+00 -0.11337165353E+01  0.11801751510E+01  0.00000000000E+00 0. -1.
         11    1    3    3    0    0 -0.69589161121E+01 -0.14354020760E+02  0.42511922245E+01  0.16508696527E+02  0.51100000000E-03 0. -1.
        -11    1    3    3    0    0  0.17627221717E+02  0.16730506459E+02  0.29962527958E+02  0.38579552534E+02  0.51100000000E-03 0.  1.
         12    1    3    3    0    0 -0.10869439200E+02 -0.26354171224E+01 -0.33080003647E+02  0.34919575788E+02  0.00000000000E+00 0. -1.
</event>
<event>
 7    1  0.2084210E-015  0.9000767E+02  0.7816164E-02  0.1186339E+00
        -11   -1    0    0    0    0  0.00000000000E+00  0.00000000000E+00  0.45593999997E+02  0.45594000000E+02  0.51100000000E-03 0.  1.
         11   -1    0    0    0    0 -0.00000000000E+00 -0.00000000000E+00 -0.45593999997E+02  0.45594000000E+02  0.51100000000E-03 0. -1.
    9900012    2    1    2    0    0 -0.73900965916E+00  0.19977968659E+00  0.89841056647E+00  0.90007665833E+02  0.89999926222E+02 0.  0.
         12    1    1    2    0    0  0.73900965916E+00 -0.19977968659E+00 -0.89841056647E+00  0.11803341669E+01  0.00000000000E+00 0. -1.
         11    1    3    3    0    0  0.45650512009E+01  0.72944228089E+01 -0.43082637557E+00  0.86159101788E+01  0.51100000000E-03 0. -1.
        -11    1    3    3    0    0 -0.73661969460E+00  0.12957530962E+02  0.37555546808E+02  0.39734862697E+02  0.51100000000E-03 0.  1.
         12    1    3    3    0    0 -0.45674411654E+01 -0.20052174085E+02 -0.36226309866E+02  0.41656892957E+02  0.00000000000E+00 0. -1.
</event>
<event>
 7    1  0.2084210E-015  0.9000775E+02  0.7816164E-02  0.1186339E+00
        -11   -1    0    0    0    0  0.00000000000E+00  0.00000000000E+00  0.45593999997E+02  0.45594000000E+02  0.51100000000E-03 0. -1.
         11   -1    0    0    0    0 -0.00000000000E+00 -0.00000000000E+00 -0.45593999997E+02  0.45594000000E+02  0.51100000000E-03 0.  1.
    9900012    2    1    2    0    0  0.65613990177E+00  0.89654451622E+00 -0.39833314613E+00  0.90007753867E+02  0.90000015418E+02 0.  0.
         12    1    1    2    0    0 -0.65613990177E+00 -0.89654451622E+00  0.39833314613E+00  0.11802461335E+01  0.00000000000E+00 0. -1.
         11    1    3    3    0    0  0.10129285791E+02 -0.29943841234E+02  0.42525342614E+01  0.31895455889E+02  0.51100000000E-03 0. -1.
        -11    1    3    3    0    0 -0.43790100646E+01 -0.86625244315E+01 -0.14155707649E+02  0.17163889943E+02  0.51100000000E-03 0.  1.
         12    1    3    3    0    0 -0.50941358243E+01  0.39502910181E+02  0.95048402410E+01  0.40948408035E+02  0.00000000000E+00 0. -1.
</event>
<event>
 7    1  0.2084210E-015  0.9000764E+02  0.7816164E-02  0.1186339E+00
        -11   -1    0    0    0    0  0.00000000000E+00  0.00000000000E+00  0.45593999997E+02  0.45594000000E+02  0.51100000000E-03 0. -1.
         11   -1    0    0    0    0 -0.00000000000E+00 -0.00000000000E+00 -0.45593999997E+02  0.45594000000E+02  0.51100000000E-03 0.  1.
    9900012    2    1    2    0    0 -0.44673432873E+00 -0.91706610067E+00  0.59385615267E+00  0.90007641189E+02  0.89999901252E+02 0.  0.
         12    1    1    2    0    0  0.44673432873E+00  0.91706610067E+00 -0.59385615267E+00  0.11803588113E+01  0.00000000000E+00 0. -1.
         11    1    3    3    0    0  0.22226885546E+02 -0.24292454076E+02  0.15835372151E+02  0.36536512936E+02  0.51100000000E-03 0. -1.
        -11    1    3    3    0    0  0.10364594986E+02  0.33640386945E+01  0.21555066220E+01  0.11108005879E+02  0.51100000000E-03 0.  1.
        -12    1    3    3    0    0 -0.33038214860E+02  0.20011349280E+02 -0.17397022620E+02  0.42363122374E+02  0.00000000000E+00 0.  1.
</event>
<event>
 7    1  0.2084210E-015  0.9000774E+02  0.7816164E-02  0.1186339E+00
        -11   -1    0    0    0    0  0.00000000000E+00  0.00000000000E+00  0.45593999997E+02  0.45594000000E+02  0.51100000000E-03 0.  1.
         11   -1    0    0    0    0 -0.00000000000E+00 -0.00000000000E+00 -0.45593999997E+02  0.45594000000E+02  0.51100000000E-03 0. -1.
    9900012    2    1    2    0    0  0.11569363862E+01  0.21025052639E+00  0.10153502070E+00  0.90007738823E+02  0.90000000175E+02 0.  0.
         12    1    1    2    0    0 -0.11569363862E+01 -0.21025052639E+00 -0.10153502070E+00  0.11802611770E+01  0.00000000000E+00 0. -1.
         11    1    3    3    0    0 -0.39630133258E+02  0.66150427790E+01  0.42913216089E+01  0.40406951066E+02  0.51100000000E-03 0. -1.
        -11    1    3    3    0    0  0.37677079269E+01  0.27476973579E+01  0.82604735841E+01  0.94858256303E+01  0.51100000000E-03 0.  1.
        -12    1    3    3    0    0  0.37019361718E+02 -0.91524896105E+01 -0.12450260172E+02  0.40114962127E+02  0.00000000000E+00 0.  1.
</event>
<event>
 7    1  0.2084210E-015  0.9000782E+02  0.7816164E-02  0.1186339E+00
        -11   -1    0    0    0    0  0.00000000000E+00  0.00000000000E+00  0.45593999997E+02  0.45594000000E+02  0.51100000000E-03 0.  1.
         11   -1    0    0    0    0 -0.00000000000E+00 -0.00000000000E+00 -0.45593999997E+02  0.45594000000E+02  0.51100000000E-03 0. -1.
    9900012    2    1    2    0    0  0.61748655111E+00 -0.86934204338E+00  0.50573873927E+00  0.90007823360E+02  0.90000085828E+02 0.  0.
         12    1    1    2    0    0 -0.61748655111E+00  0.86934204338E+00 -0.50573873927E+00  0.11801766400E+01  0.00000000000E+00 0. -1.
         11    1    3    3    0    0  0.21787171198E+02  0.30488661697E+02  0.83571271343E+01  0.38393761148E+02  0.51100000000E-03 0. -1.
        -11    1    3    3    0    0 -0.54850024563E+01 -0.41169066167E+00  0.10876302949E+02  0.12188055926E+02  0.51100000000E-03 0.  1.
        -12    1    3    3    0    0 -0.15684682191E+02 -0.30946313079E+02 -0.18727691344E+02  0.39426006286E+02  0.00000000000E+00 0.  1.
</event>
<event>
 7    1  0.2084210E-015  0.9000773E+02  0.7816164E-02  0.1186339E+00
        -11   -1    0    0    0    0  0.00000000000E+00  0.00000000000E+00  0.45593999997E+02  0.45594000000E+02  0.51100000000E-03 0. -1.
         11   -1    0    0    0    0 -0.00000000000E+00 -0.00000000000E+00 -0.45593999997E+02  0.45594000000E+02  0.51100000000E-03 0.  1.
    9900012    2    1    2    0    0  0.67721113070E+00 -0.37301517142E+00 -0.89179234248E+00  0.90007725110E+02  0.89999986282E+02 0.  0.
         12    1    1    2    0    0 -0.67721113070E+00  0.37301517142E+00  0.89179234248E+00  0.11802748899E+01  0.00000000000E+00 0. -1.
         11    1    3    3    0    0 -0.25409043543E+01  0.78590599235E+01 -0.50020984376E+01  0.96561900799E+01  0.51100000000E-03 0. -1.
        -11    1    3    3    0    0  0.45736230873E+01  0.95310131482E+00 -0.37463447139E+02  0.37753626343E+02  0.51100000000E-03 0.  1.
         12    1    3    3    0    0 -0.13555076023E+01 -0.91851764097E+01  0.41573753234E+02  0.42597908687E+02  0.00000000000E+00 0. -1.
</event>
<event>
 7    1  0.2084210E-015  0.9000766E+02  0.7816164E-02  0.1186339E+00
        -11   -1    0    0    0    0  0.00000000000E+00  0.00000000000E+00  0.45593999997E+02  0.45594000000E+02  0.51100000000E-03 0. -1.
         11   -1    0    0    0    0 -0.00000000000E+00 -0.00000000000E+00 -0.45593999997E+02  0.45594000000E+02  0.51100000000E-03 0.  1.
    9900012    2    1    2    0    0 -0.52812669724E+00 -0.97083652709E+00 -0.41443365128E+00  0.90007662497E+02  0.89999922842E+02 0.  0.
         12    1    1    2    0    0  0.52812669724E+00  0.97083652709E+00  0.41443365128E+00  0.11803375034E+01  0.00000000000E+00 0. -1.
         11    1    3    3    0    0 -0.16212218859E+01  0.29625742160E+01 -0.96755750683E+01  0.10248022226E+02  0.51100000000E-03 0. -1.
        -11    1    3    3    0    0 -0.26635702369E+02 -0.28839524023E+02 -0.55586984100E+01  0.39649437762E+02  0.51100000000E-03 0.  1.
         12    1    3    3    0    0  0.27728797558E+02  0.24906113280E+02  0.14819839827E+02  0.40110202508E+02  0.00000000000E+00 0. -1.
</event>
<event>
 7    1  0.2084210E-015  0.9000775E+02  0.7816164E-02  0.1186339E+00
        -11   -1    0    0    0    0  0.00000000000E+00  0.00000000000E+00  0.45593999997E+02  0.45594000000E+02  0.51100000000E-03 0.  1.
         11   -1    0    0    0    0 -0.00000000000E+00 -0.00000000000E+00 -0.45593999997E+02  0.45594000000E+02  0.51100000000E-03 0. -1.
    9900012    2    1    2    0    0 -0.44731698516E-01 -0.11556945355E+01  0.23529006857E+00  0.90007749094E+02  0.90000010582E+02 0.  0.
         12    1    1    2    0    0  0.44731698516E-01  0.11556945355E+01 -0.23529006857E+00  0.11802509058E+01  0.00000000000E+00 0. -1.
         11    1    3    3    0    0 -0.24745070983E+01  0.89077611014E+01 -0.53071618890E+01  0.10660082589E+02  0.51100000000E-03 0. -1.
        -11    1    3    3    0    0 -0.20038897209E+02  0.12320487226E+02  0.30833851372E+02  0.38782447029E+02  0.51100000000E-03 0.  1.
         12    1    3    3    0    0  0.22468672608E+02 -0.22383942863E+02 -0.25291399415E+02  0.40565219477E+02  0.00000000000E+00 0. -1.
</event>
<event>
 7    1  0.2235256E-015  0.9000776E+02  0.7816164E-02  0.1186339E+00
        -11   -1    0    0    0    0  0.00000000000E+00  0.00000000000E+00  0.45593999997E+02  0.45594000000E+02  0.51100000000E-03 0.  1.
         11   -1    0    0    0    0 -0.00000000000E+00 -0.00000000000E+00 -0.45593999997E+02  0.45594000000E+02  0.51100000000E-03 0. -1.
    9900012    2    1    2    0    0 -0.51250494008E+00  0.85300247680E+00  0.63458731669E+00  0.90007756126E+02  0.90000017707E+02 0.  0.
         12    1    1    2    0    0  0.51250494008E+00 -0.85300247680E+00 -0.63458731669E+00  0.11802438738E+01  0.00000000000E+00 0. -1.
         11    1    3    3    0    0  0.14655594502E+02  0.33085146715E+01 -0.36358039438E+02  0.39340052765E+02  0.51100000000E-03 0. -1.
        -11    1    3    3    0    0  0.63190233014E+01  0.61644031948E+01  0.25891372266E+01  0.91996496711E+01  0.51100000000E-03 0.  1.
        -12    1    3    3    0    0 -0.21487122743E+02 -0.86199153895E+01  0.34403489528E+02  0.41468053690E+02  0.00000000000E+00 0.  1.
</event>
<event>
 7    1  0.2084210E-015  0.9000785E+02  0.7816164E-02  0.1186339E+00
        -11   -1    0    0    0    0  0.00000000000E+00  0.00000000000E+00  0.45593999997E+02  0.45594000000E+02  0.51100000000E-03 0. -1.
         11   -1    0    0    0    0 -0.00000000000E+00 -0.00000000000E+00 -0.45593999997E+02  0.45594000000E+02  0.51100000000E-03 0.  1.
    9900012    2    1    2    0    0  0.44263264401E+00  0.64564354185E+00 -0.88316039098E+00  0.90007851062E+02  0.90000113896E+02 0.  0.
         12    1    1    2    0    0 -0.44263264401E+00 -0.64564354185E+00  0.88316039098E+00  0.11801489384E+01  0.00000000000E+00 0. -1.
         11    1    3    3    0    0 -0.75912537230E+01  0.87202477992E+00 -0.55162094990E+01  0.94242308865E+01  0.51100000000E-03 0. -1.
        -11    1    3    3    0    0 -0.30719780618E+02  0.19934867772E+02  0.45212285612E+01  0.36899124410E+02  0.51100000000E-03 0.  1.
         12    1    3    3    0    0  0.38753666985E+02 -0.20161249010E+02  0.11182054681E+00  0.43684495765E+02  0.00000000000E+00 0. -1.
</event>
<event>
 7    1  0.2084210E-015  0.9000765E+02  0.7816164E-02  0.1186339E+00
        -11   -1    0    0    0    0  0.00000000000E+00  0.00000000000E+00  0.45593999997E+02  0.45594000000E+02  0.51100000000E-03 0.  1.
         11   -1    0    0    0    0 -0.00000000000E+00 -0.00000000000E+00 -0.45593999997E+02  0.45594000000E+02  0.51100000000E-03 0. -1.
    9900012    2    1    2    0    0 -0.71366533391E+00 -0.39730749203E+00  0.85209128095E+00  0.90007647933E+02  0.89999908085E+02 0.  0.
         12    1    1    2    0    0  0.71366533391E+00  0.39730749203E+00 -0.85209128095E+00  0.11803520674E+01  0.00000000000E+00 0. -1.
         11    1    3    3    0    0  0.55758320858E+01 -0.34407970308E+02  0.38267727396E+01  0.35066258912E+02  0.51100000000E-03 0. -1.
        -11    1    3    3    0    0  0.91116594059E+01  0.17246061052E+02  0.16060791515E+02  0.25266538807E+02  0.51100000000E-03 0.  1.
        -12    1    3    3    0    0 -0.15401156826E+02  0.16764601764E+02 -0.19035472974E+02  0.29674850214E+02  0.00000000000E+00 0.  1.
</event>
<event>
 7    1  0.2084210E-015  0.9000789E+02  0.7816164E-02  0.1186339E+00
        -11   -1    0    0    0    0  0.00000000000E+00  0.00000000000E+00  0.45593999997E+02  0.45594000000E+02  0.51100000000E-03 0.  1.
         11   -1    0    0    0    0 -0.00000000000E+00 -0.00000000000E+00 -0.45593999997E+02  0.45594000000E+02  0.51100000000E-03 0. -1.
    9900012    2    1    2    0    0  0.82703705275E+00 -0.74847188788E+00 -0.38529242282E+00  0.90007893774E+02  0.90000157172E+02 0.  0.
         12    1    1    2    0    0 -0.82703705275E+00  0.74847188788E+00  0.38529242282E+00  0.11801062260E+01  0.00000000000E+00 0. -1.
         11    1    3    3    0    0 -0.91408946627E+01  0.31264631617E+01  0.62315623115E+00  0.96808600385E+01  0.51100000000E-03 0. -1.
        -11    1    3    3    0    0  0.78276085652E+01  0.37642901433E+02 -0.39477850341E+01  0.38650284489E+02  0.51100000000E-03 0.  1.
         12    1    3    3    0    0  0.21403231503E+01 -0.41517836483E+02  0.29393363801E+01  0.41676749246E+02  0.00000000000E+00 0. -1.
</event>
<event>
 7    1  0.2084210E-015  0.9000776E+02  0.7816164E-02  0.1186339E+00
        -11   -1    0    0    0    0  0.00000000000E+00  0.00000000000E+00  0.45593999997E+02  0.45594000000E+02  0.51100000000E-03 0. -1.
         11   -1    0    0    0    0 -0.00000000000E+00 -0.00000000000E+00 -0.45593999997E+02  0.45594000000E+02  0.51100000000E-03 0.  1.
    9900012    2    1    2    0    0 -0.11197953543E+01 -0.14783697094E+00 -0.34229568235E+00  0.90007761151E+02  0.90000022799E+02 0.  0.
         12    1    1    2    0    0  0.11197953543E+01  0.14783697094E+00  0.34229568235E+00  0.11802388485E+01  0.00000000000E+00 0. -1.
         11    1    3    3    0    0  0.82596460230E+01 -0.35378654555E+01  0.14761965778E+00  0.89866587913E+01  0.51100000000E-03 0. -1.
        -11    1    3    3    0    0 -0.32912737817E+02  0.11771263611E+02 -0.27318023577E+02  0.44363108210E+02  0.51100000000E-03 0.  1.
         12    1    3    3    0    0  0.23533296440E+02 -0.83812351263E+01  0.26828108236E+02  0.36657994150E+02  0.00000000000E+00 0. -1.
</event>
<event>
 7    1  0.3394683E-015  0.9000786E+02  0.7816164E-02  0.1186339E+00
        -11   -1    0    0    0    0  0.00000000000E+00  0.00000000000E+00  0.45593999997E+02  0.45594000000E+02  0.51100000000E-03 0. -1.
         11   -1    0    0    0    0 -0.00000000000E+00 -0.00000000000E+00 -0.45593999997E+02  0.45594000000E+02  0.51100000000E-03 0.  1.
    9900012    2    1    2    0    0 -0.38761100606E+00 -0.80056481121E+00 -0.77562115388E+00  0.90007858278E+02  0.90000121207E+02 0.  0.
         12    1    1    2    0    0  0.38761100606E+00  0.80056481121E+00  0.77562115388E+00  0.11801417217E+01  0.00000000000E+00 0. -1.
         11    1    3    3    0    0  0.55130154650E+01  0.18477653668E+02  0.36174405851E+02  0.40992739156E+02  0.51100000000E-03 0. -1.
        -11    1    3    3    0    0 -0.84538772896E+01 -0.45921450424E+01 -0.49852631098E+00  0.96335022739E+01  0.51100000000E-03 0.  1.
        -12    1    3    3    0    0  0.25532508185E+01 -0.14686073437E+02 -0.36451500694E+02  0.39381616848E+02  0.00000000000E+00 0.  1.
</event>
<event>
 7    1  0.2084210E-015  0.9000771E+02  0.7816164E-02  0.1186339E+00
        -11   -1    0    0    0    0  0.00000000000E+00  0.00000000000E+00  0.45593999997E+02  0.45594000000E+02  0.51100000000E-03 0.  1.
         11   -1    0    0    0    0 -0.00000000000E+00 -0.00000000000E+00 -0.45593999997E+02  0.45594000000E+02  0.51100000000E-03 0. -1.
    9900012    2    1    2    0    0 -0.10675068213E+01 -0.50242468326E+00 -0.32997468694E-01  0.90007707575E+02  0.89999968515E+02 0.  0.
         12    1    1    2    0    0  0.10675068213E+01  0.50242468326E+00  0.32997468694E-01  0.11802924252E+01  0.00000000000E+00 0. -1.
         11    1    3    3    0    0  0.86940799824E+01 -0.27434847870E+02 -0.27868825836E+02  0.40061569591E+02  0.51100000000E-03 0. -1.
        -11    1    3    3    0    0 -0.32465232985E+01 -0.65740955407E+01  0.51949500863E+01  0.89858862872E+01  0.51100000000E-03 0.  1.
        -12    1    3    3    0    0 -0.65150635052E+01  0.33506518727E+02  0.22640878281E+02  0.40960251696E+02  0.00000000000E+00 0.  1.
</event>
<event>
 7    1  0.2084210E-015  0.9000784E+02  0.7816164E-02  0.1186339E+00
        -11   -1    0    0    0    0  0.00000000000E+00  0.00000000000E+00  0.45593999997E+02  0.45594000000E+02  0.51100000000E-03 0.  1.
         11   -1    0    0    0    0 -0.00000000000E+00 -0.00000000000E+00 -0.45593999997E+02  0.45594000000E+02  0.51100000000E-03 0. -1.
    9900012    2    1    2    0    0  0.25745655997E+00  0.90792175937E+00  0.70863729386E+00  0.90007842123E+02  0.90000104839E+02 0.  0.
         12    1    1    2    0    0 -0.25745655997E+00 -0.90792175937E+00 -0.70863729386E+00  0.11801578774E+01  0.00000000000E+00 0. -1.
         11    1    3    3    0    0  0.20002269478E+02 -0.37108213867E+02  0.46999482019E+01  0.42416975776E+02  0.51100000000E-03 0. -1.
        -11    1    3    3    0    0  0.41883328535E+01  0.74465853189E+01 -0.16101733296E+01  0.86940452849E+01  0.51100000000E-03 0.  1.
        -12    1    3    3    0    0 -0.23933145772E+02  0.30569550307E+02 -0.23811375784E+01  0.38896821061E+02  0.00000000000E+00 0.  1.
</event>
<event>
 7    1  0.2084210E-015  0.9000781E+02  0.7816164E-02  0.1186339E+00
        -11   -1    0    0    0    0  0.00000000000E+00  0.00000000000E+00  0.45593999997E+02  0.45594000000E+02  0.51100000000E-03 0.  1.
         11   -1    0    0    0    0 -0.00000000000E+00 -0.00000000000E+00 -0.45593999997E+02  0.45594000000E+02  0.51100000000E-03 0. -1.
    9900012    2    1    2    0    0  0.85819514459E+00 -0.80579138747E+00 -0.83989396648E-01  0.90007808115E+02  0.90000070382E+02 0.  0.
         12    1    1    2    0    0 -0.85819514459E+00  0.80579138747E+00  0.83989396648E-01  0.11801918849E+01  0.00000000000E+00 0. -1.
         11    1    3    3    0    0 -0.18609332494E+02 -0.33955296339E+02 -0.98999131596E+01  0.39965956590E+02  0.51100000000E-03 0. -1.
        -11    1    3    3    0    0  0.24806962482E+01 -0.32892257469E+01  0.89231388574E+01  0.98282891298E+01  0.51100000000E-03 0.  1.
        -12    1    3    3    0    0  0.16986831390E+02  0.36438730699E+02  0.89278490553E+00  0.40213562395E+02  0.00000000000E+00 0.  1.
</event>
<event>
 7    1  0.2084210E-015  0.9000767E+02  0.7816164E-02  0.1186339E+00
        -11   -1    0    0    0    0  0.00000000000E+00  0.00000000000E+00  0.45593999997E+02  0.45594000000E+02  0.51100000000E-03 0.  1.
         11   -1    0    0    0    0 -0.00000000000E+00 -0.00000000000E+00 -0.45593999997E+02  0.45594000000E+02  0.51100000000E-03 0. -1.
    9900012    2    1    2    0    0  0.72677273182E+00  0.90834661298E+00  0.19970091929E+00  0.90007672660E+02  0.89999933139E+02 0.  0.
         12    1    1    2    0    0 -0.72677273182E+00 -0.90834661298E+00 -0.19970091929E+00  0.11803273403E+01  0.00000000000E+00 0. -1.
         11    1    3    3    0    0  0.28202178557E+02 -0.26791347148E+02  0.18918641237E+02  0.43255683371E+02  0.51100000000E-03 0. -1.
        -11    1    3    3    0    0  0.12634244377E+01  0.47889492018E+01 -0.61770169540E+01  0.79174373681E+01  0.51100000000E-03 0.  1.
        -12    1    3    3    0    0 -0.28738830263E+02  0.22910744560E+02 -0.12541923364E+02  0.38834551920E+02  0.00000000000E+00 0.  1.
</event>
<event>
 7    1  0.2084210E-015  0.9000777E+02  0.7816164E-02  0.1186339E+00
        -11   -1    0    0    0    0  0.00000000000E+00  0.00000000000E+00  0.45593999997E+02  0.45594000000E+02  0.51100000000E-03 0. -1.
         11   -1    0    0    0    0 -0.00000000000E+00 -0.00000000000E+00 -0.45593999997E+02  0.45594000000E+02  0.51100000000E-03 0.  1.
    9900012    2    1    2    0    0  0.10164867932E+01  0.47256855762E+00 -0.36930446627E+00  0.90007766027E+02  0.90000027738E+02 0.  0.
         12    1    1    2    0    0 -0.10164867932E+01 -0.47256855762E+00  0.36930446627E+00  0.11802339731E+01  0.00000000000E+00 0. -1.
         11    1    3    3    0    0 -0.19060075049E+02  0.29031326827E+02 -0.11008728914E+02  0.36432080791E+02  0.51100000000E-03 0. -1.
        -11    1    3    3    0    0 -0.67568574423E+01  0.11398068317E+00 -0.76908001266E+01  0.10237993990E+02  0.51100000000E-03 0.  1.
        -12    1    3    3    0    0  0.26833419285E+02 -0.28672738952E+02  0.18330224574E+02  0.43337691246E+02  0.00000000000E+00 0.  1.
</event>
<event>
 7    1  0.2084210E-015  0.9000777E+02  0.7816164E-02  0.1186339E+00
        -11   -1    0    0    0    0  0.00000000000E+00  0.00000000000E+00  0.45593999997E+02  0.45594000000E+02  0.51100000000E-03 0.  1.
         11   -1    0    0    0    0 -0.00000000000E+00 -0.00000000000E+00 -0.45593999997E+02  0.45594000000E+02  0.51100000000E-03 0. -1.
    9900012    2    1    2    0    0  0.64320751934E-01  0.75718112776E+00  0.90303884431E+00  0.90007771389E+02  0.90000033172E+02 0.  0.
         12    1    1    2    0    0 -0.64320751934E-01 -0.75718112776E+00 -0.90303884431E+00  0.11802286108E+01  0.00000000000E+00 0. -1.
         11    1    3    3    0    0 -0.48311276375E+01  0.58120731734E+00 -0.37335965404E+00  0.48802657599E+01  0.51100000000E-03 0. -1.
        -11    1    3    3    0    0 -0.14072959096E+02  0.17744970833E+02  0.35576952220E+02  0.42174064271E+02  0.51100000000E-03 0.  1.
         12    1    3    3    0    0  0.18968407486E+02 -0.17568997022E+02 -0.34300553722E+02  0.42953441358E+02  0.00000000000E+00 0. -1.
</event>
<event>
 7    1  0.2084210E-015  0.9000793E+02  0.7816164E-02  0.1186339E+00
        -11   -1    0    0    0    0  0.00000000000E+00  0.00000000000E+00  0.45593999997E+02  0.45594000000E+02  0.51100000000E-03 0. -1.
         11   -1    0    0    0    0 -0.00000000000E+00 -0.00000000000E+00 -0.45593999997E+02  0.45594000000E+02  0.51100000000E-03 0.  1.
    9900012    2    1    2    0    0 -0.10918058292E+01 -0.37713503642E+00 -0.24142715428E+00  0.90007933106E+02  0.90000197022E+02 0.  0.
         12    1    1    2    0    0  0.10918058292E+01  0.37713503642E+00  0.24142715428E+00  0.11800668944E+01  0.00000000000E+00 0. -1.
         11    1    3    3    0    0  0.17592196799E+02  0.11189758615E+02  0.16771142788E+02  0.26757565599E+02  0.51100000000E-03 0. -1.
        -11    1    3    3    0    0  0.93875628324E+01 -0.10750408721E+02 -0.29304051956E+02  0.32594862860E+02  0.51100000000E-03 0.  1.
        -12    1    3    3    0    0 -0.28071565461E+02 -0.81648493124E+00  0.12291482014E+02  0.30655504647E+02  0.00000000000E+00 0.  1.
</event>
<event>
 7    1  0.2084210E-015  0.9000776E+02  0.7816164E-02  0.1186339E+00
        -11   -1    0    0    0    0  0.00000000000E+00  0.00000000000E+00  0.45593999997E+02  0.45594000000E+02  0.51100000000E-03 0.  1.
         11   -1    0    0    0    0 -0.00000000000E+00 -0.00000000000E+00 -0.45593999997E+02  0.45594000000E+02  0.51100000000E-03 0. -1.
    9900012    2    1    2    0    0  0.11187737048E+01  0.35608706193E+00  0.12046130729E+00  0.90007761242E+02  0.90000022891E+02 0.  0.
         12    1    1    2    0    0 -0.11187737048E+01 -0.35608706193E+00 -0.12046130729E+00  0.11802387575E+01  0.00000000000E+00 0. -1.
         11    1    3    3    0    0 -0.54843582507E+01  0.19022967745E+01  0.97190896476E+01  0.11320672342E+02  0.51100000000E-03 0.  1.
        -11    1    3    3    0    0  0.30347592720E+02 -0.13748052916E+01 -0.33343131531E+02  0.45106883001E+02  0.51100000000E-03 0. -1.
         12    1    3    3    0    0 -0.23744460765E+02 -0.17140442096E+00  0.23744503191E+02  0.33580205899E+02  0.00000000000E+00 0. -1.
</event>
<event>
 7    1  0.2084210E-015  0.9000773E+02  0.7816164E-02  0.1186339E+00
        -11   -1    0    0    0    0  0.00000000000E+00  0.00000000000E+00  0.45593999997E+02  0.45594000000E+02  0.51100000000E-03 0.  1.
         11   -1    0    0    0    0 -0.00000000000E+00 -0.00000000000E+00 -0.45593999997E+02  0.45594000000E+02  0.51100000000E-03 0. -1.
    9900012    2    1    2    0    0 -0.74252900818E+00  0.83279315641E+00  0.38488662959E+00  0.90007732451E+02  0.89999993719E+02 0.  0.
         12    1    1    2    0    0  0.74252900818E+00 -0.83279315641E+00 -0.38488662959E+00  0.11802675489E+01  0.00000000000E+00 0. -1.
         11    1    3    3    0    0  0.32088526040E+02  0.16865780865E+02 -0.11595459552E+02  0.38060251576E+02  0.51100000000E-03 0. -1.
        -11    1    3    3    0    0  0.38316033858E+00  0.87425097800E+01  0.45026940252E+01  0.98413689517E+01  0.51100000000E-03 0.  1.
        -12    1    3    3    0    0 -0.33214215386E+02 -0.24775497488E+02  0.74776521564E+01  0.42106111923E+02  0.00000000000E+00 0.  1.
</event>
<event>
 7    1  0.2084210E-015  0.9000768E+02  0.7816164E-02  0.1186339E+00
        -11   -1    0    0    0    0  0.00000000000E+00  0.00000000000E+00  0.45593999997E+02  0.45594000000E+02  0.51100000000E-03 0. -1.
         11   -1    0    0    0    0 -0.00000000000E+00 -0.00000000000E+00 -0.45593999997E+02  0.45594000000E+02  0.51100000000E-03 0.  1.
    9900012    2    1    2    0    0 -0.38563734072E+00 -0.50166842633E+00 -0.99637333851E+00  0.90007683433E+02  0.89999944054E+02 0.  0.
         12    1    1    2    0    0  0.38563734072E+00  0.50166842633E+00  0.99637333851E+00  0.11803165670E+01  0.00000000000E+00 0. -1.
         11    1    3    3    0    0 -0.25598028962E+02 -0.15988866562E+02  0.28525943592E+02  0.41528693680E+02  0.51100000000E-03 0. -1.
        -11    1    3    3    0    0  0.99495775166E+01  0.72239837803E+01  0.20359057888E+01  0.12462942953E+02  0.51100000000E-03 0.  1.
        -12    1    3    3    0    0  0.15262814105E+02  0.82632143554E+01 -0.31558222719E+02  0.36016046800E+02  0.00000000000E+00 0.  1.
</event>
<event>
 7    1  0.2084210E-015  0.9000743E+02  0.7816164E-02  0.1186340E+00
        -11   -1    0    0    0    0  0.00000000000E+00  0.00000000000E+00  0.45593999997E+02  0.45594000000E+02  0.51100000000E-03 0.  1.
         11   -1    0    0    0    0 -0.00000000000E+00 -0.00000000000E+00 -0.45593999997E+02  0.45594000000E+02  0.51100000000E-03 0. -1.
    9900012    2    1    2    0    0 -0.87133504029E+00 -0.49354361533E+00  0.62524234195E+00  0.90007433171E+02  0.89999690488E+02 0.  0.
         12    1    1    2    0    0  0.87133504029E+00  0.49354361533E+00 -0.62524234195E+00  0.11805668295E+01  0.00000000000E+00 0. -1.
         11    1    3    3    0    0  0.16803410310E+02  0.18242053303E+02 -0.24704398158E+02  0.35006205098E+02  0.51100000000E-03 0. -1.
        -11    1    3    3    0    0  0.34764035213E+01  0.68410602711E+00 -0.93372692743E+01  0.99868904200E+01  0.51100000000E-03 0.  1.
        -12    1    3    3    0    0 -0.21151148871E+02 -0.19419702945E+02  0.34666909774E+02  0.45014337653E+02  0.00000000000E+00 0.  1.
</event>
<event>
 7    1  0.2236881E-015  0.9000771E+02  0.7816164E-02  0.1186339E+00
        -11   -1    0    0    0    0  0.00000000000E+00  0.00000000000E+00  0.45593999997E+02  0.45594000000E+02  0.51100000000E-03 0.  1.
         11   -1    0    0    0    0 -0.00000000000E+00 -0.00000000000E+00 -0.45593999997E+02  0.45594000000E+02  0.51100000000E-03 0. -1.
    9900012    2    1    2    0    0  0.95582794300E+00 -0.53914191044E+00  0.43452110840E+00  0.90007707812E+02  0.89999968755E+02 0.  0.
         12    1    1    2    0    0 -0.95582794300E+00  0.53914191044E+00 -0.43452110840E+00  0.11802921883E+01  0.00000000000E+00 0. -1.
         11    1    3    3    0    0 -0.48573556227E+01 -0.29707531669E+01 -0.37722020400E+02  0.38149313248E+02  0.51100000000E-03 0. -1.
        -11    1    3    3    0    0  0.85133712411E+01  0.98246983573E+00 -0.40935153457E+01  0.94973472619E+01  0.51100000000E-03 0.  1.
        -12    1    3    3    0    0 -0.27001876754E+01  0.14491414208E+01  0.42250056854E+02  0.42361047302E+02  0.00000000000E+00 0.  1.
</event>
<event>
 7    1  0.2084210E-015  0.9000775E+02  0.7816164E-02  0.1186339E+00
        -11   -1    0    0    0    0  0.00000000000E+00  0.00000000000E+00  0.45593999997E+02  0.45594000000E+02  0.51100000000E-03 0.  1.
         11   -1    0    0    0    0 -0.00000000000E+00 -0.00000000000E+00 -0.45593999997E+02  0.45594000000E+02  0.51100000000E-03 0. -1.
    9900012    2    1    2    0    0  0.54307946135E+00  0.96043107304E+00  0.41907885444E+00  0.90007749927E+02  0.90000011427E+02 0.  0.
         12    1    1    2    0    0 -0.54307946135E+00 -0.96043107304E+00 -0.41907885444E+00  0.11802500725E+01  0.00000000000E+00 0. -1.
         11    1    3    3    0    0 -0.20533782624E+01 -0.46143368169E+01 -0.79915667863E+01  0.94537615006E+01  0.51100000000E-03 0. -1.
        -11    1    3    3    0    0 -0.82352192272E+01 -0.35161126443E+02  0.12476075505E+02  0.38207016485E+02  0.51100000000E-03 0.  1.
         12    1    3    3    0    0  0.10831676951E+02  0.40735894333E+02 -0.40654298643E+01  0.42346971942E+02  0.00000000000E+00 0. -1.
</event>
<event>
 7    1  0.2084210E-015  0.9000766E+02  0.7816164E-02  0.1186339E+00
        -11   -1    0    0    0    0  0.00000000000E+00  0.00000000000E+00  0.45593999997E+02  0.45594000000E+02  0.51100000000E-03 0.  1.
         11   -1    0    0    0    0 -0.00000000000E+00 -0.00000000000E+00 -0.45593999997E+02  0.45594000000E+02  0.51100000000E-03 0. -1.
    9900012    2    1    2    0    0  0.70212659451E+00 -0.20211431012E+00  0.92702128524E+00  0.90007660891E+02  0.89999921215E+02 0.  0.
         12    1    1    2    0    0 -0.70212659451E+00  0.20211431012E+00 -0.92702128524E+00  0.11803391091E+01  0.00000000000E+00 0. -1.
         11    1    3    3    0    0 -0.92230167324E+01 -0.26619675405E+02  0.29172123884E+02  0.40554703407E+02  0.51100000000E-03 0. -1.
        -11    1    3    3    0    0 -0.85245576634E+01  0.80471638922E+00 -0.31369608626E+01  0.91190007972E+01  0.51100000000E-03 0.  1.
        -12    1    3    3    0    0  0.18449700990E+02  0.25612844706E+02 -0.25108141736E+02  0.40333956686E+02  0.00000000000E+00 0.  1.
</event>
<event>
 7    1  0.2084210E-015  0.9000773E+02  0.7816164E-02  0.1186339E+00
        -11   -1    0    0    0    0  0.00000000000E+00  0.00000000000E+00  0.45593999997E+02  0.45594000000E+02  0.51100000000E-03 0. -1.
         11   -1    0    0    0    0 -0.00000000000E+00 -0.00000000000E+00 -0.45593999997E+02  0.45594000000E+02  0.51100000000E-03 0.  1.
    9900012    2    1    2    0    0  0.41901044853E+00  0.95731030195E+00  0.54864751924E+00  0.90007734407E+02  0.89999995701E+02 0.  0.
         12    1    1    2    0    0 -0.41901044853E+00 -0.95731030195E+00 -0.54864751924E+00  0.11802655932E+01  0.00000000000E+00 0. -1.
         11    1    3    3    0    0  0.31960523826E+02  0.12964183380E+02  0.12901891453E+02  0.36823958739E+02  0.51100000000E-03 0. -1.
        -11    1    3    3    0    0  0.63540874549E+01  0.60745634661E+00  0.64187823518E+01  0.90523034494E+01  0.51100000000E-03 0.  1.
        -12    1    3    3    0    0 -0.37895600832E+02 -0.12614329425E+02 -0.18772026286E+02  0.44131472218E+02  0.00000000000E+00 0.  1.
</event>
<event>
 7    1  0.2084210E-015  0.9000778E+02  0.7816164E-02  0.1186339E+00
        -11   -1    0    0    0    0  0.00000000000E+00  0.00000000000E+00  0.45593999997E+02  0.45594000000E+02  0.51100000000E-03 0.  1.
         11   -1    0    0    0    0 -0.00000000000E+00 -0.00000000000E+00 -0.45593999997E+02  0.45594000000E+02  0.51100000000E-03 0. -1.
    9900012    2    1    2    0    0  0.78784075054E+00  0.14673030914E+00  0.86642778510E+00  0.90007779708E+02  0.90000041600E+02 0.  0.
         12    1    1    2    0    0 -0.78784075054E+00 -0.14673030914E+00 -0.86642778510E+00  0.11802202924E+01  0.00000000000E+00 0. -1.
         11    1    3    3    0    0  0.13221197945E+02 -0.33516734319E+02 -0.19469612919E+02  0.40954088709E+02  0.51100000000E-03 0. -1.
        -11    1    3    3    0    0  0.52321036175E+01 -0.96089931842E+00  0.48934161446E+01  0.72279843380E+01  0.51100000000E-03 0.  1.
        -12    1    3    3    0    0 -0.17665460812E+02  0.34624363946E+02  0.15442624559E+02  0.41825706661E+02  0.00000000000E+00 0.  1.
</event>
<event>
 7    1  0.2084210E-015  0.9000780E+02  0.7816164E-02  0.1186339E+00
        -11   -1    0    0    0    0  0.00000000000E+00  0.00000000000E+00  0.45593999997E+02  0.45594000000E+02  0.51100000000E-03 0.  1.
         11   -1    0    0    0    0 -0.00000000000E+00 -0.00000000000E+00 -0.45593999997E+02  0.45594000000E+02  0.51100000000E-03 0. -1.
    9900012    2    1    2    0    0  0.54477123394E+00 -0.52349341528E+00  0.90666858195E+00  0.90007801300E+02  0.90000063477E+02 0.  0.
         12    1    1    2    0    0 -0.54477123394E+00  0.52349341528E+00 -0.90666858195E+00  0.11801986997E+01  0.00000000000E+00 0. -1.
         11    1    3    3    0    0 -0.38055483607E+02 -0.52073311892E+01 -0.78783017966E+01  0.39209740756E+02  0.51100000000E-03 0. -1.
        -11    1    3    3    0    0 -0.55387652241E+01  0.11431436095E+01  0.65489490697E-02  0.56555053416E+01  0.51100000000E-03 0.  1.
        -12    1    3    3    0    0  0.44139020065E+02  0.35406941644E+01  0.87784214294E+01  0.45142555203E+02  0.00000000000E+00 0.  1.
</event>
<event>
 7    1  0.2084210E-015  0.9000761E+02  0.7816164E-02  0.1186339E+00
        -11   -1    0    0    0    0  0.00000000000E+00  0.00000000000E+00  0.45593999997E+02  0.45594000000E+02  0.51100000000E-03 0.  1.
         11   -1    0    0    0    0 -0.00000000000E+00 -0.00000000000E+00 -0.45593999997E+02  0.45594000000E+02  0.51100000000E-03 0. -1.
    9900012    2    1    2    0    0  0.46146609688E+00 -0.47180859330E+00  0.97865104862E+00  0.90007613545E+02  0.89999873244E+02 0.  0.
         12    1    1    2    0    0 -0.46146609688E+00  0.47180859330E+00 -0.97865104862E+00  0.11803864546E+01  0.00000000000E+00 0. -1.
         11    1    3    3    0    0 -0.28275599946E+02  0.58995560936E+01 -0.18717390366E+02  0.34418817771E+02  0.51100000000E-03 0. -1.
        -11    1    3    3    0    0 -0.76216800909E+01  0.32271147515E+01 -0.58434298064E+01  0.10131631122E+02  0.51100000000E-03 0.  1.
        -12    1    3    3    0    0  0.36358746134E+02 -0.95984794384E+01  0.25539471221E+02  0.45457164652E+02  0.00000000000E+00 0.  1.
</event>
<event>
 7    1  0.2084210E-015  0.9000772E+02  0.7816164E-02  0.1186339E+00
        -11   -1    0    0    0    0  0.00000000000E+00  0.00000000000E+00  0.45593999997E+02  0.45594000000E+02  0.51100000000E-03 0. -1.
         11   -1    0    0    0    0 -0.00000000000E+00 -0.00000000000E+00 -0.45593999997E+02  0.45594000000E+02  0.51100000000E-03 0.  1.
    9900012    2    1    2    0    0 -0.98394843718E+00 -0.17769011266E+00 -0.62715978033E+00  0.90007721349E+02  0.89999982471E+02 0.  0.
         12    1    1    2    0    0  0.98394843718E+00  0.17769011266E+00  0.62715978033E+00  0.11802786507E+01  0.00000000000E+00 0. -1.
         11    1    3    3    0    0  0.52924592562E+01 -0.61856053773E+01  0.58344375680E+01  0.10015612855E+02  0.51100000000E-03 0. -1.
        -11    1    3    3    0    0 -0.31905261888E+02 -0.18935103685E+02 -0.19516170539E+02  0.41920935110E+02  0.51100000000E-03 0.  1.
         12    1    3    3    0    0  0.25628854195E+02  0.24943018950E+02  0.13054573190E+02  0.38071173384E+02  0.00000000000E+00 0. -1.
</event>
<event>
 7    1  0.2084210E-015  0.9000775E+02  0.7816164E-02  0.1186339E+00
        -11   -1    0    0    0    0  0.00000000000E+00  0.00000000000E+00  0.45593999997E+02  0.45594000000E+02  0.51100000000E-03 0.  1.
         11   -1    0    0    0    0 -0.00000000000E+00 -0.00000000000E+00 -0.45593999997E+02  0.45594000000E+02  0.51100000000E-03 0. -1.
    9900012    2    1    2    0    0  0.51125711226E+00  0.78720073013E+00  0.71549183886E+00  0.90007746893E+02  0.90000008352E+02 0.  0.
         12    1    1    2    0    0 -0.51125711226E+00 -0.78720073013E+00 -0.71549183886E+00  0.11802531067E+01  0.00000000000E+00 0. -1.
         11    1    3    3    0    0 -0.27783363906E+02 -0.11562587543E+02  0.61489196558E+01  0.30715109536E+02  0.51100000000E-03 0. -1.
        -11    1    3    3    0    0  0.15798130916E+02 -0.17837956292E+02  0.61826849599E+01  0.24617051381E+02  0.51100000000E-03 0.  1.
        -12    1    3    3    0    0  0.12496490102E+02  0.30187744565E+02 -0.11616112777E+02  0.34675585977E+02  0.00000000000E+00 0.  1.
</event>
<event>
 7    1  0.2084210E-015  0.9000787E+02  0.7816164E-02  0.1186339E+00
        -11   -1    0    0    0    0  0.00000000000E+00  0.00000000000E+00  0.45593999997E+02  0.45594000000E+02  0.51100000000E-03 0.  1.
         11   -1    0    0    0    0 -0.00000000000E+00 -0.00000000000E+00 -0.45593999997E+02  0.45594000000E+02  0.51100000000E-03 0. -1.
    9900012    2    1    2    0    0  0.48386391752E+00  0.57683041355E+00  0.90875754090E+00  0.90007873784E+02  0.90000136918E+02 0.  0.
         12    1    1    2    0    0 -0.48386391752E+00 -0.57683041355E+00 -0.90875754090E+00  0.11801262156E+01  0.00000000000E+00 0. -1.
         11    1    3    3    0    0  0.22028430317E+02 -0.25930951147E+02  0.48714449930E+01  0.34371455399E+02  0.51100000000E-03 0. -1.
        -11    1    3    3    0    0  0.51354648812E+01 -0.76774953441E+01  0.61651058047E+01  0.11105199870E+02  0.51100000000E-03 0.  1.
        -12    1    3    3    0    0 -0.26680031281E+02  0.34185276905E+02 -0.10127793257E+02  0.44531218516E+02  0.00000000000E+00 0.  1.
</event>
<event>
 7    1  0.2084210E-015  0.9000782E+02  0.7816164E-02  0.1186339E+00
        -11   -1    0    0    0    0  0.00000000000E+00  0.00000000000E+00  0.45593999997E+02  0.45594000000E+02  0.51100000000E-03 0. -1.
         11   -1    0    0    0    0 -0.00000000000E+00 -0.00000000000E+00 -0.45593999997E+02  0.45594000000E+02  0.51100000000E-03 0.  1.
    9900012    2    1    2    0    0 -0.58037674598E+00 -0.57760700831E+00 -0.84991977084E+00  0.90007817539E+02  0.90000079931E+02 0.  0.
         12    1    1    2    0    0  0.58037674598E+00  0.57760700831E+00  0.84991977084E+00  0.11801824606E+01  0.00000000000E+00 0. -1.
         11    1    3    3    0    0 -0.20868050401E+02  0.30229542619E+02  0.54664812352E+00  0.36736896969E+02  0.51100000000E-03 0. -1.
        -11    1    3    3    0    0 -0.10464043869E+02 -0.23732340187E+01  0.30448185897E+01  0.11153446746E+02  0.51100000000E-03 0.  1.
        -12    1    3    3    0    0  0.30751717524E+02 -0.28433915608E+02 -0.44413864840E+01  0.42117473825E+02  0.00000000000E+00 0.  1.
</event>
<event>
 7    1  0.2084210E-015  0.9000775E+02  0.7816164E-02  0.1186339E+00
        -11   -1    0    0    0    0  0.00000000000E+00  0.00000000000E+00  0.45593999997E+02  0.45594000000E+02  0.51100000000E-03 0. -1.
         11   -1    0    0    0    0 -0.00000000000E+00 -0.00000000000E+00 -0.45593999997E+02  0.45594000000E+02  0.51100000000E-03 0.  1.
    9900012    2    1    2    0    0 -0.47155397443E+00  0.12587284792E-01 -0.10818870621E+01  0.90007745279E+02  0.90000006717E+02 0.  0.
         12    1    1    2    0    0  0.47155397443E+00 -0.12587284792E-01  0.10818870621E+01  0.11802547207E+01  0.00000000000E+00 0. -1.
         11    1    3    3    0    0  0.34573948375E+02  0.27236357022E+01  0.26372307085E+01  0.34781188648E+02  0.51100000000E-03 0. -1.
        -11    1    3    3    0    0  0.99521707976E+01 -0.57779237060E+00 -0.18531939695E+01  0.10139717736E+02  0.51100000000E-03 0.  1.
        -12    1    3    3    0    0 -0.44997673147E+02 -0.21332560469E+01 -0.18659238011E+01  0.45086838896E+02  0.00000000000E+00 0.  1.
</event>
<event>
 7    1  0.2084210E-015  0.9000760E+02  0.7816164E-02  0.1186339E+00
        -11   -1    0    0    0    0  0.00000000000E+00  0.00000000000E+00  0.45593999997E+02  0.45594000000E+02  0.51100000000E-03 0. -1.
         11   -1    0    0    0    0 -0.00000000000E+00 -0.00000000000E+00 -0.45593999997E+02  0.45594000000E+02  0.51100000000E-03 0.  1.
    9900012    2    1    2    0    0 -0.60776437811E+00  0.94628100029E+00 -0.35847955098E+00  0.90007604787E+02  0.89999864370E+02 0.  0.
         12    1    1    2    0    0  0.60776437811E+00 -0.94628100029E+00  0.35847955098E+00  0.11803952132E+01  0.00000000000E+00 0. -1.
         11    1    3    3    0    0 -0.37197432160E+02  0.44081064493E+01  0.17732295090E+02  0.41442908334E+02  0.51100000000E-03 0. -1.
        -11    1    3    3    0    0  0.84523545016E+00 -0.22005524508E+01  0.53190879663E+01  0.58180367058E+01  0.51100000000E-03 0.  1.
        -12    1    3    3    0    0  0.35744432331E+02 -0.12612729983E+01 -0.23409862607E+02  0.42746659747E+02  0.00000000000E+00 0.  1.
</event>
<event>
 7    1  0.2084210E-015  0.9000725E+02  0.7816164E-02  0.1186340E+00
        -11   -1    0    0    0    0  0.00000000000E+00  0.00000000000E+00  0.45593999997E+02  0.45594000000E+02  0.51100000000E-03 0.  1.
         11   -1    0    0    0    0 -0.00000000000E+00 -0.00000000000E+00 -0.45593999997E+02  0.45594000000E+02  0.51100000000E-03 0. -1.
    9900012    2    1    2    0    0 -0.76650938844E+00 -0.21249115459E+00  0.87262890811E+00  0.90007250092E+02  0.89999504992E+02 0.  0.
         12    1    1    2    0    0  0.76650938844E+00  0.21249115459E+00 -0.87262890811E+00  0.11807499077E+01  0.00000000000E+00 0. -1.
         11    1    3    3    0    0  0.40957826770E+01  0.32365157452E+00  0.12174352852E+02  0.12848932007E+02  0.51100000000E-03 0. -1.
        -11    1    3    3    0    0 -0.34457426464E+02 -0.18691846519E+02  0.36195370155E+01  0.39367504535E+02  0.51100000000E-03 0.  1.
         12    1    3    3    0    0  0.29595134399E+02  0.18155703790E+02 -0.14921260960E+02  0.37790813551E+02  0.00000000000E+00 0. -1.
</event>
<event>
 7    1  0.2084210E-015  0.9000763E+02  0.7816164E-02  0.1186339E+00
        -11   -1    0    0    0    0  0.00000000000E+00  0.00000000000E+00  0.45593999997E+02  0.45594000000E+02  0.51100000000E-03 0.  1.
         11   -1    0    0    0    0 -0.00000000000E+00 -0.00000000000E+00 -0.45593999997E+02  0.45594000000E+02  0.51100000000E-03 0. -1.
    9900012    2    1    2    0    0 -0.10730605070E+01  0.27874615274E+00  0.40511949773E+00  0.90007627145E+02  0.89999887023E+02 0.  0.
         12    1    1    2    0    0  0.10730605070E+01 -0.27874615274E+00 -0.40511949773E+00  0.11803728550E+01  0.00000000000E+00 0. -1.
         11    1    3    3    0    0  0.68088526833E+01  0.61974972223E+01 -0.17428034260E+01  0.93705288392E+01  0.51100000000E-03 0. -1.
        -11    1    3    3    0    0  0.30585762097E+02 -0.78015007014E+00 -0.19418752751E+02  0.36237900544E+02  0.51100000000E-03 0.  1.
         12    1    3    3    0    0 -0.38467675287E+02 -0.51386009995E+01  0.21566675675E+02  0.44399197762E+02  0.00000000000E+00 0. -1.
</event>
<event>
 8    1  0.2084210E-015  0.9000795E+02  0.7816164E-02  0.1186339E+00
        -11   -1    0    0    0    0  0.00000000000E+00  0.00000000000E+00  0.45593999997E+02  0.45594000000E+02  0.51100000000E-03 0.  1.
         11   -1    0    0    0    0 -0.00000000000E+00 -0.00000000000E+00 -0.45593999997E+02  0.45594000000E+02  0.51100000000E-03 0. -1.
    9900012    2    1    2    0    0  0.51532516020E+00  0.97085515533E+00 -0.42942717172E+00  0.90007945997E+02  0.90000210084E+02 0.  0.
         23    2    3    3    0    0  0.96258408309E+01 -0.92864104020E+00 -0.25783718513E+02  0.62999620041E+02  0.56662446109E+02 0.  0.
         12    1    1    2    0    0 -0.51532516020E+00 -0.97085515533E+00  0.42942717172E+00  0.11800540027E+01  0.00000000000E+00 0. -1.
         11    1    4    4    0    0  0.75555802790E+01 -0.90795091980E+01 -0.42594871927E+02  0.44202346040E+02  0.51100000000E-03 0. -1.
        -11    1    4    4    0    0  0.20702605518E+01  0.81508681578E+01  0.16811153415E+02  0.18797274001E+02  0.51100000000E-03 0.  1.
        -12    1    3    3    0    0 -0.91105156707E+01  0.18994961955E+01  0.25354291341E+02  0.27008325957E+02  0.00000000000E+00 0.  1.
</event>
<event>
 7    1  0.2084210E-015  0.9000770E+02  0.7816164E-02  0.1186339E+00
        -11   -1    0    0    0    0  0.00000000000E+00  0.00000000000E+00  0.45593999997E+02  0.45594000000E+02  0.51100000000E-03 0.  1.
         11   -1    0    0    0    0 -0.00000000000E+00 -0.00000000000E+00 -0.45593999997E+02  0.45594000000E+02  0.51100000000E-03 0. -1.
    9900012    2    1    2    0    0  0.49227671812E+00  0.10719576101E+01  0.40999528316E-01  0.90007699002E+02  0.89999959829E+02 0.  0.
         12    1    1    2    0    0 -0.49227671812E+00 -0.10719576101E+01 -0.40999528316E-01  0.11803009982E+01  0.00000000000E+00 0. -1.
         11    1    3    3    0    0 -0.37891463892E+02  0.20790187244E+00 -0.71903862907E+01  0.38568224153E+02  0.51100000000E-03 0. -1.
        -11    1    3    3    0    0 -0.24965102443E+01 -0.60401826181E+01  0.75410134922E+01  0.99791409555E+01  0.51100000000E-03 0.  1.
        -12    1    3    3    0    0  0.40880250855E+02  0.69042383557E+01 -0.30962767319E+00  0.41460333893E+02  0.00000000000E+00 0.  1.
</event>
<event>
 7    1  0.2084210E-015  0.9000772E+02  0.7816164E-02  0.1186339E+00
        -11   -1    0    0    0    0  0.00000000000E+00  0.00000000000E+00  0.45593999997E+02  0.45594000000E+02  0.51100000000E-03 0.  1.
         11   -1    0    0    0    0 -0.00000000000E+00 -0.00000000000E+00 -0.45593999997E+02  0.45594000000E+02  0.51100000000E-03 0. -1.
    9900012    2    1    2    0    0 -0.89542840065E-01  0.46769388903E+00  0.10799539366E+01  0.90007722067E+02  0.89999983198E+02 0.  0.
         12    1    1    2    0    0  0.89542840065E-01 -0.46769388903E+00 -0.10799539366E+01  0.11802779330E+01  0.00000000000E+00 0. -1.
         11    1    3    3    0    0 -0.23127123020E+02 -0.30065814820E+02 -0.28042321617E+01  0.38035256779E+02  0.51100000000E-03 0. -1.
        -11    1    3    3    0    0 -0.11827421699E+01 -0.22644916836E+01  0.10377127776E+02  0.10686981929E+02  0.51100000000E-03 0.  1.
        -12    1    3    3    0    0  0.24220322350E+02  0.32798000393E+02 -0.64929416774E+01  0.41285483358E+02  0.00000000000E+00 0.  1.
</event>
<event>
 7    1  0.2084210E-015  0.9000778E+02  0.7816164E-02  0.1186339E+00
        -11   -1    0    0    0    0  0.00000000000E+00  0.00000000000E+00  0.45593999997E+02  0.45594000000E+02  0.51100000000E-03 0. -1.
         11   -1    0    0    0    0 -0.00000000000E+00 -0.00000000000E+00 -0.45593999997E+02  0.45594000000E+02  0.51100000000E-03 0.  1.
    9900012    2    1    2    0    0  0.22708981110E+00 -0.86909089720E+00 -0.76553020631E+00  0.90007777450E+02  0.90000039313E+02 0.  0.
         12    1    1    2    0    0 -0.22708981110E+00  0.86909089720E+00  0.76553020631E+00  0.11802225496E+01  0.00000000000E+00 0. -1.
         11    1    3    3    0    0 -0.12178114385E+01 -0.17023081390E+01 -0.99162739477E+01  0.10134762304E+02  0.51100000000E-03 0. -1.
        -11    1    3    3    0    0  0.25776636305E+02 -0.24431792563E+02 -0.13637859476E+02  0.38043904615E+02  0.51100000000E-03 0.  1.
         12    1    3    3    0    0 -0.24331735055E+02  0.25265009804E+02  0.22788603218E+02  0.41829110531E+02  0.00000000000E+00 0. -1.
</event>
<event>
 7    1  0.2084210E-015  0.9000723E+02  0.7816164E-02  0.1186340E+00
        -11   -1    0    0    0    0  0.00000000000E+00  0.00000000000E+00  0.45593999997E+02  0.45594000000E+02  0.51100000000E-03 0. -1.
         11   -1    0    0    0    0 -0.00000000000E+00 -0.00000000000E+00 -0.45593999997E+02  0.45594000000E+02  0.51100000000E-03 0.  1.
    9900012    2    1    2    0    0  0.98750091444E+00  0.62461498378E+00  0.17002743850E+00  0.90007232765E+02  0.89999487436E+02 0.  0.
         12    1    1    2    0    0 -0.98750091444E+00 -0.62461498378E+00 -0.17002743850E+00  0.11807672352E+01  0.00000000000E+00 0. -1.
         11    1    3    3    0    0 -0.43988514655E+01 -0.55254202710E+01  0.99910750317E+01  0.12235266402E+02  0.51100000000E-03 0. -1.
        -11    1    3    3    0    0  0.21674498848E+02 -0.89844863837E+01 -0.36283465072E+02  0.43208734462E+02  0.51100000000E-03 0.  1.
         12    1    3    3    0    0 -0.16288146468E+02  0.15134521638E+02  0.26462417479E+02  0.34563231901E+02  0.00000000000E+00 0. -1.
</event>
<event>
 7    1  0.2084210E-015  0.9000765E+02  0.7816164E-02  0.1186339E+00
        -11   -1    0    0    0    0  0.00000000000E+00  0.00000000000E+00  0.45593999997E+02  0.45594000000E+02  0.51100000000E-03 0.  1.
         11   -1    0    0    0    0 -0.00000000000E+00 -0.00000000000E+00 -0.45593999997E+02  0.45594000000E+02  0.51100000000E-03 0. -1.
    9900012    2    1    2    0    0 -0.15498913470E+00  0.14784849646E+00  0.11607532664E+01  0.90007648800E+02  0.89999908964E+02 0.  0.
         12    1    1    2    0    0  0.15498913470E+00 -0.14784849646E+00 -0.11607532664E+01  0.11803512000E+01  0.00000000000E+00 0. -1.
         11    1    3    3    0    0  0.84164440504E+01  0.54554005866E+01  0.52523580923E+01  0.11321889940E+02  0.51100000000E-03 0. -1.
        -11    1    3    3    0    0 -0.37500742220E+01 -0.14285531861E+01  0.36956554208E+02  0.37173790769E+02  0.51100000000E-03 0.  1.
         12    1    3    3    0    0 -0.48213589631E+01 -0.38789989041E+01 -0.41048159034E+02  0.41511968092E+02  0.00000000000E+00 0. -1.
</event>
<event>
 7    1  0.2084210E-015  0.9000712E+02  0.7816164E-02  0.1186340E+00
        -11   -1    0    0    0    0  0.00000000000E+00  0.00000000000E+00  0.45593999997E+02  0.45594000000E+02  0.51100000000E-03 0. -1.
         11   -1    0    0    0    0 -0.00000000000E+00 -0.00000000000E+00 -0.45593999997E+02  0.45594000000E+02  0.51100000000E-03 0.  1.
    9900012    2    1    2    0    0  0.65328562651E+00 -0.95455646271E+00  0.23773412714E+00  0.90007119961E+02  0.89999373143E+02 0.  0.
         12    1    1    2    0    0 -0.65328562651E+00  0.95455646271E+00 -0.23773412714E+00  0.11808800386E+01  0.00000000000E+00 0. -1.
         11    1    3    3    0    0 -0.11299404054E+02 -0.39334915603E+00  0.54070375990E+01  0.12532649815E+02  0.51100000000E-03 0. -1.
        -11    1    3    3    0    0 -0.14197724393E+00 -0.10731365862E+02 -0.38831700900E+02  0.40287508807E+02  0.51100000000E-03 0.  1.
         12    1    3    3    0    0  0.12094666925E+02  0.10170158556E+02  0.33662397428E+02  0.37186961339E+02  0.00000000000E+00 0. -1.
</event>
<event>
 7    1  0.2084210E-015  0.9000774E+02  0.7816164E-02  0.1186339E+00
        -11   -1    0    0    0    0  0.00000000000E+00  0.00000000000E+00  0.45593999997E+02  0.45594000000E+02  0.51100000000E-03 0. -1.
         11   -1    0    0    0    0 -0.00000000000E+00 -0.00000000000E+00 -0.45593999997E+02  0.45594000000E+02  0.51100000000E-03 0.  1.
    9900012    2    1    2    0    0  0.28514624820E+00 -0.11370613786E+01 -0.13710178742E+00  0.90007739918E+02  0.90000001285E+02 0.  0.
         12    1    1    2    0    0 -0.28514624820E+00  0.11370613786E+01  0.13710178742E+00  0.11802600822E+01  0.00000000000E+00 0. -1.
         11    1    3    3    0    0 -0.11721947963E+02 -0.58884442866E+00  0.89671005606E+01  0.14770230009E+02  0.51100000000E-03 0. -1.
        -11    1    3    3    0    0  0.26760553607E+02  0.13918371732E+02 -0.32285696889E+02  0.44183871774E+02  0.51100000000E-03 0.  1.
         12    1    3    3    0    0 -0.14753459396E+02 -0.14466588682E+02  0.23181494541E+02  0.31053638135E+02  0.00000000000E+00 0. -1.
</event>
<event>
 7    1  0.2084210E-015  0.9000776E+02  0.7816164E-02  0.1186339E+00
        -11   -1    0    0    0    0  0.00000000000E+00  0.00000000000E+00  0.45593999997E+02  0.45594000000E+02  0.51100000000E-03 0.  1.
         11   -1    0    0    0    0 -0.00000000000E+00 -0.00000000000E+00 -0.45593999997E+02  0.45594000000E+02  0.51100000000E-03 0. -1.
    9900012    2    1    2    0    0 -0.92264460548E+00  0.10323621588E-01  0.73593168640E+00  0.90007756342E+02  0.90000017926E+02 0.  0.
         12    1    1    2    0    0  0.92264460548E+00 -0.10323621588E-01 -0.73593168640E+00  0.11802436580E+01  0.00000000000E+00 0. -1.
         11    1    3    3    0    0  0.92536350479E+01 -0.34885787718E+01  0.20765070699E+00  0.98915652211E+01  0.51100000000E-03 0. -1.
        -11    1    3    3    0    0  0.30773226849E+02 -0.89042665459E+01  0.14419269068E+02  0.35131079889E+02  0.51100000000E-03 0.  1.
         12    1    3    3    0    0 -0.40949506502E+02  0.12403168939E+02 -0.13890988089E+02  0.44985111232E+02  0.00000000000E+00 0. -1.
</event>
<event>
 7    1  0.2084210E-015  0.9000774E+02  0.7816164E-02  0.1186339E+00
        -11   -1    0    0    0    0  0.00000000000E+00  0.00000000000E+00  0.45593999997E+02  0.45594000000E+02  0.51100000000E-03 0. -1.
         11   -1    0    0    0    0 -0.00000000000E+00 -0.00000000000E+00 -0.45593999997E+02  0.45594000000E+02  0.51100000000E-03 0.  1.
    9900012    2    1    2    0    0 -0.62338163107E-01  0.25758709816E+00 -0.11501251114E+01  0.90007735228E+02  0.89999996533E+02 0.  0.
         12    1    1    2    0    0  0.62338163107E-01 -0.25758709816E+00  0.11501251114E+01  0.11802647718E+01  0.00000000000E+00 0. -1.
         11    1    3    3    0    0  0.35690590950E+01  0.65701235204E+01 -0.83096024616E+01  0.11178291427E+02  0.51100000000E-03 0. -1.
        -11    1    3    3    0    0  0.33800053386E+02 -0.18044092484E+02  0.96895014593E+01  0.39521125000E+02  0.51100000000E-03 0.  1.
         12    1    3    3    0    0 -0.37431450644E+02  0.11731556062E+02 -0.25300241090E+01  0.39308318801E+02  0.00000000000E+00 0. -1.
</event>
<event>
 7    1  0.2084210E-015  0.9000770E+02  0.7816164E-02  0.1186339E+00
        -11   -1    0    0    0    0  0.00000000000E+00  0.00000000000E+00  0.45593999997E+02  0.45594000000E+02  0.51100000000E-03 0.  1.
         11   -1    0    0    0    0 -0.00000000000E+00 -0.00000000000E+00 -0.45593999997E+02  0.45594000000E+02  0.51100000000E-03 0. -1.
    9900012    2    1    2    0    0 -0.39453863691E+00  0.10988922421E+01 -0.17290029180E+00  0.90007695206E+02  0.89999955983E+02 0.  0.
         12    1    1    2    0    0  0.39453863691E+00 -0.10988922421E+01  0.17290029180E+00  0.11803047939E+01  0.00000000000E+00 0. -1.
         11    1    3    3    0    0 -0.36996252716E+02 -0.15351223582E+02  0.18192460157E+01  0.40096040164E+02  0.51100000000E-03 0. -1.
        -11    1    3    3    0    0  0.85962549389E+00 -0.35257602829E+01 -0.77554710755E+01  0.85625506379E+01  0.51100000000E-03 0.  1.
        -12    1    3    3    0    0  0.35742088585E+02  0.19975876107E+02  0.57633247680E+01  0.41349104404E+02  0.00000000000E+00 0.  1.
</event>
<event>
 7    1  0.2084210E-015  0.9000760E+02  0.7816164E-02  0.1186339E+00
        -11   -1    0    0    0    0  0.00000000000E+00  0.00000000000E+00  0.45593999997E+02  0.45594000000E+02  0.51100000000E-03 0. -1.
         11   -1    0    0    0    0 -0.00000000000E+00 -0.00000000000E+00 -0.45593999997E+02  0.45594000000E+02  0.51100000000E-03 0.  1.
    9900012    2    1    2    0    0 -0.33721715669E+00 -0.10158205758E+01 -0.49772705066E+00  0.90007602156E+02  0.89999861704E+02 0.  0.
         12    1    1    2    0    0  0.33721715669E+00  0.10158205758E+01  0.49772705066E+00  0.11803978439E+01  0.00000000000E+00 0. -1.
         11    1    3    3    0    0  0.10823264333E+02 -0.10790963800E+02 -0.35045545452E+02  0.38233208169E+02  0.51100000000E-03 0. -1.
        -11    1    3    3    0    0 -0.53815433206E+01 -0.92298746102E+01 -0.13279404239E+01  0.10766383788E+02  0.51100000000E-03 0.  1.
        -12    1    3    3    0    0 -0.57789381688E+01  0.19005017834E+02  0.35875758826E+02  0.41008010200E+02  0.00000000000E+00 0.  1.
</event>
<event>
 7    1  0.2084210E-015  0.9000777E+02  0.7816164E-02  0.1186339E+00
        -11   -1    0    0    0    0  0.00000000000E+00  0.00000000000E+00  0.45593999997E+02  0.45594000000E+02  0.51100000000E-03 0. -1.
         11   -1    0    0    0    0 -0.00000000000E+00 -0.00000000000E+00 -0.45593999997E+02  0.45594000000E+02  0.51100000000E-03 0.  1.
    9900012    2    1    2    0    0  0.89231007534E+00  0.73013694810E+00 -0.25224233226E+00  0.90007769756E+02  0.90000031517E+02 0.  0.
         12    1    1    2    0    0 -0.89231007534E+00 -0.73013694810E+00  0.25224233226E+00  0.11802302435E+01  0.00000000000E+00 0. -1.
         11    1    3    3    0    0  0.24517511903E+01 -0.43540481262E+01 -0.91020335152E+01  0.10383440343E+02  0.51100000000E-03 0. -1.
        -11    1    3    3    0    0 -0.17598011031E+02 -0.24850328571E+02 -0.18838841167E+02  0.35806853522E+02  0.51100000000E-03 0.  1.
         12    1    3    3    0    0  0.16038569916E+02  0.29934513645E+02  0.27688632350E+02  0.43817475892E+02  0.00000000000E+00 0. -1.
</event>
<event>
 7    1  0.2084210E-015  0.9000759E+02  0.7816164E-02  0.1186339E+00
        -11   -1    0    0    0    0  0.00000000000E+00  0.00000000000E+00  0.45593999997E+02  0.45594000000E+02  0.51100000000E-03 0.  1.
         11   -1    0    0    0    0 -0.00000000000E+00 -0.00000000000E+00 -0.45593999997E+02  0.45594000000E+02  0.51100000000E-03 0. -1.
    9900012    2    1    2    0    0  0.73597821656E+00 -0.45417050514E+00  0.80338334821E+00  0.90007593465E+02  0.89999852899E+02 0.  0.
         12    1    1    2    0    0 -0.73597821656E+00  0.45417050514E+00 -0.80338334821E+00  0.11804065347E+01  0.00000000000E+00 0. -1.
         11    1    3    3    0    0 -0.63191761268E+01  0.32046895234E+01 -0.86022154660E+01  0.11144511342E+02  0.51100000000E-03 0. -1.
        -11    1    3    3    0    0 -0.24142499270E+02  0.23414747333E+02  0.15635598099E+02  0.37088847270E+02  0.51100000000E-03 0.  1.
         12    1    3    3    0    0  0.31197653613E+02 -0.27073607361E+02 -0.62299992850E+01  0.41774234854E+02  0.00000000000E+00 0. -1.
</event>
<event>
 7    1  0.2084210E-015  0.9000774E+02  0.7816164E-02  0.1186339E+00
        -11   -1    0    0    0    0  0.00000000000E+00  0.00000000000E+00  0.45593999997E+02  0.45594000000E+02  0.51100000000E-03 0. -1.
         11   -1    0    0    0    0 -0.00000000000E+00 -0.00000000000E+00 -0.45593999997E+02  0.45594000000E+02  0.51100000000E-03 0.  1.
    9900012    2    1    2    0    0 -0.42360727971E+00  0.88783374829E+00 -0.65216488471E+00  0.90007741160E+02  0.90000002544E+02 0.  0.
         12    1    1    2    0    0  0.42360727971E+00 -0.88783374829E+00  0.65216488471E+00  0.11802588398E+01  0.00000000000E+00 0. -1.
         11    1    3    3    0    0 -0.37702169747E+02  0.95654347449E+00  0.16640480908E+02  0.41222253506E+02  0.51100000000E-03 0. -1.
        -11    1    3    3    0    0  0.32522466411E+01 -0.77594095367E+01  0.23702686118E+01  0.87409220410E+01  0.51100000000E-03 0.  1.
        -12    1    3    3    0    0  0.34026315826E+02  0.76906998105E+01 -0.19662914404E+02  0.40044565613E+02  0.00000000000E+00 0.  1.
</event>
<event>
 7    1  0.2084210E-015  0.9000765E+02  0.7816164E-02  0.1186339E+00
        -11   -1    0    0    0    0  0.00000000000E+00  0.00000000000E+00  0.45593999997E+02  0.45594000000E+02  0.51100000000E-03 0. -1.
         11   -1    0    0    0    0 -0.00000000000E+00 -0.00000000000E+00 -0.45593999997E+02  0.45594000000E+02  0.51100000000E-03 0.  1.
    9900012    2    1    2    0    0 -0.51144534695E+00  0.54897835974E+00 -0.91119203981E+00  0.90007650681E+02  0.89999910870E+02 0.  0.
         12    1    1    2    0    0  0.51144534695E+00 -0.54897835974E+00  0.91119203981E+00  0.11803493194E+01  0.00000000000E+00 0. -1.
         11    1    3    3    0    0  0.49640970784E+00  0.75509583105E+01 -0.10437811711E+02  0.12892296443E+02  0.51100000000E-03 0. -1.
        -11    1    3    3    0    0  0.11943545670E+02 -0.43941973513E+01 -0.31521509742E+02  0.33993570425E+02  0.51100000000E-03 0.  1.
         12    1    3    3    0    0 -0.12951400725E+02 -0.26077825994E+01  0.41048129414E+02  0.43121783812E+02  0.00000000000E+00 0. -1.
</event>
<event>
 7    1  0.2084210E-015  0.9000772E+02  0.7816164E-02  0.1186339E+00
        -11   -1    0    0    0    0  0.00000000000E+00  0.00000000000E+00  0.45593999997E+02  0.45594000000E+02  0.51100000000E-03 0. -1.
         11   -1    0    0    0    0 -0.00000000000E+00 -0.00000000000E+00 -0.45593999997E+02  0.45594000000E+02  0.51100000000E-03 0.  1.
    9900012    2    1    2    0    0  0.46246240159E+00  0.50533290983E+00 -0.96115816355E+00  0.90007721288E+02  0.89999982409E+02 0.  0.
         12    1    1    2    0    0 -0.46246240159E+00 -0.50533290983E+00  0.96115816355E+00  0.11802787120E+01  0.00000000000E+00 0. -1.
         11    1    3    3    0    0 -0.11316949081E+01  0.70813625130E+01 -0.69555238184E+01  0.99902822910E+01  0.51100000000E-03 0. -1.
        -11    1    3    3    0    0  0.29036301068E+02 -0.30876229841E+02 -0.22601060860E+01  0.42444745596E+02  0.51100000000E-03 0.  1.
         12    1    3    3    0    0 -0.27442143759E+02  0.24300200238E+02  0.82544717408E+01  0.37572693401E+02  0.00000000000E+00 0. -1.
</event>
<event>
 7    1  0.2084210E-015  0.9000758E+02  0.7816164E-02  0.1186339E+00
        -11   -1    0    0    0    0  0.00000000000E+00  0.00000000000E+00  0.45593999997E+02  0.45594000000E+02  0.51100000000E-03 0.  1.
         11   -1    0    0    0    0 -0.00000000000E+00 -0.00000000000E+00 -0.45593999997E+02  0.45594000000E+02  0.51100000000E-03 0. -1.
    9900012    2    1    2    0    0 -0.38535684175E+00 -0.82393129844E+00  0.75235241337E+00  0.90007577688E+02  0.89999836914E+02 0.  0.
         12    1    1    2    0    0  0.38535684175E+00  0.82393129844E+00 -0.75235241337E+00  0.11804223117E+01  0.00000000000E+00 0. -1.
         11    1    3    3    0    0  0.13200720261E+01 -0.93030333327E+01 -0.74474617562E+00  0.94256918298E+01  0.51100000000E-03 0. -1.
        -11    1    3    3    0    0  0.28407419683E+02 -0.17601362289E+02  0.17413441963E+02  0.37683118352E+02  0.51100000000E-03 0.  1.
         12    1    3    3    0    0 -0.30112848551E+02  0.26080464323E+02 -0.15916343374E+02  0.42898767506E+02  0.00000000000E+00 0. -1.
</event>
<event>
 7    1  0.2084210E-015  0.9000820E+02  0.7816164E-02  0.1186338E+00
        -11   -1    0    0    0    0  0.00000000000E+00  0.00000000000E+00  0.45593999997E+02  0.45594000000E+02  0.51100000000E-03 0.  1.
         11   -1    0    0    0    0 -0.00000000000E+00 -0.00000000000E+00 -0.45593999997E+02  0.45594000000E+02  0.51100000000E-03 0. -1.
    9900012    2    1    2    0    0  0.54459209682E+00 -0.41027469086E+00  0.96282001817E+00  0.90008199906E+02  0.90000467344E+02 0.  0.
         12    1    1    2    0    0 -0.54459209682E+00  0.41027469086E+00 -0.96282001817E+00  0.11798000938E+01  0.00000000000E+00 0. -1.
         11    1    3    3    0    0  0.12907492217E+02  0.34028895181E+02  0.72249045331E+01  0.37104828639E+02  0.51100000000E-03 0. -1.
        -11    1    3    3    0    0  0.53141863681E+01  0.49052063098E+01  0.44088975911E+01  0.84699471029E+01  0.51100000000E-03 0.  1.
        -12    1    3    3    0    0 -0.17677086488E+02 -0.39344376182E+02 -0.10670982106E+02  0.44433424164E+02  0.00000000000E+00 0.  1.
</event>
<event>
 7    1  0.2084210E-015  0.9000760E+02  0.7816164E-02  0.1186339E+00
        -11   -1    0    0    0    0  0.00000000000E+00  0.00000000000E+00  0.45593999997E+02  0.45594000000E+02  0.51100000000E-03 0.  1.
         11   -1    0    0    0    0 -0.00000000000E+00 -0.00000000000E+00 -0.45593999997E+02  0.45594000000E+02  0.51100000000E-03 0. -1.
    9900012    2    1    2    0    0 -0.38485661171E+00  0.34714805490E-01  0.11153581522E+01  0.90007600264E+02  0.89999859787E+02 0.  0.
         12    1    1    2    0    0  0.38485661171E+00 -0.34714805490E-01 -0.11153581522E+01  0.11803997361E+01  0.00000000000E+00 0. -1.
         11    1    3    3    0    0  0.19123987241E+02  0.27450924468E+02 -0.90178540981E+01  0.34649701801E+02  0.51100000000E-03 0. -1.
        -11    1    3    3    0    0  0.10163670604E+02  0.24608534088E+01  0.80523680564E+01  0.13198357141E+02  0.51100000000E-03 0.  1.
        -12    1    3    3    0    0 -0.29672514456E+02 -0.29877063071E+02  0.20808441939E+01  0.42159541322E+02  0.00000000000E+00 0.  1.
</event>
<event>
 7    1  0.2084210E-015  0.9000773E+02  0.7816164E-02  0.1186339E+00
        -11   -1    0    0    0    0  0.00000000000E+00  0.00000000000E+00  0.45593999997E+02  0.45594000000E+02  0.51100000000E-03 0. -1.
         11   -1    0    0    0    0 -0.00000000000E+00 -0.00000000000E+00 -0.45593999997E+02  0.45594000000E+02  0.51100000000E-03 0.  1.
    9900012    2    1    2    0    0 -0.11333450210E+01  0.32853621836E+00 -0.25185298282E-01  0.90007728301E+02  0.89999989515E+02 0.  0.
         12    1    1    2    0    0  0.11333450210E+01 -0.32853621836E+00  0.25185298282E-01  0.11802716986E+01  0.00000000000E+00 0. -1.
         11    1    3    3    0    0  0.33116806410E+02  0.21822583400E+02  0.97651791526E+01  0.40844910788E+02  0.51100000000E-03 0. -1.
        -11    1    3    3    0    0  0.28799427327E+01 -0.76520952037E+01 -0.40456379851E+01  0.91222704475E+01  0.51100000000E-03 0.  1.
        -12    1    3    3    0    0 -0.37130094164E+02 -0.13841951978E+02 -0.57447264658E+01  0.40040547066E+02  0.00000000000E+00 0.  1.
</event>
<event>
 7    1  0.2084210E-015  0.9000779E+02  0.7816164E-02  0.1186339E+00
        -11   -1    0    0    0    0  0.00000000000E+00  0.00000000000E+00  0.45593999997E+02  0.45594000000E+02  0.51100000000E-03 0. -1.
         11   -1    0    0    0    0 -0.00000000000E+00 -0.00000000000E+00 -0.45593999997E+02  0.45594000000E+02  0.51100000000E-03 0.  1.
    9900012    2    1    2    0    0  0.72482364764E+00 -0.25262479351E+00 -0.89650290984E+00  0.90007785581E+02  0.90000047551E+02 0.  0.
         12    1    1    2    0    0 -0.72482364764E+00  0.25262479351E+00  0.89650290984E+00  0.11802144186E+01  0.00000000000E+00 0. -1.
         11    1    3    3    0    0 -0.80196316405E+01 -0.80728926007E+01  0.77340393982E+01  0.13758686429E+02  0.51100000000E-03 0. -1.
        -11    1    3    3    0    0 -0.31042353957E+02 -0.67443755004E+01 -0.11497826176E+02  0.33783344227E+02  0.51100000000E-03 0.  1.
         12    1    3    3    0    0  0.39786809245E+02  0.14564643308E+02  0.28672838679E+01  0.42465754925E+02  0.00000000000E+00 0. -1.
</event>
<event>
 7    1  0.2084210E-015  0.9000773E+02  0.7816164E-02  0.1186339E+00
        -11   -1    0    0    0    0  0.00000000000E+00  0.00000000000E+00  0.45593999997E+02  0.45594000000E+02  0.51100000000E-03 0. -1.
         11   -1    0    0    0    0 -0.00000000000E+00 -0.00000000000E+00 -0.45593999997E+02  0.45594000000E+02  0.51100000000E-03 0.  1.
    9900012    2    1    2    0    0  0.96733755514E+00  0.20991874202E+00  0.64283317417E+00  0.90007727865E+02  0.89999989072E+02 0.  0.
         12    1    1    2    0    0 -0.96733755514E+00 -0.20991874202E+00 -0.64283317417E+00  0.11802721354E+01  0.00000000000E+00 0. -1.
         11    1    3    3    0    0 -0.65515342115E+01  0.21411800828E+01 -0.61933883951E+01  0.92663538000E+01  0.51100000000E-03 0. -1.
        -11    1    3    3    0    0 -0.34266798162E+02 -0.86149852127E+01  0.13652569047E+02  0.37879071640E+02  0.51100000000E-03 0.  1.
         12    1    3    3    0    0  0.41785669929E+02  0.66837238719E+01 -0.68163474781E+01  0.42862302424E+02  0.00000000000E+00 0. -1.
</event>
<event>
 7    1  0.2084210E-015  0.9000748E+02  0.7816164E-02  0.1186340E+00
        -11   -1    0    0    0    0  0.00000000000E+00  0.00000000000E+00  0.45593999997E+02  0.45594000000E+02  0.51100000000E-03 0.  1.
         11   -1    0    0    0    0 -0.00000000000E+00 -0.00000000000E+00 -0.45593999997E+02  0.45594000000E+02  0.51100000000E-03 0. -1.
    9900012    2    1    2    0    0 -0.47720636337E+00 -0.10748008468E+01 -0.10341368198E+00  0.90007484366E+02  0.89999742359E+02 0.  0.
         12    1    1    2    0    0  0.47720636337E+00  0.10748008468E+01  0.10341368198E+00  0.11805156344E+01  0.00000000000E+00 0. -1.
         11    1    3    3    0    0 -0.67553187145E+00 -0.49155383005E+01 -0.93778865114E+01  0.10609600170E+02  0.51100000000E-03 0. -1.
        -11    1    3    3    0    0  0.14114604740E+02 -0.59598961581E+01  0.40793930232E+02  0.43576222567E+02  0.51100000000E-03 0.  1.
         12    1    3    3    0    0 -0.13916279232E+02  0.98006336118E+01 -0.31519457403E+02  0.35821661628E+02  0.00000000000E+00 0. -1.
</event>
<event>
 7    1  0.2084210E-015  0.9000776E+02  0.7816164E-02  0.1186339E+00
        -11   -1    0    0    0    0  0.00000000000E+00  0.00000000000E+00  0.45593999997E+02  0.45594000000E+02  0.51100000000E-03 0.  1.
         11   -1    0    0    0    0 -0.00000000000E+00 -0.00000000000E+00 -0.45593999997E+02  0.45594000000E+02  0.51100000000E-03 0. -1.
    9900012    2    1    2    0    0  0.41736255992E+00  0.94758544789E+00 -0.56643229073E+00  0.90007764758E+02  0.90000026452E+02 0.  0.
         12    1    1    2    0    0 -0.41736255992E+00 -0.94758544789E+00  0.56643229073E+00  0.11802352424E+01  0.00000000000E+00 0. -1.
         11    1    3    3    0    0  0.39778828866E+01 -0.86715576257E+01 -0.13188802806E+01  0.96311426825E+01  0.51100000000E-03 0. -1.
        -11    1    3    3    0    0 -0.23304162406E+02 -0.28472229535E+02 -0.48369505780E+01  0.37109943833E+02  0.51100000000E-03 0.  1.
         12    1    3    3    0    0  0.19743642080E+02  0.38091372608E+02  0.55893985678E+01  0.43266678242E+02  0.00000000000E+00 0. -1.
</event>
<event>
 7    1  0.2084210E-015  0.9000782E+02  0.7816164E-02  0.1186339E+00
        -11   -1    0    0    0    0  0.00000000000E+00  0.00000000000E+00  0.45593999997E+02  0.45594000000E+02  0.51100000000E-03 0.  1.
         11   -1    0    0    0    0 -0.00000000000E+00 -0.00000000000E+00 -0.45593999997E+02  0.45594000000E+02  0.51100000000E-03 0. -1.
    9900012    2    1    2    0    0 -0.16086848312E+00  0.98846687921E+00  0.62440294250E+00  0.90007820152E+02  0.90000082577E+02 0.  0.
         12    1    1    2    0    0  0.16086848312E+00 -0.98846687921E+00 -0.62440294250E+00  0.11801798485E+01  0.00000000000E+00 0. -1.
         11    1    3    3    0    0  0.24167387625E+02 -0.14311916025E+02 -0.24519952854E+02  0.37284335224E+02  0.51100000000E-03 0. -1.
        -11    1    3    3    0    0 -0.11720846376E+01 -0.40326094764E+00 -0.87134883367E+01  0.88012090672E+01  0.51100000000E-03 0.  1.
        -12    1    3    3    0    0 -0.23156171470E+02  0.15703643852E+02  0.33857844133E+02  0.43922275860E+02  0.00000000000E+00 0.  1.
</event>
<event>
 7    1  0.2084210E-015  0.9000774E+02  0.7816164E-02  0.1186339E+00
        -11   -1    0    0    0    0  0.00000000000E+00  0.00000000000E+00  0.45593999997E+02  0.45594000000E+02  0.51100000000E-03 0.  1.
         11   -1    0    0    0    0 -0.00000000000E+00 -0.00000000000E+00 -0.45593999997E+02  0.45594000000E+02  0.51100000000E-03 0. -1.
    9900012    2    1    2    0    0  0.84917932780E+00  0.28391417304E+00  0.76896751608E+00  0.90007735695E+02  0.89999997006E+02 0.  0.
         12    1    1    2    0    0 -0.84917932780E+00 -0.28391417304E+00 -0.76896751608E+00  0.11802643048E+01  0.00000000000E+00 0. -1.
         11    1    3    3    0    0 -0.58710359012E+01 -0.25758714659E+01  0.73880466476E+01  0.97819941673E+01  0.51100000000E-03 0. -1.
        -11    1    3    3    0    0 -0.20868202633E+02 -0.74869217785E+01  0.27383216716E+02  0.35233172392E+02  0.51100000000E-03 0.  1.
         12    1    3    3    0    0  0.27588417862E+02  0.10346707417E+02 -0.34002295848E+02  0.44992569136E+02  0.00000000000E+00 0. -1.
</event>
<event>
 7    1  0.2084210E-015  0.9000766E+02  0.7816164E-02  0.1186339E+00
        -11   -1    0    0    0    0  0.00000000000E+00  0.00000000000E+00  0.45593999997E+02  0.45594000000E+02  0.51100000000E-03 0.  1.
         11   -1    0    0    0    0 -0.00000000000E+00 -0.00000000000E+00 -0.45593999997E+02  0.45594000000E+02  0.51100000000E-03 0. -1.
    9900012    2    1    2    0    0  0.11395232161E+01  0.30769254139E+00 -0.23378710504E-02  0.90007663893E+02  0.89999924256E+02 0.  0.
         12    1    1    2    0    0 -0.11395232161E+01 -0.30769254139E+00  0.23378710504E-02  0.11803361071E+01  0.00000000000E+00 0. -1.
         11    1    3    3    0    0  0.84646662480E+01  0.48037098910E+01  0.38208101044E+01  0.10455849727E+02  0.51100000000E-03 0. -1.
        -11    1    3    3    0    0 -0.17404687987E+02  0.17021652141E+02  0.29737174217E+02  0.38431228658E+02  0.51100000000E-03 0.  1.
         12    1    3    3    0    0  0.10079544955E+02 -0.21517669490E+02 -0.33560322193E+02  0.41120585507E+02  0.00000000000E+00 0. -1.
</event>
<event>
 7    1  0.3340093E-015  0.9000778E+02  0.7816164E-02  0.1186339E+00
        -11   -1    0    0    0    0  0.00000000000E+00  0.00000000000E+00  0.45593999997E+02  0.45594000000E+02  0.51100000000E-03 0.  1.
         11   -1    0    0    0    0 -0.00000000000E+00 -0.00000000000E+00 -0.45593999997E+02  0.45594000000E+02  0.51100000000E-03 0. -1.
    9900012    2    1    2    0    0 -0.90927899725E+00 -0.55204895100E+00  0.51124343072E+00  0.90007781298E+02  0.90000043211E+02 0.  0.
         12    1    1    2    0    0  0.90927899725E+00  0.55204895100E+00 -0.51124343072E+00  0.11802187020E+01  0.00000000000E+00 0. -1.
         11    1    3    3    0    0 -0.14338640801E+02 -0.11447618729E+02 -0.31161824856E+02  0.36162189137E+02  0.51100000000E-03 0. -1.
        -11    1    3    3    0    0 -0.37940731731E+01 -0.70965361888E+01 -0.50296392379E+01  0.94896305642E+01  0.51100000000E-03 0.  1.
        -12    1    3    3    0    0  0.17223434977E+02  0.17992105967E+02  0.36702707524E+02  0.44355961597E+02  0.00000000000E+00 0.  1.
</event>
<event>
 7    1  0.2084210E-015  0.9000776E+02  0.7816164E-02  0.1186339E+00
        -11   -1    0    0    0    0  0.00000000000E+00  0.00000000000E+00  0.45593999997E+02  0.45594000000E+02  0.51100000000E-03 0.  1.
         11   -1    0    0    0    0 -0.00000000000E+00 -0.00000000000E+00 -0.45593999997E+02  0.45594000000E+02  0.51100000000E-03 0. -1.
    9900012    2    1    2    0    0  0.51273625223E+00  0.66671449817E+00  0.82798196037E+00  0.90007762391E+02  0.90000024055E+02 0.  0.
         12    1    1    2    0    0 -0.51273625223E+00 -0.66671449817E+00 -0.82798196037E+00  0.11802376088E+01  0.00000000000E+00 0. -1.
         11    1    3    3    0    0 -0.24698838489E+02  0.22665183418E+02 -0.17020573179E+02  0.37595785318E+02  0.51100000000E-03 0. -1.
        -11    1    3    3    0    0 -0.33439291680E+01  0.66780534389E+01  0.76208676224E+01  0.10670327249E+02  0.51100000000E-03 0.  1.
        -12    1    3    3    0    0  0.28555503910E+02 -0.28676522359E+02  0.10227687517E+02  0.41741649824E+02  0.00000000000E+00 0.  1.
</event>
<event>
 7    1  0.2084210E-015  0.9000777E+02  0.7816164E-02  0.1186339E+00
        -11   -1    0    0    0    0  0.00000000000E+00  0.00000000000E+00  0.45593999997E+02  0.45594000000E+02  0.51100000000E-03 0.  1.
         11   -1    0    0    0    0 -0.00000000000E+00 -0.00000000000E+00 -0.45593999997E+02  0.45594000000E+02  0.51100000000E-03 0. -1.
    9900012    2    1    2    0    0  0.81708704692E+00 -0.10341978452E+00  0.84534379086E+00  0.90007774166E+02  0.90000035985E+02 0.  0.
         12    1    1    2    0    0 -0.81708704692E+00  0.10341978452E+00 -0.84534379086E+00  0.11802258338E+01  0.00000000000E+00 0. -1.
         11    1    3    3    0    0 -0.33135716055E+02 -0.84442601824E+01  0.14799669154E+02  0.37260051206E+02  0.51100000000E-03 0. -1.
        -11    1    3    3    0    0  0.67441270420E+00 -0.13813176784E+01  0.10314322698E+02  0.10428236860E+02  0.51100000000E-03 0.  1.
        -12    1    3    3    0    0  0.33278390398E+02  0.97221580763E+01 -0.24268648061E+02  0.42319486101E+02  0.00000000000E+00 0.  1.
</event>
<event>
 7    1  0.2084210E-015  0.9000784E+02  0.7816164E-02  0.1186339E+00
        -11   -1    0    0    0    0  0.00000000000E+00  0.00000000000E+00  0.45593999997E+02  0.45594000000E+02  0.51100000000E-03 0. -1.
         11   -1    0    0    0    0 -0.00000000000E+00 -0.00000000000E+00 -0.45593999997E+02  0.45594000000E+02  0.51100000000E-03 0.  1.
    9900012    2    1    2    0    0  0.20247994189E+00 -0.16403224445E-02 -0.11626563740E+01  0.90007842951E+02  0.90000105677E+02 0.  0.
         12    1    1    2    0    0 -0.20247994189E+00  0.16403224445E-02  0.11626563740E+01  0.11801570495E+01  0.00000000000E+00 0. -1.
         11    1    3    3    0    0 -0.26012318712E+01 -0.11668047559E+02  0.14384606189E+01  0.12040718844E+02  0.51100000000E-03 0. -1.
        -11    1    3    3    0    0 -0.11515309962E+02 -0.64463405425E+01 -0.35443596390E+02  0.37820711194E+02  0.51100000000E-03 0.  1.
         12    1    3    3    0    0  0.14319021775E+02  0.18112747779E+02  0.32842479397E+02  0.40146412912E+02  0.00000000000E+00 0. -1.
</event>
<event>
 7    1  0.2084210E-015  0.9000777E+02  0.7816164E-02  0.1186339E+00
        -11   -1    0    0    0    0  0.00000000000E+00  0.00000000000E+00  0.45593999997E+02  0.45594000000E+02  0.51100000000E-03 0.  1.
         11   -1    0    0    0    0 -0.00000000000E+00 -0.00000000000E+00 -0.45593999997E+02  0.45594000000E+02  0.51100000000E-03 0. -1.
    9900012    2    1    2    0    0  0.49914326762E+00  0.14967300855E+00  0.10589564368E+01  0.90007773434E+02  0.90000035244E+02 0.  0.
         12    1    1    2    0    0 -0.49914326762E+00 -0.14967300855E+00 -0.10589564368E+01  0.11802265656E+01  0.00000000000E+00 0. -1.
         11    1    3    3    0    0 -0.55154556024E+01  0.34225439909E-01  0.70844067306E+01  0.89783206040E+01  0.51100000000E-03 0. -1.
        -11    1    3    3    0    0 -0.36225290784E+02 -0.40013143469E+01  0.59594738808E+01  0.36929629541E+02  0.51100000000E-03 0.  1.
         12    1    3    3    0    0  0.42239889654E+02  0.41167619155E+01 -0.11984924175E+02  0.44099823289E+02  0.00000000000E+00 0. -1.
</event>
<event>
 7    1  0.2084210E-015  0.9000792E+02  0.7816164E-02  0.1186339E+00
        -11   -1    0    0    0    0  0.00000000000E+00  0.00000000000E+00  0.45593999997E+02  0.45594000000E+02  0.51100000000E-03 0. -1.
         11   -1    0    0    0    0 -0.00000000000E+00 -0.00000000000E+00 -0.45593999997E+02  0.45594000000E+02  0.51100000000E-03 0.  1.
    9900012    2    1    2    0    0  0.31275511628E+00  0.64127750674E+00 -0.93996791599E+00  0.90007918525E+02  0.90000182250E+02 0.  0.
         12    1    1    2    0    0 -0.31275511628E+00 -0.64127750674E+00  0.93996791599E+00  0.11800814745E+01  0.00000000000E+00 0. -1.
         11    1    3    3    0    0  0.25001513915E+02  0.20258069035E+02  0.80105004782E+01  0.33160717381E+02  0.51100000000E-03 0. -1.
        -11    1    3    3    0    0  0.10413655339E+02 -0.29947375542E+01 -0.13975856658E+02  0.17684378420E+02  0.51100000000E-03 0.  1.
        -12    1    3    3    0    0 -0.35102414137E+02 -0.16622053974E+02  0.50253882634E+01  0.39162822725E+02  0.00000000000E+00 0.  1.
</event>
<event>
 7    1  0.2084210E-015  0.9000777E+02  0.7816164E-02  0.1186339E+00
        -11   -1    0    0    0    0  0.00000000000E+00  0.00000000000E+00  0.45593999997E+02  0.45594000000E+02  0.51100000000E-03 0.  1.
         11   -1    0    0    0    0 -0.00000000000E+00 -0.00000000000E+00 -0.45593999997E+02  0.45594000000E+02  0.51100000000E-03 0. -1.
    9900012    2    1    2    0    0 -0.93221215800E+00  0.64128141895E+00 -0.33568705413E+00  0.90007768174E+02  0.90000029913E+02 0.  0.
         12    1    1    2    0    0  0.93221215800E+00 -0.64128141895E+00  0.33568705413E+00  0.11802318264E+01  0.00000000000E+00 0. -1.
         11    1    3    3    0    0 -0.36400201044E+02  0.16085170370E+02 -0.31915810320E+01  0.39923596176E+02  0.51100000000E-03 0. -1.
        -11    1    3    3    0    0  0.40451690315E+01  0.88563122819E+01 -0.23658447864E+01  0.10019724624E+02  0.51100000000E-03 0.  1.
        -12    1    3    3    0    0  0.31422819855E+02 -0.24300201233E+02  0.52217387643E+01  0.40064447373E+02  0.00000000000E+00 0.  1.
</event>
<event>
 7    1  0.2084210E-015  0.9000763E+02  0.7816164E-02  0.1186339E+00
        -11   -1    0    0    0    0  0.00000000000E+00  0.00000000000E+00  0.45593999997E+02  0.45594000000E+02  0.51100000000E-03 0. -1.
         11   -1    0    0    0    0 -0.00000000000E+00 -0.00000000000E+00 -0.45593999997E+02  0.45594000000E+02  0.51100000000E-03 0.  1.
    9900012    2    1    2    0    0 -0.56333534398E+00  0.40561818344E-01 -0.10364758182E+01  0.90007629680E+02  0.89999889592E+02 0.  0.
         12    1    1    2    0    0  0.56333534398E+00 -0.40561818344E-01  0.10364758182E+01  0.11803703201E+01  0.00000000000E+00 0. -1.
         11    1    3    3    0    0  0.19898974312E+02 -0.24394662173E+02 -0.27413458289E+02  0.41744058461E+02  0.51100000000E-03 0. -1.
        -11    1    3    3    0    0  0.36691760220E+01 -0.84303614488E+00  0.78565892198E+01  0.87120351842E+01  0.51100000000E-03 0.  1.
        -12    1    3    3    0    0 -0.24131485678E+02  0.25278260136E+02  0.18520393251E+02  0.39551536035E+02  0.00000000000E+00 0.  1.
</event>
<event>
 7    1  0.2084210E-015  0.9000757E+02  0.7816164E-02  0.1186339E+00
        -11   -1    0    0    0    0  0.00000000000E+00  0.00000000000E+00  0.45593999997E+02  0.45594000000E+02  0.51100000000E-03 0.  1.
         11   -1    0    0    0    0 -0.00000000000E+00 -0.00000000000E+00 -0.45593999997E+02  0.45594000000E+02  0.51100000000E-03 0. -1.
    9900012    2    1    2    0    0 -0.76727090792E+00 -0.22389540530E+00  0.86867159535E+00  0.90007566122E+02  0.89999825195E+02 0.  0.
         12    1    1    2    0    0  0.76727090792E+00  0.22389540530E+00 -0.86867159535E+00  0.11804338775E+01  0.00000000000E+00 0. -1.
         11    1    3    3    0    0  0.35684655020E+01  0.60040921962E+01 -0.59591266873E+01  0.91811905696E+01  0.51100000000E-03 0. -1.
        -11    1    3    3    0    0  0.64976687917E+01  0.95215916573E+01  0.40498875643E+02  0.42107473636E+02  0.51100000000E-03 0.  1.
         12    1    3    3    0    0 -0.10833405202E+02 -0.15749579259E+02 -0.33671077360E+02  0.38718901917E+02  0.00000000000E+00 0. -1.
</event>
<event>
 7    1  0.2084210E-015  0.9000776E+02  0.7816164E-02  0.1186339E+00
        -11   -1    0    0    0    0  0.00000000000E+00  0.00000000000E+00  0.45593999997E+02  0.45594000000E+02  0.51100000000E-03 0.  1.
         11   -1    0    0    0    0 -0.00000000000E+00 -0.00000000000E+00 -0.45593999997E+02  0.45594000000E+02  0.51100000000E-03 0. -1.
    9900012    2    1    2    0    0 -0.53198165557E+00  0.10334704065E+01  0.20470039607E+00  0.90007759425E+02  0.90000021049E+02 0.  0.
         12    1    1    2    0    0  0.53198165557E+00 -0.10334704065E+01 -0.20470039607E+00  0.11802405751E+01  0.00000000000E+00 0. -1.
         11    1    3    3    0    0  0.20665330869E+02  0.31532869965E+02  0.12780786660E+01  0.37722821653E+02  0.51100000000E-03 0. -1.
        -11    1    3    3    0    0  0.72092339058E+01  0.39021431042E+00  0.64132865670E+01  0.96568921278E+01  0.51100000000E-03 0.  1.
        -12    1    3    3    0    0 -0.28406546430E+02 -0.30889613869E+02 -0.74866648369E+01  0.42628045644E+02  0.00000000000E+00 0.  1.
</event>
<event>
 7    1  0.2084210E-015  0.9000773E+02  0.7816164E-02  0.1186339E+00
        -11   -1    0    0    0    0  0.00000000000E+00  0.00000000000E+00  0.45593999997E+02  0.45594000000E+02  0.51100000000E-03 0.  1.
         11   -1    0    0    0    0 -0.00000000000E+00 -0.00000000000E+00 -0.45593999997E+02  0.45594000000E+02  0.51100000000E-03 0. -1.
    9900012    2    1    2    0    0  0.31798981245E+00 -0.78400185285E+00  0.82295500565E+00  0.90007732502E+02  0.89999993771E+02 0.  0.
         12    1    1    2    0    0 -0.31798981245E+00  0.78400185285E+00 -0.82295500565E+00  0.11802674983E+01  0.00000000000E+00 0. -1.
         11    1    3    3    0    0  0.18615414065E+02  0.10825386740E+02 -0.32388019021E+02  0.38893526650E+02  0.51100000000E-03 0. -1.
        -11    1    3    3    0    0  0.62575411994E+01 -0.12529955822E+01 -0.22401566041E+01  0.67635140026E+01  0.51100000000E-03 0.  1.
        -12    1    3    3    0    0 -0.24554965452E+02 -0.10356393011E+02  0.35451130630E+02  0.44350691850E+02  0.00000000000E+00 0.  1.
</event>
<event>
 7    1  0.2084210E-015  0.9000773E+02  0.7816164E-02  0.1186339E+00
        -11   -1    0    0    0    0  0.00000000000E+00  0.00000000000E+00  0.45593999997E+02  0.45594000000E+02  0.51100000000E-03 0. -1.
         11   -1    0    0    0    0 -0.00000000000E+00 -0.00000000000E+00 -0.45593999997E+02  0.45594000000E+02  0.51100000000E-03 0.  1.
    9900012    2    1    2    0    0 -0.34954867595E+00  0.66733958529E+00 -0.90857022877E+00  0.90007734666E+02  0.89999995963E+02 0.  0.
         12    1    1    2    0    0  0.34954867595E+00 -0.66733958529E+00  0.90857022877E+00  0.11802653344E+01  0.00000000000E+00 0. -1.
         11    1    3    3    0    0 -0.78261374916E+01 -0.42901492499E+01 -0.32978938813E+01  0.95147208544E+01  0.51100000000E-03 0. -1.
        -11    1    3    3    0    0 -0.34543363783E+02  0.16364991573E+01 -0.10962209578E+02  0.36277984371E+02  0.51100000000E-03 0.  1.
         12    1    3    3    0    0  0.42019952598E+02  0.33209896779E+01  0.13351533231E+02  0.44215029440E+02  0.00000000000E+00 0. -1.
</event>
<event>
 7    1  0.2084210E-015  0.9000768E+02  0.7816164E-02  0.1186339E+00
        -11   -1    0    0    0    0  0.00000000000E+00  0.00000000000E+00  0.45593999997E+02  0.45594000000E+02  0.51100000000E-03 0.  1.
         11   -1    0    0    0    0 -0.00000000000E+00 -0.00000000000E+00 -0.45593999997E+02  0.45594000000E+02  0.51100000000E-03 0. -1.
    9900012    2    1    2    0    0  0.57875751506E+00 -0.11341894873E+00  0.10224151666E+01  0.90007679327E+02  0.89999939894E+02 0.  0.
         12    1    1    2    0    0 -0.57875751506E+00  0.11341894873E+00 -0.10224151666E+01  0.11803206734E+01  0.00000000000E+00 0. -1.
         11    1    3    3    0    0  0.96406382005E-01 -0.83452894254E+01  0.42090934466E+01  0.93471716410E+01  0.51100000000E-03 0. -1.
        -11    1    3    3    0    0 -0.31972100258E+02  0.15502827222E+02  0.19374612848E+02  0.40471328988E+02  0.51100000000E-03 0.  1.
         12    1    3    3    0    0  0.32454451391E+02 -0.72709567449E+01 -0.22561291128E+02  0.40189178698E+02  0.00000000000E+00 0. -1.
</event>
<event>
 7    1  0.2084210E-015  0.9000768E+02  0.7816164E-02  0.1186339E+00
        -11   -1    0    0    0    0  0.00000000000E+00  0.00000000000E+00  0.45593999997E+02  0.45594000000E+02  0.51100000000E-03 0.  1.
         11   -1    0    0    0    0 -0.00000000000E+00 -0.00000000000E+00 -0.45593999997E+02  0.45594000000E+02  0.51100000000E-03 0. -1.
    9900012    2    1    2    0    0 -0.26356434128E+00 -0.93802195308E+00  0.66619378025E+00  0.90007675680E+02  0.89999936199E+02 0.  0.
         12    1    1    2    0    0  0.26356434128E+00  0.93802195308E+00 -0.66619378025E+00  0.11803243195E+01  0.00000000000E+00 0. -1.
         11    1    3    3    0    0  0.81330060835E+01 -0.11480235359E-02 -0.61316132189E+01  0.10185404764E+02  0.51100000000E-03 0. -1.
        -11    1    3    3    0    0 -0.15444676674E+02 -0.34907104172E+02 -0.12445799537E+02  0.40148996072E+02  0.51100000000E-03 0.  1.
         12    1    3    3    0    0  0.70481062491E+01  0.33970230242E+02  0.19243606536E+02  0.39673274845E+02  0.00000000000E+00 0. -1.
</event>
<event>
 7    1  0.2084210E-015  0.9000769E+02  0.7816164E-02  0.1186339E+00
        -11   -1    0    0    0    0  0.00000000000E+00  0.00000000000E+00  0.45593999997E+02  0.45594000000E+02  0.51100000000E-03 0.  1.
         11   -1    0    0    0    0 -0.00000000000E+00 -0.00000000000E+00 -0.45593999997E+02  0.45594000000E+02  0.51100000000E-03 0. -1.
    9900012    2    1    2    0    0 -0.51976483194E+00 -0.48718516133E+00  0.94107764717E+00  0.90007689871E+02  0.89999950578E+02 0.  0.
         12    1    1    2    0    0  0.51976483194E+00  0.48718516133E+00 -0.94107764717E+00  0.11803101287E+01  0.00000000000E+00 0. -1.
         11    1    3    3    0    0 -0.62946242846E+01  0.54371791577E+01  0.46130515021E+01  0.95113330558E+01  0.51100000000E-03 0. -1.
        -11    1    3    3    0    0 -0.11617361248E+02  0.30709147669E+02  0.14703237774E+02  0.35974991789E+02  0.51100000000E-03 0.  1.
         12    1    3    3    0    0  0.17392220701E+02 -0.36633511988E+02 -0.18375211629E+02  0.44521365027E+02  0.00000000000E+00 0. -1.
</event>
<event>
 7    1  0.2084210E-015  0.9000773E+02  0.7816164E-02  0.1186339E+00
        -11   -1    0    0    0    0  0.00000000000E+00  0.00000000000E+00  0.45593999997E+02  0.45594000000E+02  0.51100000000E-03 0. -1.
         11   -1    0    0    0    0 -0.00000000000E+00 -0.00000000000E+00 -0.45593999997E+02  0.45594000000E+02  0.51100000000E-03 0.  1.
    9900012    2    1    2    0    0  0.98715812228E+00 -0.10117423961E+00 -0.63900144980E+00  0.90007728744E+02  0.89999989963E+02 0.  0.
         12    1    1    2    0    0 -0.98715812228E+00  0.10117423961E+00  0.63900144980E+00  0.11802712561E+01  0.00000000000E+00 0. -1.
         11    1    3    3    0    0  0.44892811069E+01 -0.21307345531E+01  0.87859339679E+01  0.10093874902E+02  0.51100000000E-03 0. -1.
        -11    1    3    3    0    0 -0.22546851507E+02  0.20549053898E+02 -0.32609919511E+02  0.44654574007E+02  0.51100000000E-03 0.  1.
         12    1    3    3    0    0  0.19044728522E+02 -0.18519493584E+02  0.23184984093E+02  0.35259279835E+02  0.00000000000E+00 0. -1.
</event>
<event>
 7    1  0.2084210E-015  0.9000779E+02  0.7816164E-02  0.1186339E+00
        -11   -1    0    0    0    0  0.00000000000E+00  0.00000000000E+00  0.45593999997E+02  0.45594000000E+02  0.51100000000E-03 0.  1.
         11   -1    0    0    0    0 -0.00000000000E+00 -0.00000000000E+00 -0.45593999997E+02  0.45594000000E+02  0.51100000000E-03 0. -1.
    9900012    2    1    2    0    0 -0.11035524889E+01  0.74207674251E-01  0.41178418760E+00  0.90007787692E+02  0.90000049690E+02 0.  0.
         12    1    1    2    0    0  0.11035524889E+01 -0.74207674251E-01 -0.41178418760E+00  0.11802123079E+01  0.00000000000E+00 0. -1.
         11    1    3    3    0    0 -0.66396625487E+01 -0.12272263479E+01 -0.80102981553E+01  0.10476453602E+02  0.51100000000E-03 0. -1.
        -11    1    3    3    0    0 -0.18395136423E+02  0.33707243403E+02  0.81027940317E+01  0.39245567561E+02  0.51100000000E-03 0.  1.
         12    1    3    3    0    0  0.23931246482E+02 -0.32405809381E+02  0.31928831124E+00  0.40285766529E+02  0.00000000000E+00 0. -1.
</event>
<event>
 7    1  0.2084210E-015  0.9000814E+02  0.7816164E-02  0.1186338E+00
        -11   -1    0    0    0    0  0.00000000000E+00  0.00000000000E+00  0.45593999997E+02  0.45594000000E+02  0.51100000000E-03 0.  1.
         11   -1    0    0    0    0 -0.00000000000E+00 -0.00000000000E+00 -0.45593999997E+02  0.45594000000E+02  0.51100000000E-03 0. -1.
    9900012    2    1    2    0    0 -0.14995679553E+00  0.10821543222E+01  0.44555357639E+00  0.90008142802E+02  0.90000409486E+02 0.  0.
         12    1    1    2    0    0  0.14995679553E+00 -0.10821543222E+01 -0.44555357639E+00  0.11798571977E+01  0.00000000000E+00 0. -1.
         11    1    3    3    0    0 -0.85222745733E+00  0.88102924137E+01  0.58682868850E+01  0.10619996953E+02  0.51100000000E-03 0. -1.
        -11    1    3    3    0    0  0.12544470915E+02 -0.12795491161E+02  0.33717317455E+02  0.38183056992E+02  0.51100000000E-03 0.  1.
         12    1    3    3    0    0 -0.11842200253E+02  0.50673530697E+01 -0.39140050764E+02  0.41205088858E+02  0.00000000000E+00 0. -1.
</event>
<event>
 7    1  0.2084210E-015  0.9000775E+02  0.7816164E-02  0.1186339E+00
        -11   -1    0    0    0    0  0.00000000000E+00  0.00000000000E+00  0.45593999997E+02  0.45594000000E+02  0.51100000000E-03 0. -1.
         11   -1    0    0    0    0 -0.00000000000E+00 -0.00000000000E+00 -0.45593999997E+02  0.45594000000E+02  0.51100000000E-03 0.  1.
    9900012    2    1    2    0    0  0.99836775364E+00  0.51049929068E+00 -0.36830447367E+00  0.90007747534E+02  0.90000009002E+02 0.  0.
         12    1    1    2    0    0 -0.99836775364E+00 -0.51049929068E+00  0.36830447367E+00  0.11802524656E+01  0.00000000000E+00 0. -1.
         11    1    3    3    0    0  0.68270324658E+01 -0.32787668825E+02  0.16959722636E+02  0.37540268931E+02  0.51100000000E-03 0. -1.
        -11    1    3    3    0    0  0.22083793098E+01 -0.42778515074E+01  0.58625374851E+01  0.75859276770E+01  0.51100000000E-03 0.  1.
        -12    1    3    3    0    0 -0.80370440220E+01  0.37576019623E+02 -0.23190564595E+02  0.44881550926E+02  0.00000000000E+00 0.  1.
</event>
<event>
 7    1  0.2084210E-015  0.9000775E+02  0.7816164E-02  0.1186339E+00
        -11   -1    0    0    0    0  0.00000000000E+00  0.00000000000E+00  0.45593999997E+02  0.45594000000E+02  0.51100000000E-03 0.  1.
         11   -1    0    0    0    0 -0.00000000000E+00 -0.00000000000E+00 -0.45593999997E+02  0.45594000000E+02  0.51100000000E-03 0. -1.
    9900012    2    1    2    0    0 -0.13582706661E+00  0.52449388845E+00  0.10485471386E+01  0.90007748360E+02  0.90000009839E+02 0.  0.
         12    1    1    2    0    0  0.13582706661E+00 -0.52449388845E+00 -0.10485471386E+01  0.11802516397E+01  0.00000000000E+00 0. -1.
         11    1    3    3    0    0 -0.27653579540E+02  0.20405998248E+02 -0.12403954696E+02  0.36537423530E+02  0.51100000000E-03 0. -1.
        -11    1    3    3    0    0 -0.65963522959E+01  0.59187992559E+01  0.97671643087E+00  0.89161664122E+01  0.51100000000E-03 0.  1.
        -12    1    3    3    0    0  0.34114104770E+02 -0.25800303615E+02  0.12475785404E+02  0.44554158418E+02  0.00000000000E+00 0.  1.
</event>
<event>
 7    1  0.2084210E-015  0.9000774E+02  0.7816164E-02  0.1186339E+00
        -11   -1    0    0    0    0  0.00000000000E+00  0.00000000000E+00  0.45593999997E+02  0.45594000000E+02  0.51100000000E-03 0. -1.
         11   -1    0    0    0    0 -0.00000000000E+00 -0.00000000000E+00 -0.45593999997E+02  0.45594000000E+02  0.51100000000E-03 0.  1.
    9900012    2    1    2    0    0  0.68650898457E+00  0.77650243884E+00 -0.56459049218E+00  0.90007740263E+02  0.90000001634E+02 0.  0.
         12    1    1    2    0    0 -0.68650898457E+00 -0.77650243884E+00  0.56459049218E+00  0.11802597372E+01  0.00000000000E+00 0. -1.
         11    1    3    3    0    0 -0.20797043750E+01  0.70233406548E+01 -0.68206900285E+01  0.10008711054E+02  0.51100000000E-03 0. -1.
        -11    1    3    3    0    0  0.77764133837E+01 -0.27918053041E+02 -0.27251338973E+02  0.39780972422E+02  0.51100000000E-03 0.  1.
         12    1    3    3    0    0 -0.50102000242E+01  0.21671214825E+02  0.33507438509E+02  0.40218056787E+02  0.00000000000E+00 0. -1.
</event>
<event>
 7    1  0.2084210E-015  0.9000785E+02  0.7816164E-02  0.1186339E+00
        -11   -1    0    0    0    0  0.00000000000E+00  0.00000000000E+00  0.45593999997E+02  0.45594000000E+02  0.51100000000E-03 0.  1.
         11   -1    0    0    0    0 -0.00000000000E+00 -0.00000000000E+00 -0.45593999997E+02  0.45594000000E+02  0.51100000000E-03 0. -1.
    9900012    2    1    2    0    0  0.38633001001E+00  0.80275682276E+00  0.77400979658E+00  0.90007847231E+02  0.90000110014E+02 0.  0.
         12    1    1    2    0    0 -0.38633001001E+00 -0.80275682276E+00 -0.77400979658E+00  0.11801527691E+01  0.00000000000E+00 0. -1.
         11    1    3    3    0    0  0.47096158616E+00  0.10176350054E+02  0.67202256560E+01  0.12204152505E+02  0.51100000000E-03 0. -1.
        -11    1    3    3    0    0  0.16110285479E+02  0.25616842252E+02  0.15161857826E+02  0.33847390419E+02  0.51100000000E-03 0.  1.
         12    1    3    3    0    0 -0.16194917055E+02 -0.34990435483E+02 -0.21108073685E+02  0.43956304308E+02  0.00000000000E+00 0. -1.
</event>
<event>
 7    1  0.2084210E-015  0.9000771E+02  0.7816164E-02  0.1186339E+00
        -11   -1    0    0    0    0  0.00000000000E+00  0.00000000000E+00  0.45593999997E+02  0.45594000000E+02  0.51100000000E-03 0. -1.
         11   -1    0    0    0    0 -0.00000000000E+00 -0.00000000000E+00 -0.45593999997E+02  0.45594000000E+02  0.51100000000E-03 0.  1.
    9900012    2    1    2    0    0 -0.26880656909E+00 -0.81273421650E+00  0.81258140554E+00  0.90007710875E+02  0.89999971858E+02 0.  0.
         12    1    1    2    0    0  0.26880656909E+00  0.81273421650E+00 -0.81258140554E+00  0.11802891251E+01  0.00000000000E+00 0. -1.
         11    1    3    3    0    0 -0.23669733528E+01 -0.58537026180E+01 -0.75576468440E+01  0.98481685238E+01  0.51100000000E-03 0. -1.
        -11    1    3    3    0    0  0.30460795898E+02  0.16318529098E+02 -0.18761780532E+02  0.39321226935E+02  0.51100000000E-03 0.  1.
         12    1    3    3    0    0 -0.28362629114E+02 -0.11277560696E+02  0.27132008782E+02  0.40838315416E+02  0.00000000000E+00 0. -1.
</event>
<event>
 7    1  0.2084210E-015  0.9000770E+02  0.7816164E-02  0.1186339E+00
        -11   -1    0    0    0    0  0.00000000000E+00  0.00000000000E+00  0.45593999997E+02  0.45594000000E+02  0.51100000000E-03 0. -1.
         11   -1    0    0    0    0 -0.00000000000E+00 -0.00000000000E+00 -0.45593999997E+02  0.45594000000E+02  0.51100000000E-03 0.  1.
    9900012    2    1    2    0    0  0.41174864166E+00 -0.10850608834E+01 -0.21495057508E+00  0.90007704353E+02  0.89999965250E+02 0.  0.
         12    1    1    2    0    0 -0.41174864166E+00  0.10850608834E+01  0.21495057508E+00  0.11802956470E+01  0.00000000000E+00 0. -1.
         11    1    3    3    0    0 -0.40875220649E+01 -0.57909125850E+01 -0.82400850674E+01  0.10869291945E+02  0.51100000000E-03 0. -1.
        -11    1    3    3    0    0  0.12276276824E+02  0.23094691779E+02 -0.27772423339E+02  0.38149433277E+02  0.51100000000E-03 0.  1.
         12    1    3    3    0    0 -0.77770061175E+01 -0.18388840077E+02  0.35797557831E+02  0.40988979131E+02  0.00000000000E+00 0. -1.
</event>
<event>
 7    1  0.2084210E-015  0.9000749E+02  0.7816164E-02  0.1186340E+00
        -11   -1    0    0    0    0  0.00000000000E+00  0.00000000000E+00  0.45593999997E+02  0.45594000000E+02  0.51100000000E-03 0. -1.
         11   -1    0    0    0    0 -0.00000000000E+00 -0.00000000000E+00 -0.45593999997E+02  0.45594000000E+02  0.51100000000E-03 0.  1.
    9900012    2    1    2    0    0  0.71437932980E-01 -0.91854696564E+00 -0.73808453752E+00  0.90007491342E+02  0.89999749428E+02 0.  0.
         12    1    1    2    0    0 -0.71437932980E-01  0.91854696564E+00  0.73808453752E+00  0.11805086577E+01  0.00000000000E+00 0. -1.
         11    1    3    3    0    0 -0.32230592347E+01  0.71654228041E+01 -0.15814773313E+02  0.17658948157E+02  0.51100000000E-03 0. -1.
        -11    1    3    3    0    0 -0.24494967452E+02 -0.76301068614E+01 -0.16328439256E+02  0.30411180345E+02  0.51100000000E-03 0.  1.
         12    1    3    3    0    0  0.27789464619E+02 -0.45386290833E+00  0.31405128031E+02  0.41937362841E+02  0.00000000000E+00 0. -1.
</event>
<event>
 7    1  0.2084210E-015  0.9000767E+02  0.7816164E-02  0.1186339E+00
        -11   -1    0    0    0    0  0.00000000000E+00  0.00000000000E+00  0.45593999997E+02  0.45594000000E+02  0.51100000000E-03 0.  1.
         11   -1    0    0    0    0 -0.00000000000E+00 -0.00000000000E+00 -0.45593999997E+02  0.45594000000E+02  0.51100000000E-03 0. -1.
    9900012    2    1    2    0    0  0.10265334471E+01  0.21050616102E-01 -0.58221311734E+00  0.90007666928E+02  0.89999927332E+02 0.  0.
         12    1    1    2    0    0 -0.10265334471E+01 -0.21050616102E-01  0.58221311734E+00  0.11803330718E+01  0.00000000000E+00 0. -1.
         11    1    3    3    0    0  0.30601606830E+02  0.22330030737E+02  0.71355319670E+00  0.37889283072E+02  0.51100000000E-03 0. -1.
        -11    1    3    3    0    0 -0.75660171350E+01  0.10277150086E+02 -0.90691934295E+00  0.12794019389E+02  0.51100000000E-03 0.  1.
        -12    1    3    3    0    0 -0.22009056248E+02 -0.32586130207E+02 -0.38884697110E+00  0.39324364467E+02  0.00000000000E+00 0.  1.
</event>
<event>
 7    1  0.2084210E-015  0.9000798E+02  0.7816164E-02  0.1186339E+00
        -11   -1    0    0    0    0  0.00000000000E+00  0.00000000000E+00  0.45593999997E+02  0.45594000000E+02  0.51100000000E-03 0. -1.
         11   -1    0    0    0    0 -0.00000000000E+00 -0.00000000000E+00 -0.45593999997E+02  0.45594000000E+02  0.51100000000E-03 0.  1.
    9900012    2    1    2    0    0  0.10032727873E+01 -0.59585658562E+00  0.17561036327E+00  0.90007982900E+02  0.90000247474E+02 0.  0.
         12    1    1    2    0    0 -0.10032727873E+01  0.59585658562E+00 -0.17561036327E+00  0.11800170999E+01  0.00000000000E+00 0. -1.
         11    1    3    3    0    0 -0.61666899001E+01  0.74228346609E+01  0.30388156589E+01  0.10117358331E+02  0.51100000000E-03 0. -1.
        -11    1    3    3    0    0 -0.35491750076E+02 -0.18247205310E+01  0.55469227241E+01  0.35968907134E+02  0.51100000000E-03 0.  1.
         12    1    3    3    0    0  0.42661712763E+02 -0.61939707156E+01 -0.84101280197E+01  0.43921717435E+02  0.00000000000E+00 0. -1.
</event>
<event>
 7    1  0.2084210E-015  0.9000774E+02  0.7816164E-02  0.1186339E+00
        -11   -1    0    0    0    0  0.00000000000E+00  0.00000000000E+00  0.45593999997E+02  0.45594000000E+02  0.51100000000E-03 0.  1.
         11   -1    0    0    0    0 -0.00000000000E+00 -0.00000000000E+00 -0.45593999997E+02  0.45594000000E+02  0.51100000000E-03 0. -1.
    9900012    2    1    2    0    0  0.11340722911E+00 -0.63869244794E+00  0.98601261813E+00  0.90007741500E+02  0.90000002888E+02 0.  0.
         12    1    1    2    0    0 -0.11340722911E+00  0.63869244794E+00 -0.98601261813E+00  0.11802584996E+01  0.00000000000E+00 0. -1.
         11    1    3    3    0    0  0.85353931337E+01  0.12516292920E+01 -0.41471844375E+01  0.95717632050E+01  0.51100000000E-03 0. -1.
        -11    1    3    3    0    0  0.10698439601E+01  0.24660365466E+02  0.32721792333E+02  0.40987728465E+02  0.51100000000E-03 0.  1.
         12    1    3    3    0    0 -0.94918298647E+01 -0.26550687206E+02 -0.27588595277E+02  0.39448249830E+02  0.00000000000E+00 0. -1.
</event>
<event>
 7    1  0.2084210E-015  0.9000818E+02  0.7816164E-02  0.1186338E+00
        -11   -1    0    0    0    0  0.00000000000E+00  0.00000000000E+00  0.45593999997E+02  0.45594000000E+02  0.51100000000E-03 0.  1.
         11   -1    0    0    0    0 -0.00000000000E+00 -0.00000000000E+00 -0.45593999997E+02  0.45594000000E+02  0.51100000000E-03 0. -1.
    9900012    2    1    2    0    0 -0.57088094912E+00  0.90894578122E-01  0.10284939369E+01  0.90008183633E+02  0.90000450855E+02 0.  0.
         12    1    1    2    0    0  0.57088094912E+00 -0.90894578122E-01 -0.10284939369E+01  0.11798163673E+01  0.00000000000E+00 0. -1.
         11    1    3    3    0    0  0.27640858453E+02 -0.70304663608E+01 -0.33538678799E+02  0.44025986521E+02  0.51100000000E-03 0. -1.
        -11    1    3    3    0    0 -0.53292022173E+01  0.41348444328E+01  0.46217581362E+01  0.81766731185E+01  0.51100000000E-03 0.  1.
        -12    1    3    3    0    0 -0.22882537185E+02  0.29865165061E+01  0.29945414600E+02  0.37805523993E+02  0.00000000000E+00 0.  1.
</event>
<event>
 7    1  0.2084210E-015  0.9000773E+02  0.7816164E-02  0.1186339E+00
        -11   -1    0    0    0    0  0.00000000000E+00  0.00000000000E+00  0.45593999997E+02  0.45594000000E+02  0.51100000000E-03 0.  1.
         11   -1    0    0    0    0 -0.00000000000E+00 -0.00000000000E+00 -0.45593999997E+02  0.45594000000E+02  0.51100000000E-03 0. -1.
    9900012    2    1    2    0    0 -0.71482936900E+00 -0.84886054683E+00  0.40185256494E+00  0.90007732768E+02  0.89999994041E+02 0.  0.
         12    1    1    2    0    0  0.71482936900E+00  0.84886054683E+00 -0.40185256494E+00  0.11802672319E+01  0.00000000000E+00 0. -1.
         11    1    3    3    0    0 -0.13399001455E+02  0.40355549670E+02 -0.18740496998E+01  0.42563078973E+02  0.51100000000E-03 0. -1.
        -11    1    3    3    0    0  0.46559832309E+01 -0.40458143781E+01  0.67762956609E+01  0.91632405279E+01  0.51100000000E-03 0.  1.
        -12    1    3    3    0    0  0.80281888556E+01 -0.37158595838E+02 -0.45003933961E+01  0.38281413267E+02  0.00000000000E+00 0.  1.
</event>
<event>
 7    1  0.2084210E-015  0.9000772E+02  0.7816164E-02  0.1186339E+00
        -11   -1    0    0    0    0  0.00000000000E+00  0.00000000000E+00  0.45593999997E+02  0.45594000000E+02  0.51100000000E-03 0.  1.
         11   -1    0    0    0    0 -0.00000000000E+00 -0.00000000000E+00 -0.45593999997E+02  0.45594000000E+02  0.51100000000E-03 0. -1.
    9900012    2    1    2    0    0 -0.61788033908E+00  0.10054873979E+01  0.16729423209E-01  0.90007719993E+02  0.89999981097E+02 0.  0.
         12    1    1    2    0    0  0.61788033908E+00 -0.10054873979E+01 -0.16729423209E-01  0.11802800068E+01  0.00000000000E+00 0. -1.
         11    1    3    3    0    0  0.80820199457E+00  0.56688869337E+01  0.44224819695E+01  0.72351790967E+01  0.51100000000E-03 0. -1.
        -11    1    3    3    0    0 -0.36434626235E+02 -0.81546194569E+01  0.17598629644E+02  0.41275798877E+02  0.51100000000E-03 0.  1.
         12    1    3    3    0    0  0.35008543901E+02  0.34912199211E+01 -0.22004382191E+02  0.41496742019E+02  0.00000000000E+00 0. -1.
</event>
<event>
 7    1  0.2084210E-015  0.9000729E+02  0.7816164E-02  0.1186340E+00
        -11   -1    0    0    0    0  0.00000000000E+00  0.00000000000E+00  0.45593999997E+02  0.45594000000E+02  0.51100000000E-03 0.  1.
         11   -1    0    0    0    0 -0.00000000000E+00 -0.00000000000E+00 -0.45593999997E+02  0.45594000000E+02  0.51100000000E-03 0. -1.
    9900012    2    1    2    0    0  0.29874286144E+00 -0.10824567505E+01  0.36484371653E+00  0.90007292224E+02  0.89999547681E+02 0.  0.
         12    1    1    2    0    0 -0.29874286144E+00  0.10824567505E+01 -0.36484371653E+00  0.11807077756E+01  0.00000000000E+00 0. -1.
         11    1    3    3    0    0 -0.24068057434E+01  0.77644523938E+01  0.53065171210E+01  0.97076546642E+01  0.51100000000E-03 0. -1.
        -11    1    3    3    0    0  0.38720111896E+02  0.63413797957E+01 -0.10995127033E+02  0.40747429142E+02  0.51100000000E-03 0.  1.
         12    1    3    3    0    0 -0.36014563291E+02 -0.15188288940E+02  0.60534536288E+01  0.39552208418E+02  0.00000000000E+00 0. -1.
</event>
<event>
 7    1  0.2084210E-015  0.9000778E+02  0.7816164E-02  0.1186339E+00
        -11   -1    0    0    0    0  0.00000000000E+00  0.00000000000E+00  0.45593999997E+02  0.45594000000E+02  0.51100000000E-03 0. -1.
         11   -1    0    0    0    0 -0.00000000000E+00 -0.00000000000E+00 -0.45593999997E+02  0.45594000000E+02  0.51100000000E-03 0.  1.
    9900012    2    1    2    0    0  0.26267264144E+00 -0.28484061134E+00 -0.11148013928E+01  0.90007782547E+02  0.90000044477E+02 0.  0.
         12    1    1    2    0    0 -0.26267264144E+00  0.28484061134E+00  0.11148013928E+01  0.11802174527E+01  0.00000000000E+00 0. -1.
         11    1    3    3    0    0 -0.54882445740E+01  0.37522604162E+01  0.66349913833E+01  0.93927311072E+01  0.51100000000E-03 0. -1.
        -11    1    3    3    0    0  0.17374952761E+01 -0.25353285571E+02  0.28616331083E+02  0.38271430389E+02  0.51100000000E-03 0.  1.
         12    1    3    3    0    0  0.40134219393E+01  0.21316184544E+02 -0.36366123859E+02  0.42343621051E+02  0.00000000000E+00 0. -1.
</event>
<event>
 7    1  0.2084210E-015  0.9000769E+02  0.7816164E-02  0.1186339E+00
        -11   -1    0    0    0    0  0.00000000000E+00  0.00000000000E+00  0.45593999997E+02  0.45594000000E+02  0.51100000000E-03 0. -1.
         11   -1    0    0    0    0 -0.00000000000E+00 -0.00000000000E+00 -0.45593999997E+02  0.45594000000E+02  0.51100000000E-03 0.  1.
    9900012    2    1    2    0    0  0.64890863843E+00 -0.84978694261E+00 -0.49990585182E+00  0.90007692358E+02  0.89999953097E+02 0.  0.
         12    1    1    2    0    0 -0.64890863843E+00  0.84978694261E+00  0.49990585182E+00  0.11803076419E+01  0.00000000000E+00 0. -1.
         11    1    3    3    0    0  0.26724863340E+02  0.26431445893E+02 -0.12576098928E+02  0.39635816089E+02  0.51100000000E-03 0. -1.
        -11    1    3    3    0    0  0.16506667685E+01  0.51648903656E+01  0.44546831266E+01  0.70174778438E+01  0.51100000000E-03 0.  1.
        -12    1    3    3    0    0 -0.27726621470E+02 -0.32446123201E+02  0.76215099498E+01  0.43354398425E+02  0.00000000000E+00 0.  1.
</event>
<event>
 7    1  0.2084210E-015  0.9000788E+02  0.7816164E-02  0.1186339E+00
        -11   -1    0    0    0    0  0.00000000000E+00  0.00000000000E+00  0.45593999997E+02  0.45594000000E+02  0.51100000000E-03 0.  1.
         11   -1    0    0    0    0 -0.00000000000E+00 -0.00000000000E+00 -0.45593999997E+02  0.45594000000E+02  0.51100000000E-03 0. -1.
    9900012    2    1    2    0    0  0.77912606484E+00 -0.52574609958E+00  0.71361265805E+00  0.90007877374E+02  0.90000140555E+02 0.  0.
         12    1    1    2    0    0 -0.77912606484E+00  0.52574609958E+00 -0.71361265805E+00  0.11801226258E+01  0.00000000000E+00 0. -1.
         11    1    3    3    0    0 -0.89052386260E+01  0.13211443673E+02  0.67687908993E+00  0.15946902034E+02  0.51100000000E-03 0. -1.
        -11    1    3    3    0    0 -0.26180227107E+02  0.11422318696E+02 -0.76779328990E+01  0.29577429057E+02  0.51100000000E-03 0.  1.
         12    1    3    3    0    0  0.35864591798E+02 -0.25159508469E+02  0.77146664671E+01  0.44483546283E+02  0.00000000000E+00 0. -1.
</event>
<event>
 7    1  0.2084210E-015  0.9000716E+02  0.7816164E-02  0.1186340E+00
        -11   -1    0    0    0    0  0.00000000000E+00  0.00000000000E+00  0.45593999997E+02  0.45594000000E+02  0.51100000000E-03 0. -1.
         11   -1    0    0    0    0 -0.00000000000E+00 -0.00000000000E+00 -0.45593999997E+02  0.45594000000E+02  0.51100000000E-03 0.  1.
    9900012    2    1    2    0    0 -0.12573450319E+00 -0.34935498073E-01 -0.11736119395E+01  0.90007155117E+02  0.89999408762E+02 0.  0.
         12    1    1    2    0    0  0.12573450319E+00  0.34935498073E-01  0.11736119395E+01  0.11808448835E+01  0.00000000000E+00 0. -1.
         11    1    3    3    0    0  0.73236779322E+01 -0.44535272708E+01 -0.46965783253E+01  0.97738432478E+01  0.51100000000E-03 0. -1.
        -11    1    3    3    0    0 -0.23982305046E+02 -0.64715889905E+01 -0.31431343638E+02  0.40061974271E+02  0.51100000000E-03 0.  1.
         12    1    3    3    0    0  0.16532892610E+02  0.10890180763E+02  0.34954310024E+02  0.40171337597E+02  0.00000000000E+00 0. -1.
</event>
<event>
 7    1  0.2084210E-015  0.9000768E+02  0.7816164E-02  0.1186339E+00
        -11   -1    0    0    0    0  0.00000000000E+00  0.00000000000E+00  0.45593999997E+02  0.45594000000E+02  0.51100000000E-03 0. -1.
         11   -1    0    0    0    0 -0.00000000000E+00 -0.00000000000E+00 -0.45593999997E+02  0.45594000000E+02  0.51100000000E-03 0.  1.
    9900012    2    1    2    0    0  0.10755729825E+01 -0.22970386659E+00  0.42841905747E+00  0.90007676317E+02  0.89999936845E+02 0.  0.
         12    1    1    2    0    0 -0.10755729825E+01  0.22970386659E+00 -0.42841905747E+00  0.11803236826E+01  0.00000000000E+00 0. -1.
         11    1    3    3    0    0  0.47908902075E+01 -0.24205935309E+02  0.24425559582E+02  0.34720136727E+02  0.51100000000E-03 0. -1.
        -11    1    3    3    0    0  0.21804880425E+01 -0.95277701676E+01  0.46404000284E+01  0.10819715576E+02  0.51100000000E-03 0.  1.
        -12    1    3    3    0    0 -0.58958052674E+01  0.33504001610E+02 -0.28637540553E+02  0.44467824014E+02  0.00000000000E+00 0.  1.
</event>
<event>
 7    1  0.2084210E-015  0.9000774E+02  0.7816164E-02  0.1186339E+00
        -11   -1    0    0    0    0  0.00000000000E+00  0.00000000000E+00  0.45593999997E+02  0.45594000000E+02  0.51100000000E-03 0.  1.
         11   -1    0    0    0    0 -0.00000000000E+00 -0.00000000000E+00 -0.45593999997E+02  0.45594000000E+02  0.51100000000E-03 0. -1.
    9900012    2    1    2    0    0  0.94467824005E+00  0.27561178312E+00  0.65163583501E+00  0.90007742361E+02  0.90000003760E+02 0.  0.
         12    1    1    2    0    0 -0.94467824005E+00 -0.27561178312E+00 -0.65163583501E+00  0.11802576387E+01  0.00000000000E+00 0. -1.
         11    1    3    3    0    0 -0.86196163672E+01 -0.56554767312E+01 -0.73682906186E+01  0.12671776130E+02  0.51100000000E-03 0. -1.
        -11    1    3    3    0    0 -0.17430058896E+02  0.30415640045E+02  0.18196850597E+02  0.39497385792E+02  0.51100000000E-03 0.  1.
         12    1    3    3    0    0  0.26994353503E+02 -0.24484551531E+02 -0.10176924143E+02  0.37838580440E+02  0.00000000000E+00 0. -1.
</event>
<event>
 7    1  0.2084210E-015  0.9000776E+02  0.7816164E-02  0.1186339E+00
        -11   -1    0    0    0    0  0.00000000000E+00  0.00000000000E+00  0.45593999997E+02  0.45594000000E+02  0.51100000000E-03 0.  1.
         11   -1    0    0    0    0 -0.00000000000E+00 -0.00000000000E+00 -0.45593999997E+02  0.45594000000E+02  0.51100000000E-03 0. -1.
    9900012    2    1    2    0    0 -0.11084239657E+01  0.35769618324E+00  0.19081652191E+00  0.90007762231E+02  0.90000023892E+02 0.  0.
         12    1    1    2    0    0  0.11084239657E+01 -0.35769618324E+00 -0.19081652191E+00  0.11802377694E+01  0.00000000000E+00 0. -1.
         11    1    3    3    0    0  0.69647676814E+01 -0.52985327950E+01 -0.34283771128E+02  0.35383038333E+02  0.51100000000E-03 0. -1.
        -11    1    3    3    0    0  0.14753942568E+01  0.31047170565E+00 -0.93416943030E+01  0.94625807053E+01  0.51100000000E-03 0.  1.
        -12    1    3    3    0    0 -0.95485859039E+01  0.53457572726E+01  0.43816281953E+02  0.45162143193E+02  0.00000000000E+00 0.  1.
</event>
<event>
 7    1  0.2084210E-015  0.9000773E+02  0.7816164E-02  0.1186339E+00
        -11   -1    0    0    0    0  0.00000000000E+00  0.00000000000E+00  0.45593999997E+02  0.45594000000E+02  0.51100000000E-03 0. -1.
         11   -1    0    0    0    0 -0.00000000000E+00 -0.00000000000E+00 -0.45593999997E+02  0.45594000000E+02  0.51100000000E-03 0.  1.
    9900012    2    1    2    0    0  0.20885238612E+00  0.76583079261E+00 -0.87345118426E+00  0.90007731771E+02  0.89999993030E+02 0.  0.
         12    1    1    2    0    0 -0.20885238612E+00 -0.76583079261E+00  0.87345118426E+00  0.11802682294E+01  0.00000000000E+00 0. -1.
         11    1    3    3    0    0 -0.72084561625E+00  0.68747158260E+01  0.67469159276E+01  0.96593069568E+01  0.51100000000E-03 0. -1.
        -11    1    3    3    0    0  0.27161117059E+02 -0.14107972189E+02  0.23706461047E+02  0.38713788949E+02  0.51100000000E-03 0.  1.
         12    1    3    3    0    0 -0.26231419057E+02  0.79990871555E+01 -0.31326828159E+02  0.41634635864E+02  0.00000000000E+00 0. -1.
</event>
<event>
 7    1  0.2084210E-015  0.9000775E+02  0.7816164E-02  0.1186339E+00
        -11   -1    0    0    0    0  0.00000000000E+00  0.00000000000E+00  0.45593999997E+02  0.45594000000E+02  0.51100000000E-03 0. -1.
         11   -1    0    0    0    0 -0.00000000000E+00 -0.00000000000E+00 -0.45593999997E+02  0.45594000000E+02  0.51100000000E-03 0.  1.
    9900012    2    1    2    0    0 -0.44325953369E-01  0.91111323077E+00 -0.74893871105E+00  0.90007745238E+02  0.90000006676E+02 0.  0.
         12    1    1    2    0    0  0.44325953369E-01 -0.91111323077E+00  0.74893871105E+00  0.11802547616E+01  0.00000000000E+00 0. -1.
         11    1    3    3    0    0 -0.75019876081E+01 -0.78546743870E+00  0.23763099565E+01  0.79084528474E+01  0.51100000000E-03 0. -1.
        -11    1    3    3    0    0  0.37634057882E+02 -0.34682839882E+01 -0.24248871715E+02  0.44903887206E+02  0.51100000000E-03 0.  1.
         12    1    3    3    0    0 -0.30176396228E+02  0.51648646576E+01  0.21123623047E+02  0.37195405185E+02  0.00000000000E+00 0. -1.
</event>
<event>
 7    1  0.4108612E-015  0.9000771E+02  0.7816164E-02  0.1186339E+00
        -11   -1    0    0    0    0  0.00000000000E+00  0.00000000000E+00  0.45593999997E+02  0.45594000000E+02  0.51100000000E-03 0. -1.
         11   -1    0    0    0    0 -0.00000000000E+00 -0.00000000000E+00 -0.45593999997E+02  0.45594000000E+02  0.51100000000E-03 0.  1.
    9900012    2    1    2    0    0  0.12885040062E+00  0.50359491177E+00 -0.10596543512E+01  0.90007712914E+02  0.89999973925E+02 0.  0.
         12    1    1    2    0    0 -0.12885040062E+00 -0.50359491177E+00  0.10596543512E+01  0.11802870858E+01  0.00000000000E+00 0. -1.
         11    1    3    3    0    0 -0.24754416339E+02  0.14584033195E+02  0.28728683907E+02  0.40630191137E+02  0.51100000000E-03 0. -1.
        -11    1    3    3    0    0  0.58770470735E+01 -0.64979651919E+01  0.41910823854E+01  0.97122811822E+01  0.51100000000E-03 0.  1.
        -12    1    3    3    0    0  0.19006219666E+02 -0.75824730916E+01 -0.33979420644E+02  0.39665240595E+02  0.00000000000E+00 0.  1.
</event>
<event>
 7    1  0.2084210E-015  0.9000770E+02  0.7816164E-02  0.1186339E+00
        -11   -1    0    0    0    0  0.00000000000E+00  0.00000000000E+00  0.45593999997E+02  0.45594000000E+02  0.51100000000E-03 0.  1.
         11   -1    0    0    0    0 -0.00000000000E+00 -0.00000000000E+00 -0.45593999997E+02  0.45594000000E+02  0.51100000000E-03 0. -1.
    9900012    2    1    2    0    0 -0.79590294436E+00  0.52315843996E+00  0.69710762994E+00  0.90007696947E+02  0.89999957746E+02 0.  0.
         12    1    1    2    0    0  0.79590294436E+00 -0.52315843996E+00 -0.69710762994E+00  0.11803030534E+01  0.00000000000E+00 0. -1.
         11    1    3    3    0    0 -0.10584494446E+02 -0.45673573168E+01  0.82476654128E+01  0.14174493309E+02  0.51100000000E-03 0. -1.
        -11    1    3    3    0    0  0.32457621658E+02 -0.22487049778E+02 -0.75588858823E+00  0.39493492872E+02  0.51100000000E-03 0.  1.
         12    1    3    3    0    0 -0.22669030156E+02  0.27577565535E+02 -0.67946691946E+01  0.36339710766E+02  0.00000000000E+00 0. -1.
</event>
<event>
 7    1  0.2084210E-015  0.9000772E+02  0.7816164E-02  0.1186339E+00
        -11   -1    0    0    0    0  0.00000000000E+00  0.00000000000E+00  0.45593999997E+02  0.45594000000E+02  0.51100000000E-03 0.  1.
         11   -1    0    0    0    0 -0.00000000000E+00 -0.00000000000E+00 -0.45593999997E+02  0.45594000000E+02  0.51100000000E-03 0. -1.
    9900012    2    1    2    0    0  0.10320371661E+01  0.45272176058E+00  0.35072884380E+00  0.90007716802E+02  0.89999977864E+02 0.  0.
         12    1    1    2    0    0 -0.10320371661E+01 -0.45272176058E+00 -0.35072884380E+00  0.11802831976E+01  0.00000000000E+00 0. -1.
         11    1    3    3    0    0  0.34017678176E+01 -0.36883591521E+01  0.76146062342E+01  0.91191143146E+01  0.51100000000E-03 0. -1.
        -11    1    3    3    0    0  0.26435395471E+02 -0.13252869433E+02  0.21548084714E+02  0.36589460737E+02  0.51100000000E-03 0.  1.
         12    1    3    3    0    0 -0.28805126122E+02  0.17393950346E+02 -0.28811962105E+02  0.44299141751E+02  0.00000000000E+00 0. -1.
</event>
<event>
 7    1  0.2084210E-015  0.9000776E+02  0.7816164E-02  0.1186339E+00
        -11   -1    0    0    0    0  0.00000000000E+00  0.00000000000E+00  0.45593999997E+02  0.45594000000E+02  0.51100000000E-03 0. -1.
         11   -1    0    0    0    0 -0.00000000000E+00 -0.00000000000E+00 -0.45593999997E+02  0.45594000000E+02  0.51100000000E-03 0.  1.
    9900012    2    1    2    0    0 -0.68353586768E+00  0.79182114217E+00 -0.54660268941E+00  0.90007755744E+02  0.90000017320E+02 0.  0.
         12    1    1    2    0    0  0.68353586768E+00 -0.79182114217E+00  0.54660268941E+00  0.11802442559E+01  0.00000000000E+00 0. -1.
         11    1    3    3    0    0 -0.35204126840E+01 -0.44475327238E+01 -0.82796163820E+01  0.10036229396E+02  0.51100000000E-03 0. -1.
        -11    1    3    3    0    0  0.13382600237E+02  0.30213369823E+02 -0.22028618306E+02  0.39713999168E+02  0.51100000000E-03 0.  1.
         12    1    3    3    0    0 -0.10545723420E+02 -0.24974015957E+02  0.29761631998E+02  0.40257527180E+02  0.00000000000E+00 0. -1.
</event>
<event>
 7    1  0.2134086E-015  0.9000776E+02  0.7816164E-02  0.1186339E+00
        -11   -1    0    0    0    0  0.00000000000E+00  0.00000000000E+00  0.45593999997E+02  0.45594000000E+02  0.51100000000E-03 0.  1.
         11   -1    0    0    0    0 -0.00000000000E+00 -0.00000000000E+00 -0.45593999997E+02  0.45594000000E+02  0.51100000000E-03 0. -1.
    9900012    2    1    2    0    0 -0.11243689617E+01 -0.23596246411E+00 -0.27033189901E+00  0.90007761388E+02  0.90000023038E+02 0.  0.
         12    1    1    2    0    0  0.11243689617E+01  0.23596246411E+00  0.27033189901E+00  0.11802386124E+01  0.00000000000E+00 0. -1.
         11    1    3    3    0    0 -0.34669208841E+02 -0.26875888864E+01 -0.14527390013E+02  0.37685836020E+02  0.51100000000E-03 0. -1.
        -11    1    3    3    0    0 -0.82269494234E+01  0.32148521885E+00  0.44605873535E+01  0.93639142115E+01  0.51100000000E-03 0.  1.
        -12    1    3    3    0    0  0.41771789303E+02  0.21301412034E+01  0.97964707603E+01  0.42958011156E+02  0.00000000000E+00 0.  1.
</event>
<event>
 7    1  0.2084210E-015  0.9000772E+02  0.7816164E-02  0.1186339E+00
        -11   -1    0    0    0    0  0.00000000000E+00  0.00000000000E+00  0.45593999997E+02  0.45594000000E+02  0.51100000000E-03 0. -1.
         11   -1    0    0    0    0 -0.00000000000E+00 -0.00000000000E+00 -0.45593999997E+02  0.45594000000E+02  0.51100000000E-03 0.  1.
    9900012    2    1    2    0    0  0.70483341134E+00  0.94099322913E+00 -0.10394995590E+00  0.90007718683E+02  0.89999979769E+02 0.  0.
         12    1    1    2    0    0 -0.70483341134E+00 -0.94099322913E+00  0.10394995590E+00  0.11802813175E+01  0.00000000000E+00 0. -1.
         11    1    3    3    0    0 -0.92890418372E+01  0.13179966460E+01  0.65893077063E+00  0.94051902391E+01  0.51100000000E-03 0. -1.
        -11    1    3    3    0    0  0.20482941908E+02  0.37624671275E+01 -0.37105736677E+02  0.42550473119E+02  0.51100000000E-03 0.  1.
         12    1    3    3    0    0 -0.10489066660E+02 -0.41394705443E+01  0.36342855950E+02  0.38052055324E+02  0.00000000000E+00 0. -1.
</event>
<event>
 7    1  0.2084210E-015  0.9000753E+02  0.7816164E-02  0.1186339E+00
        -11   -1    0    0    0    0  0.00000000000E+00  0.00000000000E+00  0.45593999997E+02  0.45594000000E+02  0.51100000000E-03 0.  1.
         11   -1    0    0    0    0 -0.00000000000E+00 -0.00000000000E+00 -0.45593999997E+02  0.45594000000E+02  0.51100000000E-03 0. -1.
    9900012    2    1    2    0    0  0.74002370713E+00  0.91970128853E+00 -0.42945261638E-02  0.90007532300E+02  0.89999790926E+02 0.  0.
         12    1    1    2    0    0 -0.74002370713E+00 -0.91970128853E+00  0.42945261638E-02  0.11804676998E+01  0.00000000000E+00 0. -1.
         11    1    3    3    0    0 -0.14632374170E+02 -0.58503900707E+01 -0.36722921501E+02  0.39961311310E+02  0.51100000000E-03 0. -1.
        -11    1    3    3    0    0 -0.25875062258E+01  0.88817118948E+01  0.15175888578E+00  0.92521903175E+01  0.51100000000E-03 0.  1.
        -12    1    3    3    0    0  0.17959904103E+02 -0.21116205355E+01  0.36566868089E+02  0.40794030672E+02  0.00000000000E+00 0.  1.
</event>
<event>
 7    1  0.2084210E-015  0.9000766E+02  0.7816164E-02  0.1186339E+00
        -11   -1    0    0    0    0  0.00000000000E+00  0.00000000000E+00  0.45593999997E+02  0.45594000000E+02  0.51100000000E-03 0.  1.
         11   -1    0    0    0    0 -0.00000000000E+00 -0.00000000000E+00 -0.45593999997E+02  0.45594000000E+02  0.51100000000E-03 0. -1.
    9900012    2    1    2    0    0  0.94115443488E+00  0.46952193631E+00  0.53571126458E+00  0.90007657220E+02  0.89999917495E+02 0.  0.
         12    1    1    2    0    0 -0.94115443488E+00 -0.46952193631E+00 -0.53571126458E+00  0.11803427799E+01  0.00000000000E+00 0. -1.
         11    1    3    3    0    0 -0.12234991146E+02  0.22212298477E+02 -0.25279720835E+02  0.35807059328E+02  0.51100000000E-03 0. -1.
        -11    1    3    3    0    0  0.43346729676E+00  0.78787937259E+01 -0.52075643793E+01  0.94542060216E+01  0.51100000000E-03 0.  1.
        -12    1    3    3    0    0  0.12742678284E+02 -0.29621570266E+02  0.31022996479E+02  0.44746391870E+02  0.00000000000E+00 0.  1.
</event>
<event>
 7    1  0.2084210E-015  0.9000771E+02  0.7816164E-02  0.1186339E+00
        -11   -1    0    0    0    0  0.00000000000E+00  0.00000000000E+00  0.45593999997E+02  0.45594000000E+02  0.51100000000E-03 0.  1.
         11   -1    0    0    0    0 -0.00000000000E+00 -0.00000000000E+00 -0.45593999997E+02  0.45594000000E+02  0.51100000000E-03 0. -1.
    9900012    2    1    2    0    0 -0.44409185906E+00  0.57429639545E+00  0.93061381029E+00  0.90007713597E+02  0.89999974617E+02 0.  0.
         12    1    1    2    0    0  0.44409185906E+00 -0.57429639545E+00 -0.93061381029E+00  0.11802864030E+01  0.00000000000E+00 0. -1.
         11    1    3    3    0    0 -0.22322727420E+01 -0.16248245043E+02 -0.29930410358E+01  0.16671736667E+02  0.51100000000E-03 0. -1.
        -11    1    3    3    0    0  0.67714947727E+00  0.46730593073E+00 -0.32961672930E+02  0.32971939416E+02  0.51100000000E-03 0.  1.
        -12    1    3    3    0    0  0.11110314057E+01  0.16355235508E+02  0.36885327776E+02  0.40364037514E+02  0.00000000000E+00 0.  1.
</event>
<event>
 7    1  0.2084210E-015  0.9000769E+02  0.7816164E-02  0.1186339E+00
        -11   -1    0    0    0    0  0.00000000000E+00  0.00000000000E+00  0.45593999997E+02  0.45594000000E+02  0.51100000000E-03 0.  1.
         11   -1    0    0    0    0 -0.00000000000E+00 -0.00000000000E+00 -0.45593999997E+02  0.45594000000E+02  0.51100000000E-03 0. -1.
    9900012    2    1    2    0    0 -0.90874600184E+00  0.34557495504E+00  0.66924644816E+00  0.90007689806E+02  0.89999950512E+02 0.  0.
         12    1    1    2    0    0  0.90874600184E+00 -0.34557495504E+00 -0.66924644816E+00  0.11803101939E+01  0.00000000000E+00 0. -1.
         11    1    3    3    0    0 -0.92324328230E+01  0.96727283491E+01  0.12168616629E+01  0.13426847810E+02  0.51100000000E-03 0. -1.
        -11    1    3    3    0    0 -0.17613285508E+02  0.26821573960E+02 -0.26283311396E+00  0.32088841325E+02  0.51100000000E-03 0.  1.
         12    1    3    3    0    0  0.25936972329E+02 -0.36148727354E+02 -0.28478210074E+00  0.44492000671E+02  0.00000000000E+00 0. -1.
</event>
<event>
 7    1  0.2084210E-015  0.9000780E+02  0.7816164E-02  0.1186339E+00
        -11   -1    0    0    0    0  0.00000000000E+00  0.00000000000E+00  0.45593999997E+02  0.45594000000E+02  0.51100000000E-03 0.  1.
         11   -1    0    0    0    0 -0.00000000000E+00 -0.00000000000E+00 -0.45593999997E+02  0.45594000000E+02  0.51100000000E-03 0. -1.
    9900012    2    1    2    0    0  0.51396971537E+00 -0.73934298630E+00  0.76294130932E+00  0.90007799864E+02  0.90000062022E+02 0.  0.
         12    1    1    2    0    0 -0.51396971537E+00  0.73934298630E+00 -0.76294130932E+00  0.11802001361E+01  0.00000000000E+00 0. -1.
         11    1    3    3    0    0  0.41307655625E+01 -0.76907807232E+01  0.59012963973E+01  0.10537392073E+02  0.51100000000E-03 0. -1.
        -11    1    3    3    0    0 -0.35719583259E+02 -0.10928757166E+02 -0.16743697807E+02  0.40935043397E+02  0.51100000000E-03 0.  1.
         12    1    3    3    0    0  0.32102787412E+02  0.17880194903E+02  0.11605342719E+02  0.38535364394E+02  0.00000000000E+00 0. -1.
</event>
<event>
 7    1  0.2084210E-015  0.9000779E+02  0.7816164E-02  0.1186339E+00
        -11   -1    0    0    0    0  0.00000000000E+00  0.00000000000E+00  0.45593999997E+02  0.45594000000E+02  0.51100000000E-03 0.  1.
         11   -1    0    0    0    0 -0.00000000000E+00 -0.00000000000E+00 -0.45593999997E+02  0.45594000000E+02  0.51100000000E-03 0. -1.
    9900012    2    1    2    0    0 -0.71632150856E+00 -0.71040333116E+00  0.61245163090E+00  0.90007793918E+02  0.90000055997E+02 0.  0.
         12    1    1    2    0    0  0.71632150856E+00  0.71040333116E+00 -0.61245163090E+00  0.11802060823E+01  0.00000000000E+00 0. -1.
         11    1    3    3    0    0 -0.41271324023E+01 -0.81226193603E+01 -0.39223954927E+01  0.99194432204E+01  0.51100000000E-03 0. -1.
        -11    1    3    3    0    0 -0.29374157402E+02 -0.21078501165E+02  0.58973249739E+01  0.36632264147E+02  0.51100000000E-03 0.  1.
         12    1    3    3    0    0  0.32784968296E+02  0.28490717194E+02 -0.13624778503E+01  0.43456086550E+02  0.00000000000E+00 0. -1.
</event>
<event>
 7    1  0.2084210E-015  0.9000776E+02  0.7816164E-02  0.1186339E+00
        -11   -1    0    0    0    0  0.00000000000E+00  0.00000000000E+00  0.45593999997E+02  0.45594000000E+02  0.51100000000E-03 0. -1.
         11   -1    0    0    0    0 -0.00000000000E+00 -0.00000000000E+00 -0.45593999997E+02  0.45594000000E+02  0.51100000000E-03 0.  1.
    9900012    2    1    2    0    0 -0.11168154461E+01 -0.37478349307E+00 -0.72341690688E-01  0.90007757344E+02  0.90000018941E+02 0.  0.
         12    1    1    2    0    0  0.11168154461E+01  0.37478349307E+00  0.72341690688E-01  0.11802426562E+01  0.00000000000E+00 0. -1.
         11    1    3    3    0    0 -0.36932077515E+02  0.59837564720E+01  0.45428631641E+01  0.37688476980E+02  0.51100000000E-03 0. -1.
        -11    1    3    3    0    0 -0.77525976121E+01  0.13428197994E+01 -0.92900627186E+00  0.79226881589E+01  0.51100000000E-03 0.  1.
        -12    1    3    3    0    0  0.43567859681E+02 -0.77013597644E+01 -0.36861985829E+01  0.44396592205E+02  0.00000000000E+00 0.  1.
</event>
<event>
 7    1  0.2084210E-015  0.9000772E+02  0.7816164E-02  0.1186339E+00
        -11   -1    0    0    0    0  0.00000000000E+00  0.00000000000E+00  0.45593999997E+02  0.45594000000E+02  0.51100000000E-03 0. -1.
         11   -1    0    0    0    0 -0.00000000000E+00 -0.00000000000E+00 -0.45593999997E+02  0.45594000000E+02  0.51100000000E-03 0.  1.
    9900012    2    1    2    0    0  0.23866356428E+00  0.11215484967E+01 -0.27968763765E+00  0.90007721854E+02  0.89999982982E+02 0.  0.
         12    1    1    2    0    0 -0.23866356428E+00 -0.11215484967E+01  0.27968763765E+00  0.11802781460E+01  0.00000000000E+00 0. -1.
         11    1    3    3    0    0  0.47523823263E+00  0.58806757293E+01 -0.15483079901E+02  0.16569066416E+02  0.51100000000E-03 0. -1.
        -11    1    3    3    0    0  0.25993566109E+02 -0.60389723980E+01 -0.17185641439E+02  0.31740840232E+02  0.51100000000E-03 0.  1.
         12    1    3    3    0    0 -0.26230140778E+02  0.12798451654E+01  0.32389033702E+02  0.41697815207E+02  0.00000000000E+00 0. -1.
</event>
<event>
 7    1  0.2084210E-015  0.9000774E+02  0.7816164E-02  0.1186339E+00
        -11   -1    0    0    0    0  0.00000000000E+00  0.00000000000E+00  0.45593999997E+02  0.45594000000E+02  0.51100000000E-03 0.  1.
         11   -1    0    0    0    0 -0.00000000000E+00 -0.00000000000E+00 -0.45593999997E+02  0.45594000000E+02  0.51100000000E-03 0. -1.
    9900012    2    1    2    0    0 -0.12995907364E+00 -0.47073243351E-02  0.11730766541E+01  0.90007737166E+02  0.89999998497E+02 0.  0.
         12    1    1    2    0    0  0.12995907364E+00  0.47073243351E-02 -0.11730766541E+01  0.11802628335E+01  0.00000000000E+00 0. -1.
         11    1    3    3    0    0 -0.13946038817E+02 -0.25657735028E+02 -0.28392690693E+02  0.40730286649E+02  0.51100000000E-03 0. -1.
        -11    1    3    3    0    0  0.84041436379E+01 -0.39202739320E+01  0.56330216145E+01  0.10850304639E+02  0.51100000000E-03 0.  1.
        -12    1    3    3    0    0  0.54119361057E+01  0.29573301636E+02  0.23932745733E+02  0.38427145878E+02  0.00000000000E+00 0.  1.
</event>
<event>
 7    1  0.2084210E-015  0.9000777E+02  0.7816164E-02  0.1186339E+00
        -11   -1    0    0    0    0  0.00000000000E+00  0.00000000000E+00  0.45593999997E+02  0.45594000000E+02  0.51100000000E-03 0.  1.
         11   -1    0    0    0    0 -0.00000000000E+00 -0.00000000000E+00 -0.45593999997E+02  0.45594000000E+02  0.51100000000E-03 0. -1.
    9900012    2    1    2    0    0  0.10640560235E+01  0.42010333093E+00 -0.29023516732E+00  0.90007771852E+02  0.90000033640E+02 0.  0.
         12    1    1    2    0    0 -0.10640560235E+01 -0.42010333093E+00  0.29023516732E+00  0.11802281484E+01  0.00000000000E+00 0. -1.
         11    1    3    3    0    0 -0.97009862561E+00 -0.74840338238E+01 -0.28222809410E+01  0.80571163322E+01  0.51100000000E-03 0. -1.
        -11    1    3    3    0    0  0.23278897253E+02  0.38297554859E+02  0.20746181604E+01  0.44865507979E+02  0.51100000000E-03 0.  1.
         12    1    3    3    0    0 -0.21244742604E+02 -0.30393417704E+02  0.45742761329E+00  0.37085147540E+02  0.00000000000E+00 0. -1.
</event>
<event>
 7    1  0.2084210E-015  0.9000777E+02  0.7816164E-02  0.1186339E+00
        -11   -1    0    0    0    0  0.00000000000E+00  0.00000000000E+00  0.45593999997E+02  0.45594000000E+02  0.51100000000E-03 0.  1.
         11   -1    0    0    0    0 -0.00000000000E+00 -0.00000000000E+00 -0.45593999997E+02  0.45594000000E+02  0.51100000000E-03 0. -1.
    9900012    2    1    2    0    0 -0.44172247263E+00  0.16702257866E+00  0.10816317192E+01  0.90007770166E+02  0.90000031932E+02 0.  0.
         12    1    1    2    0    0  0.44172247263E+00 -0.16702257866E+00 -0.10816317192E+01  0.11802298338E+01  0.00000000000E+00 0. -1.
         11    1    3    3    0    0  0.80396517935E+01 -0.20761927607E+02 -0.32036469490E+02  0.39013190290E+02  0.51100000000E-03 0. -1.
        -11    1    3    3    0    0 -0.78876615173E+01 -0.53703481021E+01  0.11758754456E+01  0.96144956328E+01  0.51100000000E-03 0.  1.
        -12    1    3    3    0    0 -0.59371274889E+00  0.26299298288E+02  0.31942225764E+02  0.41380084244E+02  0.00000000000E+00 0.  1.
</event>
<event>
 7    1  0.2084210E-015  0.9000776E+02  0.7816164E-02  0.1186339E+00
        -11   -1    0    0    0    0  0.00000000000E+00  0.00000000000E+00  0.45593999997E+02  0.45594000000E+02  0.51100000000E-03 0. -1.
         11   -1    0    0    0    0 -0.00000000000E+00 -0.00000000000E+00 -0.45593999997E+02  0.45594000000E+02  0.51100000000E-03 0.  1.
    9900012    2    1    2    0    0 -0.25835684422E+00  0.95175137742E+00 -0.64836528576E+00  0.90007764224E+02  0.90000025912E+02 0.  0.
         12    1    1    2    0    0  0.25835684422E+00 -0.95175137742E+00  0.64836528576E+00  0.11802357761E+01  0.00000000000E+00 0. -1.
         11    1    3    3    0    0  0.15440898331E+02  0.57523147117E+01  0.30633554774E+02  0.34783978268E+02  0.51100000000E-03 0. -1.
        -11    1    3    3    0    0  0.81944222526E+01  0.31346211475E+01  0.57165573489E+01  0.10471553561E+02  0.51100000000E-03 0.  1.
        -12    1    3    3    0    0 -0.23893677428E+02 -0.79351844818E+01 -0.36998477408E+02  0.44752232395E+02  0.00000000000E+00 0.  1.
</event>
<event>
 7    1  0.2084210E-015  0.9000772E+02  0.7816164E-02  0.1186339E+00
        -11   -1    0    0    0    0  0.00000000000E+00  0.00000000000E+00  0.45593999997E+02  0.45594000000E+02  0.51100000000E-03 0. -1.
         11   -1    0    0    0    0 -0.00000000000E+00 -0.00000000000E+00 -0.45593999997E+02  0.45594000000E+02  0.51100000000E-03 0.  1.
    9900012    2    1    2    0    0 -0.11438250337E+01  0.10773118505E+00 -0.27038870049E+00  0.90007723861E+02  0.89999985016E+02 0.  0.
         12    1    1    2    0    0  0.11438250337E+01 -0.10773118505E+00  0.27038870049E+00  0.11802761395E+01  0.00000000000E+00 0. -1.
         11    1    3    3    0    0 -0.63585492202E+01 -0.60156133225E+01  0.11485664741E+01  0.88282476765E+01  0.51100000000E-03 0. -1.
        -11    1    3    3    0    0 -0.26120983451E+01  0.26416361287E+02 -0.33300137510E+02  0.42585753015E+02  0.51100000000E-03 0.  1.
         12    1    3    3    0    0  0.78268225316E+01 -0.20293016780E+02  0.31881182335E+02  0.38593723169E+02  0.00000000000E+00 0. -1.
</event>
<event>
 7    1  0.2084210E-015  0.9000775E+02  0.7816164E-02  0.1186339E+00
        -11   -1    0    0    0    0  0.00000000000E+00  0.00000000000E+00  0.45593999997E+02  0.45594000000E+02  0.51100000000E-03 0.  1.
         11   -1    0    0    0    0 -0.00000000000E+00 -0.00000000000E+00 -0.45593999997E+02  0.45594000000E+02  0.51100000000E-03 0. -1.
    9900012    2    1    2    0    0  0.91917376958E-01 -0.43174563227E+00  0.10945941163E+01  0.90007750291E+02  0.90000011795E+02 0.  0.
         12    1    1    2    0    0 -0.91917376958E-01  0.43174563227E+00 -0.10945941163E+01  0.11802497086E+01  0.00000000000E+00 0. -1.
         11    1    3    3    0    0 -0.27518437100E+02  0.11524934611E+01 -0.20909301090E+02  0.34580218247E+02  0.51100000000E-03 0. -1.
        -11    1    3    3    0    0 -0.65365520752E+01 -0.19486340384E+01 -0.76151350627E+01  0.10223207419E+02  0.51100000000E-03 0.  1.
        -12    1    3    3    0    0  0.34146906553E+02  0.36439494510E+00  0.29619030269E+02  0.45204324626E+02  0.00000000000E+00 0.  1.
</event>
<event>
 7    1  0.2084210E-015  0.9000772E+02  0.7816164E-02  0.1186339E+00
        -11   -1    0    0    0    0  0.00000000000E+00  0.00000000000E+00  0.45593999997E+02  0.45594000000E+02  0.51100000000E-03 0.  1.
         11   -1    0    0    0    0 -0.00000000000E+00 -0.00000000000E+00 -0.45593999997E+02  0.45594000000E+02  0.51100000000E-03 0. -1.
    9900012    2    1    2    0    0  0.86890628062E+00  0.78562090880E+00 -0.14441824400E+00  0.90007722505E+02  0.89999983642E+02 0.  0.
         12    1    1    2    0    0 -0.86890628062E+00 -0.78562090880E+00  0.14441824400E+00  0.11802774954E+01  0.00000000000E+00 0. -1.
         11    1    3    3    0    0  0.36766459576E+01  0.17846272595E+02 -0.37989927182E+02  0.42133617678E+02  0.51100000000E-03 0. -1.
        -11    1    3    3    0    0  0.53346131652E+01 -0.77651029455E+01  0.15691690819E+01  0.95507702959E+01  0.51100000000E-03 0.  1.
        -12    1    3    3    0    0 -0.81423528421E+01 -0.92955487412E+01  0.36276339856E+02  0.38323334531E+02  0.00000000000E+00 0.  1.
</event>
<event>
 7    1  0.2084210E-015  0.9000772E+02  0.7816164E-02  0.1186339E+00
        -11   -1    0    0    0    0  0.00000000000E+00  0.00000000000E+00  0.45593999997E+02  0.45594000000E+02  0.51100000000E-03 0.  1.
         11   -1    0    0    0    0 -0.00000000000E+00 -0.00000000000E+00 -0.45593999997E+02  0.45594000000E+02  0.51100000000E-03 0. -1.
    9900012    2    1    2    0    0  0.71766954913E+00 -0.27387795586E+00  0.89610765929E+00  0.90007717130E+02  0.89999978196E+02 0.  0.
         12    1    1    2    0    0 -0.71766954913E+00  0.27387795586E+00 -0.89610765929E+00  0.11802828701E+01  0.00000000000E+00 0. -1.
         11    1    3    3    0    0  0.43001630147E+01  0.80397210674E+01  0.11273573999E+01  0.91869174244E+01  0.51100000000E-03 0. -1.
        -11    1    3    3    0    0  0.30499242652E+02  0.27303646301E+01  0.22846405681E+02  0.38204933532E+02  0.51100000000E-03 0.  1.
         12    1    3    3    0    0 -0.34081736118E+02 -0.11043963653E+02 -0.23077655421E+02  0.42615866174E+02  0.00000000000E+00 0. -1.
</event>
<event>
 7    1  0.2084210E-015  0.9000759E+02  0.7816164E-02  0.1186339E+00
        -11   -1    0    0    0    0  0.00000000000E+00  0.00000000000E+00  0.45593999997E+02  0.45594000000E+02  0.51100000000E-03 0.  1.
         11   -1    0    0    0    0 -0.00000000000E+00 -0.00000000000E+00 -0.45593999997E+02  0.45594000000E+02  0.51100000000E-03 0. -1.
    9900012    2    1    2    0    0 -0.62443381876E+00  0.65791245580E-01  0.99956115368E+00  0.90007589655E+02  0.89999849039E+02 0.  0.
         12    1    1    2    0    0  0.62443381876E+00 -0.65791245580E-01 -0.99956115368E+00  0.11804103447E+01  0.00000000000E+00 0. -1.
         11    1    3    3    0    0 -0.12234905626E+01  0.96133651912E+01  0.43162540055E+00  0.97005164915E+01  0.51100000000E-03 0. -1.
        -11    1    3    3    0    0 -0.23115226782E+02  0.27140769299E+02  0.64456129258E+01  0.36228179551E+02  0.51100000000E-03 0.  1.
         12    1    3    3    0    0  0.23714283526E+02 -0.36688343245E+02 -0.58776771727E+01  0.44078893613E+02  0.00000000000E+00 0. -1.
</event>
<event>
 7    1  0.2084210E-015  0.9000777E+02  0.7816164E-02  0.1186339E+00
        -11   -1    0    0    0    0  0.00000000000E+00  0.00000000000E+00  0.45593999997E+02  0.45594000000E+02  0.51100000000E-03 0.  1.
         11   -1    0    0    0    0 -0.00000000000E+00 -0.00000000000E+00 -0.45593999997E+02  0.45594000000E+02  0.51100000000E-03 0. -1.
    9900012    2    1    2    0    0  0.10592618531E+01 -0.44391451751E+00  0.27174194115E+00  0.90007771440E+02  0.90000033223E+02 0.  0.
         12    1    1    2    0    0 -0.10592618531E+01  0.44391451751E+00 -0.27174194115E+00  0.11802285604E+01  0.00000000000E+00 0. -1.
         11    1    3    3    0    0  0.15975958876E+01 -0.44215140989E+01  0.52867058899E+01  0.70746985076E+01  0.51100000000E-03 0. -1.
        -11    1    3    3    0    0 -0.39709984972E+02 -0.94617778892E+01 -0.72471652856E+01  0.41459975305E+02  0.51100000000E-03 0.  1.
         12    1    3    3    0    0  0.39171650938E+02  0.13439377471E+02  0.22322013369E+01  0.41473097627E+02  0.00000000000E+00 0. -1.
</event>
<event>
 7    1  0.2084210E-015  0.9000770E+02  0.7816164E-02  0.1186339E+00
        -11   -1    0    0    0    0  0.00000000000E+00  0.00000000000E+00  0.45593999997E+02  0.45594000000E+02  0.51100000000E-03 0. -1.
         11   -1    0    0    0    0 -0.00000000000E+00 -0.00000000000E+00 -0.45593999997E+02  0.45594000000E+02  0.51100000000E-03 0.  1.
    9900012    2    1    2    0    0  0.19537804435E+00  0.36620233965E+00 -0.11049164610E+01  0.90007696175E+02  0.89999956964E+02 0.  0.
         12    1    1    2    0    0 -0.19537804435E+00 -0.36620233965E+00  0.11049164610E+01  0.11803038251E+01  0.00000000000E+00 0. -1.
         11    1    3    3    0    0  0.30277181138E+02 -0.15893815332E+02  0.22940148070E+02  0.41177317266E+02  0.51100000000E-03 0. -1.
        -11    1    3    3    0    0  0.39527656252E+01  0.55238276669E+01 -0.33073975408E+01  0.75548598223E+01  0.51100000000E-03 0.  1.
        -12    1    3    3    0    0 -0.34034568719E+02  0.10736190005E+02 -0.20737666990E+02  0.41275519087E+02  0.00000000000E+00 0.  1.
</event>
<event>
 7    1  0.2084210E-015  0.9000771E+02  0.7816164E-02  0.1186339E+00
        -11   -1    0    0    0    0  0.00000000000E+00  0.00000000000E+00  0.45593999997E+02  0.45594000000E+02  0.51100000000E-03 0. -1.
         11   -1    0    0    0    0 -0.00000000000E+00 -0.00000000000E+00 -0.45593999997E+02  0.45594000000E+02  0.51100000000E-03 0.  1.
    9900012    2    1    2    0    0 -0.10215588860E+01  0.57439000346E+00  0.13995478349E+00  0.90007706064E+02  0.89999966984E+02 0.  0.
         12    1    1    2    0    0  0.10215588860E+01 -0.57439000346E+00 -0.13995478349E+00  0.11802939359E+01  0.00000000000E+00 0. -1.
         11    1    3    3    0    0  0.81922231856E+01 -0.40058431664E+01  0.13982268839E+00  0.91202440122E+01  0.51100000000E-03 0. -1.
        -11    1    3    3    0    0 -0.22344754734E+02 -0.32991557642E+02 -0.70568078492E+01  0.40466399359E+02  0.51100000000E-03 0.  1.
         12    1    3    3    0    0  0.13130972663E+02  0.37571790812E+02  0.70569399443E+01  0.40421062693E+02  0.00000000000E+00 0. -1.
</event>
<event>
 7    1  0.2084210E-015  0.9000771E+02  0.7816164E-02  0.1186339E+00
        -11   -1    0    0    0    0  0.00000000000E+00  0.00000000000E+00  0.45593999997E+02  0.45594000000E+02  0.51100000000E-03 0.  1.
         11   -1    0    0    0    0 -0.00000000000E+00 -0.00000000000E+00 -0.45593999997E+02  0.45594000000E+02  0.51100000000E-03 0. -1.
    9900012    2    1    2    0    0  0.67517827956E+00  0.66286492328E-02  0.96808063651E+00  0.90007707762E+02  0.89999968705E+02 0.  0.
         12    1    1    2    0    0 -0.67517827956E+00 -0.66286492328E-02 -0.96808063651E+00  0.11802922380E+01  0.00000000000E+00 0. -1.
         11    1    3    3    0    0  0.47040366713E+00 -0.34752443790E+01 -0.99602610151E+01  0.10559611870E+02  0.51100000000E-03 0. -1.
        -11    1    3    3    0    0 -0.23442950761E+02 -0.23486441522E+02  0.24341239064E+02  0.41154353296E+02  0.51100000000E-03 0.  1.
         12    1    3    3    0    0  0.23647725374E+02  0.26968314550E+02 -0.13412897412E+02  0.38293742596E+02  0.00000000000E+00 0. -1.
</event>
<event>
 7    1  0.2084210E-015  0.9000805E+02  0.7816164E-02  0.1186338E+00
        -11   -1    0    0    0    0  0.00000000000E+00  0.00000000000E+00  0.45593999997E+02  0.45594000000E+02  0.51100000000E-03 0. -1.
         11   -1    0    0    0    0 -0.00000000000E+00 -0.00000000000E+00 -0.45593999997E+02  0.45594000000E+02  0.51100000000E-03 0.  1.
    9900012    2    1    2    0    0 -0.75223611989E+00 -0.46570315131E+00 -0.78073761442E+00  0.90008046684E+02  0.90000312100E+02 0.  0.
         12    1    1    2    0    0  0.75223611989E+00  0.46570315131E+00  0.78073761442E+00  0.11799533159E+01  0.00000000000E+00 0. -1.
         11    1    3    3    0    0 -0.29498041765E+02  0.11775317618E+02  0.12972925057E+02  0.34308735881E+02  0.51100000000E-03 0. -1.
        -11    1    3    3    0    0 -0.65163817656E+01  0.47636736424E+01  0.76165616581E+01  0.11098100272E+02  0.51100000000E-03 0.  1.
        -12    1    3    3    0    0  0.35262187411E+02 -0.17004694412E+02 -0.21370224329E+02  0.44601210532E+02  0.00000000000E+00 0.  1.
</event>
<event>
 7    1  0.2084210E-015  0.9000777E+02  0.7816164E-02  0.1186339E+00
        -11   -1    0    0    0    0  0.00000000000E+00  0.00000000000E+00  0.45593999997E+02  0.45594000000E+02  0.51100000000E-03 0.  1.
         11   -1    0    0    0    0 -0.00000000000E+00 -0.00000000000E+00 -0.45593999997E+02  0.45594000000E+02  0.51100000000E-03 0. -1.
    9900012    2    1    2    0    0  0.57958583194E+00  0.10059504362E+01  0.21235133616E+00  0.90007767351E+02  0.90000029080E+02 0.  0.
         12    1    1    2    0    0 -0.57958583194E+00 -0.10059504362E+01 -0.21235133616E+00  0.11802326494E+01  0.00000000000E+00 0. -1.
         11    1    3    3    0    0 -0.30873517042E+02 -0.13893530327E+02 -0.13834495396E+02  0.36573180100E+02  0.51100000000E-03 0. -1.
        -11    1    3    3    0    0  0.31093988018E+01 -0.74714698004E+01 -0.77931283009E+01  0.11234948636E+02  0.51100000000E-03 0.  1.
        -12    1    3    3    0    0  0.28343704072E+02  0.22370950564E+02  0.21839975033E+02  0.42199638614E+02  0.00000000000E+00 0.  1.
</event>
<event>
 7    1  0.2084210E-015  0.9000768E+02  0.7816164E-02  0.1186339E+00
        -11   -1    0    0    0    0  0.00000000000E+00  0.00000000000E+00  0.45593999997E+02  0.45594000000E+02  0.51100000000E-03 0. -1.
         11   -1    0    0    0    0 -0.00000000000E+00 -0.00000000000E+00 -0.45593999997E+02  0.45594000000E+02  0.51100000000E-03 0.  1.
    9900012    2    1    2    0    0  0.10066554804E+01  0.19184655873E+00 -0.58564967534E+00  0.90007683983E+02  0.89999944611E+02 0.  0.
         12    1    1    2    0    0 -0.10066554804E+01 -0.19184655873E+00  0.58564967534E+00  0.11803160172E+01  0.00000000000E+00 0. -1.
         11    1    3    3    0    0  0.20241668345E+01 -0.62874446971E+01 -0.50951790769E+01  0.83420658281E+01  0.51100000000E-03 0. -1.
        -11    1    3    3    0    0  0.10247700416E+02 -0.26382437747E+02 -0.23700143968E+02  0.36915379040E+02  0.51100000000E-03 0.  1.
         12    1    3    3    0    0 -0.11265211770E+02  0.32861729002E+02  0.28209673370E+02  0.44750239115E+02  0.00000000000E+00 0. -1.
</event>
<event>
 7    1  0.2084210E-015  0.9000771E+02  0.7816164E-02  0.1186339E+00
        -11   -1    0    0    0    0  0.00000000000E+00  0.00000000000E+00  0.45593999997E+02  0.45594000000E+02  0.51100000000E-03 0. -1.
         11   -1    0    0    0    0 -0.00000000000E+00 -0.00000000000E+00 -0.45593999997E+02  0.45594000000E+02  0.51100000000E-03 0.  1.
    9900012    2    1    2    0    0 -0.11627635064E+01 -0.11501820827E+00  0.16685346685E+00  0.90007708409E+02  0.89999969360E+02 0.  0.
         12    1    1    2    0    0  0.11627635064E+01  0.11501820827E+00 -0.16685346685E+00  0.11802915909E+01  0.00000000000E+00 0. -1.
         11    1    3    3    0    0  0.67912343491E+00 -0.22433819931E+01  0.98436534594E+01  0.10118867777E+02  0.51100000000E-03 0. -1.
        -11    1    3    3    0    0  0.14511218343E+02 -0.26551256041E+02 -0.28768876584E+02  0.41751561831E+02  0.51100000000E-03 0.  1.
         12    1    3    3    0    0 -0.16353105284E+02  0.28679619826E+02  0.19092076592E+02  0.38137278801E+02  0.00000000000E+00 0. -1.
</event>
<event>
 7    1  0.2084210E-015  0.9000777E+02  0.7816164E-02  0.1186339E+00
        -11   -1    0    0    0    0  0.00000000000E+00  0.00000000000E+00  0.45593999997E+02  0.45594000000E+02  0.51100000000E-03 0. -1.
         11   -1    0    0    0    0 -0.00000000000E+00 -0.00000000000E+00 -0.45593999997E+02  0.45594000000E+02  0.51100000000E-03 0.  1.
    9900012    2    1    2    0    0  0.11482864493E+01 -0.27040840258E+00  0.35426434085E-01  0.90007772265E+02  0.90000034059E+02 0.  0.
         12    1    1    2    0    0 -0.11482864493E+01  0.27040840258E+00 -0.35426434085E-01  0.11802277348E+01  0.00000000000E+00 0. -1.
         11    1    3    3    0    0 -0.30102419286E+01 -0.90438681760E+01 -0.43532091139E+01  0.10478718333E+02  0.51100000000E-03 0. -1.
        -11    1    3    3    0    0 -0.18070280948E+02 -0.29755826812E+02 -0.17858536597E+00  0.34813448203E+02  0.51100000000E-03 0.  1.
         12    1    3    3    0    0  0.22228809326E+02  0.38529286585E+02  0.45672209140E+01  0.44715605729E+02  0.00000000000E+00 0. -1.
</event>
<event>
 7    1  0.2084210E-015  0.9000776E+02  0.7816164E-02  0.1186339E+00
        -11   -1    0    0    0    0  0.00000000000E+00  0.00000000000E+00  0.45593999997E+02  0.45594000000E+02  0.51100000000E-03 0. -1.
         11   -1    0    0    0    0 -0.00000000000E+00 -0.00000000000E+00 -0.45593999997E+02  0.45594000000E+02  0.51100000000E-03 0.  1.
    9900012    2    1    2    0    0 -0.86210864863E+00 -0.79915768233E+00 -0.10528479820E+00  0.90007758833E+02  0.90000020450E+02 0.  0.
         12    1    1    2    0    0  0.86210864863E+00  0.79915768233E+00  0.10528479820E+00  0.11802411669E+01  0.00000000000E+00 0. -1.
         11    1    3    3    0    0  0.61063422132E+01  0.31292437552E+01 -0.52290009003E+01  0.86268205256E+01  0.51100000000E-03 0. -1.
        -11    1    3    3    0    0 -0.27461907645E+02 -0.96551238742E+01 -0.29049251085E+02  0.41124649268E+02  0.51100000000E-03 0.  1.
         12    1    3    3    0    0  0.20493456784E+02  0.57267224366E+01  0.34172967188E+02  0.40256289039E+02  0.00000000000E+00 0. -1.
</event>
<event>
 7    1  0.2084210E-015  0.9000744E+02  0.7816164E-02  0.1186340E+00
        -11   -1    0    0    0    0  0.00000000000E+00  0.00000000000E+00  0.45593999997E+02  0.45594000000E+02  0.51100000000E-03 0.  1.
         11   -1    0    0    0    0 -0.00000000000E+00 -0.00000000000E+00 -0.45593999997E+02  0.45594000000E+02  0.51100000000E-03 0. -1.
    9900012    2    1    2    0    0 -0.15909479646E+00 -0.10901220094E+01  0.42432541225E+00  0.90007436912E+02  0.89999694279E+02 0.  0.
         12    1    1    2    0    0  0.15909479646E+00  0.10901220094E+01 -0.42432541225E+00  0.11805630882E+01  0.00000000000E+00 0. -1.
         11    1    3    3    0    0  0.12986781187E+01 -0.42207450042E+01  0.11139051979E+02  0.11982476058E+02  0.51100000000E-03 0. -1.
        -11    1    3    3    0    0  0.21446347623E+02 -0.79549492970E+01 -0.35676547552E+02  0.42379748586E+02  0.51100000000E-03 0.  1.
         12    1    3    3    0    0 -0.22904120538E+02  0.11085572292E+02  0.24961820986E+02  0.35645212268E+02  0.00000000000E+00 0. -1.
</event>
<event>
 7    1  0.2084210E-015  0.9000788E+02  0.7816164E-02  0.1186339E+00
        -11   -1    0    0    0    0  0.00000000000E+00  0.00000000000E+00  0.45593999997E+02  0.45594000000E+02  0.51100000000E-03 0.  1.
         11   -1    0    0    0    0 -0.00000000000E+00 -0.00000000000E+00 -0.45593999997E+02  0.45594000000E+02  0.51100000000E-03 0. -1.
    9900012    2    1    2    0    0 -0.22781841990E+00 -0.94593041555E+00  0.66782227301E+00  0.90007884679E+02  0.90000147956E+02 0.  0.
         12    1    1    2    0    0  0.22781841990E+00  0.94593041555E+00 -0.66782227301E+00  0.11801153214E+01  0.00000000000E+00 0. -1.
         11    1    3    3    0    0  0.10872051510E+02 -0.64747114911E+01  0.90368507732E+00  0.12686214562E+02  0.51100000000E-03 0. -1.
        -11    1    3    3    0    0  0.26842980426E+02 -0.16515414701E+02  0.83584302111E+01  0.32606255179E+02  0.51100000000E-03 0.  1.
         12    1    3    3    0    0 -0.37942850356E+02  0.22044195777E+02 -0.85942930154E+01  0.44715414938E+02  0.00000000000E+00 0. -1.
</event>
<event>
 7    1  0.2084210E-015  0.9000763E+02  0.7816164E-02  0.1186339E+00
        -11   -1    0    0    0    0  0.00000000000E+00  0.00000000000E+00  0.45593999997E+02  0.45594000000E+02  0.51100000000E-03 0.  1.
         11   -1    0    0    0    0 -0.00000000000E+00 -0.00000000000E+00 -0.45593999997E+02  0.45594000000E+02  0.51100000000E-03 0. -1.
    9900012    2    1    2    0    0  0.41660225131E+00  0.34761864981E+00  0.10482789159E+01  0.90007625124E+02  0.89999884976E+02 0.  0.
         12    1    1    2    0    0 -0.41660225131E+00 -0.34761864981E+00 -0.10482789159E+01  0.11803748756E+01  0.00000000000E+00 0. -1.
         11    1    3    3    0    0  0.37643752393E+01 -0.55792224189E+01 -0.81160849349E+01  0.10543674818E+02  0.51100000000E-03 0. -1.
        -11    1    3    3    0    0  0.35993813984E+02  0.83387301074E+01 -0.56097935566E+01  0.37370561261E+02  0.51100000000E-03 0.  1.
         12    1    3    3    0    0 -0.39341586972E+02 -0.24118890387E+01  0.14774157407E+02  0.42093389045E+02  0.00000000000E+00 0. -1.
</event>
<event>
 7    1  0.2084210E-015  0.9000802E+02  0.7816164E-02  0.1186338E+00
        -11   -1    0    0    0    0  0.00000000000E+00  0.00000000000E+00  0.45593999997E+02  0.45594000000E+02  0.51100000000E-03 0. -1.
         11   -1    0    0    0    0 -0.00000000000E+00 -0.00000000000E+00 -0.45593999997E+02  0.45594000000E+02  0.51100000000E-03 0.  1.
    9900012    2    1    2    0    0 -0.11705940911E+01  0.77377910277E-01  0.12681031511E+00  0.90008017490E+02  0.90000282521E+02 0.  0.
         12    1    1    2    0    0  0.11705940911E+01 -0.77377910277E-01 -0.12681031511E+00  0.11799825097E+01  0.00000000000E+00 0. -1.
         11    1    3    3    0    0 -0.13203016127E+01  0.43512533387E+01 -0.74671092173E+01  0.87426724913E+01  0.51100000000E-03 0. -1.
        -11    1    3    3    0    0 -0.83153882982E+01  0.13543491492E+01 -0.35758236039E+02  0.36737329640E+02  0.51100000000E-03 0.  1.
         12    1    3    3    0    0  0.84650958198E+01 -0.56282245777E+01  0.43352155572E+02  0.44528015359E+02  0.00000000000E+00 0. -1.
</event>
<event>
 7    1  0.2084210E-015  0.9000770E+02  0.7816164E-02  0.1186339E+00
        -11   -1    0    0    0    0  0.00000000000E+00  0.00000000000E+00  0.45593999997E+02  0.45594000000E+02  0.51100000000E-03 0.  1.
         11   -1    0    0    0    0 -0.00000000000E+00 -0.00000000000E+00 -0.45593999997E+02  0.45594000000E+02  0.51100000000E-03 0. -1.
    9900012    2    1    2    0    0  0.15442331014E+00 -0.10750398182E+01  0.46210623943E+00  0.90007703704E+02  0.89999964593E+02 0.  0.
         12    1    1    2    0    0 -0.15442331014E+00  0.10750398182E+01 -0.46210623943E+00  0.11802962959E+01  0.00000000000E+00 0. -1.
         11    1    3    3    0    0 -0.22004978567E+02  0.26896059961E+02 -0.99408046802E+01  0.36144663798E+02  0.51100000000E-03 0. -1.
        -11    1    3    3    0    0 -0.38309467064E+01  0.73498441308E+01 -0.15013425675E+01  0.84232055169E+01  0.51100000000E-03 0.  1.
        -12    1    3    3    0    0  0.25990348583E+02 -0.35320943910E+02  0.11904253487E+02  0.45439834389E+02  0.00000000000E+00 0.  1.
</event>
<event>
 7    1  0.2084210E-015  0.9000776E+02  0.7816164E-02  0.1186339E+00
        -11   -1    0    0    0    0  0.00000000000E+00  0.00000000000E+00  0.45593999997E+02  0.45594000000E+02  0.51100000000E-03 0. -1.
         11   -1    0    0    0    0 -0.00000000000E+00 -0.00000000000E+00 -0.45593999997E+02  0.45594000000E+02  0.51100000000E-03 0.  1.
    9900012    2    1    2    0    0  0.10325808227E+01 -0.56264200859E+00  0.10092728864E+00  0.90007756168E+02  0.90000017750E+02 0.  0.
         12    1    1    2    0    0 -0.10325808227E+01  0.56264200859E+00 -0.10092728864E+00  0.11802438319E+01  0.00000000000E+00 0. -1.
         11    1    3    3    0    0 -0.32531985910E+02 -0.12865085409E+02 -0.12697262659E+02  0.37216407794E+02  0.51100000000E-03 0. -1.
        -11    1    3    3    0    0 -0.17071512400E+01 -0.81941814331E+01 -0.32150574825E+01  0.89663576547E+01  0.51100000000E-03 0.  1.
        -12    1    3    3    0    0  0.35271717972E+02  0.20496624833E+02  0.16013247430E+02  0.43824990719E+02  0.00000000000E+00 0.  1.
</event>
<event>
 7    1  0.2084210E-015  0.9000785E+02  0.7816164E-02  0.1186339E+00
        -11   -1    0    0    0    0  0.00000000000E+00  0.00000000000E+00  0.45593999997E+02  0.45594000000E+02  0.51100000000E-03 0.  1.
         11   -1    0    0    0    0 -0.00000000000E+00 -0.00000000000E+00 -0.45593999997E+02  0.45594000000E+02  0.51100000000E-03 0. -1.
    9900012    2    1    2    0    0 -0.19064981011E+00 -0.11448091006E+01  0.21406318459E+00  0.90007848199E+02  0.90000110995E+02 0.  0.
         12    1    1    2    0    0  0.19064981011E+00  0.11448091006E+01 -0.21406318459E+00  0.11801518013E+01  0.00000000000E+00 0. -1.
         11    1    3    3    0    0  0.26102238755E+01 -0.79126962945E+01  0.55962457437E+01  0.10037031335E+02  0.51100000000E-03 0. -1.
        -11    1    3    3    0    0  0.27433599164E+02  0.17718652421E+02  0.20614638207E+02  0.38620154264E+02  0.51100000000E-03 0.  1.
         12    1    3    3    0    0 -0.30234472850E+02 -0.10950765227E+02 -0.25996820766E+02  0.41350662600E+02  0.00000000000E+00 0. -1.
</event>
<event>
 7    1  0.2084210E-015  0.9000757E+02  0.7816164E-02  0.1186339E+00
        -11   -1    0    0    0    0  0.00000000000E+00  0.00000000000E+00  0.45593999997E+02  0.45594000000E+02  0.51100000000E-03 0.  1.
         11   -1    0    0    0    0 -0.00000000000E+00 -0.00000000000E+00 -0.45593999997E+02  0.45594000000E+02  0.51100000000E-03 0. -1.
    9900012    2    1    2    0    0 -0.17776222171E+00  0.10427648294E+01 -0.52388081489E+00  0.90007572533E+02  0.89999831690E+02 0.  0.
         12    1    1    2    0    0  0.17776222171E+00 -0.10427648294E+01  0.52388081489E+00  0.11804274671E+01  0.00000000000E+00 0. -1.
         11    1    3    3    0    0  0.67867826118E+01  0.55258788184E+01  0.65502031523E+01  0.10931647476E+02  0.51100000000E-03 0. -1.
        -11    1    3    3    0    0  0.14465409983E+02  0.29361909727E+02  0.11799192889E+02  0.34793545118E+02  0.51100000000E-03 0.  1.
         12    1    3    3    0    0 -0.21429954817E+02 -0.33845023716E+02 -0.18873276857E+02  0.44282379939E+02  0.00000000000E+00 0. -1.
</event>
<event>
 7    1  0.2084210E-015  0.9000776E+02  0.7816164E-02  0.1186339E+00
        -11   -1    0    0    0    0  0.00000000000E+00  0.00000000000E+00  0.45593999997E+02  0.45594000000E+02  0.51100000000E-03 0. -1.
         11   -1    0    0    0    0 -0.00000000000E+00 -0.00000000000E+00 -0.45593999997E+02  0.45594000000E+02  0.51100000000E-03 0.  1.
    9900012    2    1    2    0    0  0.72227092905E+00  0.37057427554E-01 -0.93269702830E+00  0.90007757527E+02  0.90000019127E+02 0.  0.
         12    1    1    2    0    0 -0.72227092905E+00 -0.37057427554E-01  0.93269702830E+00  0.11802424728E+01  0.00000000000E+00 0. -1.
         11    1    3    3    0    0  0.70289644513E+01 -0.89345602986E+01 -0.17571993749E+02  0.20928632864E+02  0.51100000000E-03 0. -1.
        -11    1    3    3    0    0  0.15680633741E+02 -0.73412608791E+01 -0.17967583579E+02  0.24952163147E+02  0.51100000000E-03 0.  1.
         12    1    3    3    0    0 -0.21987327263E+02  0.16312878605E+02  0.34606880300E+02  0.44126961516E+02  0.00000000000E+00 0. -1.
</event>
<event>
 7    1  0.2383670E-015  0.9000775E+02  0.7816164E-02  0.1186339E+00
        -11   -1    0    0    0    0  0.00000000000E+00  0.00000000000E+00  0.45593999997E+02  0.45594000000E+02  0.51100000000E-03 0.  1.
         11   -1    0    0    0    0 -0.00000000000E+00 -0.00000000000E+00 -0.45593999997E+02  0.45594000000E+02  0.51100000000E-03 0. -1.
    9900012    2    1    2    0    0  0.59820745586E+00 -0.82545726086E+00 -0.59477359652E+00  0.90007751094E+02  0.90000012608E+02 0.  0.
         12    1    1    2    0    0 -0.59820745586E+00  0.82545726086E+00  0.59477359652E+00  0.11802489063E+01  0.00000000000E+00 0. -1.
         11    1    3    3    0    0 -0.23999200515E+02  0.30303501611E+02 -0.14076740917E+02  0.41139013969E+02  0.51100000000E-03 0. -1.
        -11    1    3    3    0    0 -0.35723548215E+01 -0.88125723492E+01 -0.20338298011E+01  0.97241767930E+01  0.51100000000E-03 0.  1.
        -12    1    3    3    0    0  0.28169762792E+02 -0.22316386523E+02  0.15515797122E+02  0.39144560331E+02  0.00000000000E+00 0.  1.
</event>
<event>
 7    1  0.2084210E-015  0.9000775E+02  0.7816164E-02  0.1186339E+00
        -11   -1    0    0    0    0  0.00000000000E+00  0.00000000000E+00  0.45593999997E+02  0.45594000000E+02  0.51100000000E-03 0.  1.
         11   -1    0    0    0    0 -0.00000000000E+00 -0.00000000000E+00 -0.45593999997E+02  0.45594000000E+02  0.51100000000E-03 0. -1.
    9900012    2    1    2    0    0 -0.58236185466E-01 -0.76972764308E+00  0.89280850298E+00  0.90007754635E+02  0.90000016197E+02 0.  0.
         12    1    1    2    0    0  0.58236185466E-01  0.76972764308E+00 -0.89280850298E+00  0.11802453647E+01  0.00000000000E+00 0. -1.
         11    1    3    3    0    0  0.65109794451E+01 -0.27301736741E+01  0.71651447705E+00  0.70964846849E+01  0.51100000000E-03 0. -1.
        -11    1    3    3    0    0 -0.22941443521E+01  0.38413174680E+01  0.41290712854E+02  0.41532418500E+02  0.51100000000E-03 0.  1.
         12    1    3    3    0    0 -0.42750712785E+01 -0.18808714370E+01 -0.41114418828E+02  0.41378851451E+02  0.00000000000E+00 0. -1.
</event>
<event>
 7    1  0.2084210E-015  0.9000756E+02  0.7816164E-02  0.1186339E+00
        -11   -1    0    0    0    0  0.00000000000E+00  0.00000000000E+00  0.45593999997E+02  0.45594000000E+02  0.51100000000E-03 0. -1.
         11   -1    0    0    0    0 -0.00000000000E+00 -0.00000000000E+00 -0.45593999997E+02  0.45594000000E+02  0.51100000000E-03 0.  1.
    9900012    2    1    2    0    0  0.30767745620E+00 -0.75121934750E+00  0.85699077147E+00  0.90007564018E+02  0.89999823063E+02 0.  0.
         12    1    1    2    0    0 -0.30767745620E+00  0.75121934750E+00 -0.85699077147E+00  0.11804359820E+01  0.00000000000E+00 0. -1.
         11    1    3    3    0    0 -0.72645438243E+01  0.82450074821E+00 -0.55405403405E+01  0.91733846526E+01  0.51100000000E-03 0. -1.
        -11    1    3    3    0    0  0.35677389421E+02 -0.70189686631E+01 -0.20338989726E+02  0.41663131668E+02  0.51100000000E-03 0.  1.
         12    1    3    3    0    0 -0.28105168141E+02  0.54432485674E+01  0.26736520838E+02  0.39171047698E+02  0.00000000000E+00 0. -1.
</event>
<event>
 7    1  0.2084210E-015  0.9000740E+02  0.7816164E-02  0.1186340E+00
        -11   -1    0    0    0    0  0.00000000000E+00  0.00000000000E+00  0.45593999997E+02  0.45594000000E+02  0.51100000000E-03 0.  1.
         11   -1    0    0    0    0 -0.00000000000E+00 -0.00000000000E+00 -0.45593999997E+02  0.45594000000E+02  0.51100000000E-03 0. -1.
    9900012    2    1    2    0    0 -0.22174023123E+00  0.70292695898E+00  0.92224336453E+00  0.90007403599E+02  0.89999660525E+02 0.  0.
         12    1    1    2    0    0  0.22174023123E+00 -0.70292695898E+00 -0.92224336453E+00  0.11805964015E+01  0.00000000000E+00 0. -1.
         11    1    3    3    0    0 -0.87155942681E+01 -0.22171560402E+01 -0.28067132353E+01  0.94209874111E+01  0.51100000000E-03 0. -1.
        -11    1    3    3    0    0 -0.10910959796E+01  0.29897624399E+02  0.29536922416E+02  0.42041505935E+02  0.51100000000E-03 0.  1.
         12    1    3    3    0    0  0.95849500165E+01 -0.26977541400E+02 -0.25807965816E+02  0.38544910253E+02  0.00000000000E+00 0. -1.
</event>
<event>
 7    1  0.2084210E-015  0.9000718E+02  0.7816164E-02  0.1186340E+00
        -11   -1    0    0    0    0  0.00000000000E+00  0.00000000000E+00  0.45593999997E+02  0.45594000000E+02  0.51100000000E-03 0.  1.
         11   -1    0    0    0    0 -0.00000000000E+00 -0.00000000000E+00 -0.45593999997E+02  0.45594000000E+02  0.51100000000E-03 0. -1.
    9900012    2    1    2    0    0 -0.86398901197E+00 -0.80344362161E+00  0.48322964475E-01  0.90007180888E+02  0.89999434874E+02 0.  0.
         12    1    1    2    0    0  0.86398901197E+00  0.80344362161E+00 -0.48322964475E-01  0.11808191118E+01  0.00000000000E+00 0. -1.
         11    1    3    3    0    0 -0.24346795054E+02 -0.25676786034E+02 -0.43637967838E+01  0.35652580455E+02  0.51100000000E-03 0. -1.
        -11    1    3    3    0    0 -0.59504543467E+01 -0.80189650586E+01  0.17318478566E+01  0.10134643793E+02  0.51100000000E-03 0.  1.
        -12    1    3    3    0    0  0.29433260389E+02  0.32892307471E+02  0.26802718916E+01  0.44219956641E+02  0.00000000000E+00 0.  1.
</event>
<event>
 7    1  0.2084210E-015  0.9000820E+02  0.7816164E-02  0.1186338E+00
        -11   -1    0    0    0    0  0.00000000000E+00  0.00000000000E+00  0.45593999997E+02  0.45594000000E+02  0.51100000000E-03 0.  1.
         11   -1    0    0    0    0 -0.00000000000E+00 -0.00000000000E+00 -0.45593999997E+02  0.45594000000E+02  0.51100000000E-03 0. -1.
    9900012    2    1    2    0    0  0.28973223856E+00 -0.79266393552E-01 -0.11409177533E+01  0.90008202877E+02  0.90000470354E+02 0.  0.
         12    1    1    2    0    0 -0.28973223856E+00  0.79266393552E-01  0.11409177533E+01  0.11797971228E+01  0.00000000000E+00 0. -1.
         11    1    3    3    0    0  0.19688575640E+02  0.22578634056E+02 -0.41596803313E+01  0.30244630388E+02  0.51100000000E-03 0. -1.
        -11    1    3    3    0    0 -0.81336553807E+01  0.16777155264E+02  0.18212273426E+01  0.18733557001E+02  0.51100000000E-03 0.  1.
        -12    1    3    3    0    0 -0.11265188021E+02 -0.39435055714E+02  0.11975352355E+01  0.41030015488E+02  0.00000000000E+00 0.  1.
</event>
<event>
 7    1  0.2084210E-015  0.9000771E+02  0.7816164E-02  0.1186339E+00
        -11   -1    0    0    0    0  0.00000000000E+00  0.00000000000E+00  0.45593999997E+02  0.45594000000E+02  0.51100000000E-03 0.  1.
         11   -1    0    0    0    0 -0.00000000000E+00 -0.00000000000E+00 -0.45593999997E+02  0.45594000000E+02  0.51100000000E-03 0. -1.
    9900012    2    1    2    0    0 -0.67237220613E+00  0.72347152250E+00 -0.64620301684E+00  0.90007714540E+02  0.89999975572E+02 0.  0.
         12    1    1    2    0    0  0.67237220613E+00 -0.72347152250E+00  0.64620301684E+00  0.11802854597E+01  0.00000000000E+00 0. -1.
         11    1    3    3    0    0 -0.10665441146E+01  0.36193863812E+02 -0.78159244857E+01  0.37043514545E+02  0.51100000000E-03 0. -1.
        -11    1    3    3    0    0  0.32166822754E+01  0.78083396453E+01 -0.18983248618E+01  0.86556831284E+01  0.51100000000E-03 0.  1.
        -12    1    3    3    0    0 -0.28225103669E+01 -0.43278731935E+02  0.90680463307E+01  0.44308516867E+02  0.00000000000E+00 0.  1.
</event>
<event>
 7    1  0.2084210E-015  0.9000781E+02  0.7816164E-02  0.1186339E+00
        -11   -1    0    0    0    0  0.00000000000E+00  0.00000000000E+00  0.45593999997E+02  0.45594000000E+02  0.51100000000E-03 0. -1.
         11   -1    0    0    0    0 -0.00000000000E+00 -0.00000000000E+00 -0.45593999997E+02  0.45594000000E+02  0.51100000000E-03 0.  1.
    9900012    2    1    2    0    0  0.49468100431E+00 -0.61940422972E+00 -0.87434862135E+00  0.90007806623E+02  0.90000068870E+02 0.  0.
         12    1    1    2    0    0 -0.49468100431E+00  0.61940422972E+00  0.87434862135E+00  0.11801933772E+01  0.00000000000E+00 0. -1.
         11    1    3    3    0    0 -0.83854307114E+01 -0.24828325812E+01 -0.21382275696E+01  0.90028841625E+01  0.51100000000E-03 0. -1.
        -11    1    3    3    0    0  0.16773292920E+02 -0.37219694845E+02  0.41116796590E+01  0.41031146092E+02  0.51100000000E-03 0.  1.
         12    1    3    3    0    0 -0.78931812046E+01  0.39083123196E+02 -0.28478007107E+01  0.39973776369E+02  0.00000000000E+00 0. -1.
</event>
<event>
 7    1  0.2084210E-015  0.9000787E+02  0.7816164E-02  0.1186339E+00
        -11   -1    0    0    0    0  0.00000000000E+00  0.00000000000E+00  0.45593999997E+02  0.45594000000E+02  0.51100000000E-03 0.  1.
         11   -1    0    0    0    0 -0.00000000000E+00 -0.00000000000E+00 -0.45593999997E+02  0.45594000000E+02  0.51100000000E-03 0. -1.
    9900012    2    1    2    0    0  0.62878363570E+00  0.46442525234E+00  0.88411169391E+00  0.90007867311E+02  0.90000130360E+02 0.  0.
         12    1    1    2    0    0 -0.62878363570E+00 -0.46442525234E+00 -0.88411169391E+00  0.11801326887E+01  0.00000000000E+00 0. -1.
         11    1    3    3    0    0  0.31088296437E+02 -0.19685278422E+02 -0.13988179552E+02  0.39365740554E+02  0.51100000000E-03 0. -1.
        -11    1    3    3    0    0  0.46672734455E+01  0.77170644389E+01 -0.27423322910E+01  0.94263944127E+01  0.51100000000E-03 0.  1.
        -12    1    3    3    0    0 -0.35126786247E+02  0.12432639235E+02  0.17614623537E+02  0.41215732345E+02  0.00000000000E+00 0.  1.
</event>
<event>
 7    1  0.2084210E-015  0.9000777E+02  0.7816164E-02  0.1186339E+00
        -11   -1    0    0    0    0  0.00000000000E+00  0.00000000000E+00  0.45593999997E+02  0.45594000000E+02  0.51100000000E-03 0. -1.
         11   -1    0    0    0    0 -0.00000000000E+00 -0.00000000000E+00 -0.45593999997E+02  0.45594000000E+02  0.51100000000E-03 0.  1.
    9900012    2    1    2    0    0 -0.14711364883E+00  0.59747033570E+00 -0.10071385101E+01  0.90007770698E+02  0.90000032471E+02 0.  0.
         12    1    1    2    0    0  0.14711364883E+00 -0.59747033570E+00  0.10071385101E+01  0.11802293024E+01  0.00000000000E+00 0. -1.
         11    1    3    3    0    0 -0.25937580310E+02 -0.37238629968E+01  0.27788560641E+01  0.26350470000E+02  0.51100000000E-03 0. -1.
        -11    1    3    3    0    0  0.13657308330E+02 -0.13491924285E+02 -0.26253265948E+02  0.32523653930E+02  0.51100000000E-03 0.  1.
         12    1    3    3    0    0  0.12133158331E+02  0.17813257618E+02  0.22467271374E+02  0.31133646768E+02  0.00000000000E+00 0. -1.
</event>
<event>
 7    1  0.2084210E-015  0.9000849E+02  0.7816164E-02  0.1186338E+00
        -11   -1    0    0    0    0  0.00000000000E+00  0.00000000000E+00  0.45593999997E+02  0.45594000000E+02  0.51100000000E-03 0. -1.
         11   -1    0    0    0    0 -0.00000000000E+00 -0.00000000000E+00 -0.45593999997E+02  0.45594000000E+02  0.51100000000E-03 0.  1.
    9900012    2    1    2    0    0 -0.11615075969E+01  0.16155931674E+00  0.12664088698E+00  0.90008491957E+02  0.90000763247E+02 0.  0.
         12    1    1    2    0    0  0.11615075969E+01 -0.16155931674E+00 -0.12664088698E+00  0.11795080435E+01  0.00000000000E+00 0. -1.
         11    1    3    3    0    0  0.19784767587E+02  0.29989004520E+02  0.63108458789E+01  0.36477447780E+02  0.51100000000E-03 0. -1.
        -11    1    3    3    0    0 -0.35123429143E+01  0.91223353051E+01 -0.46631568475E+01  0.10830447184E+02  0.51100000000E-03 0.  1.
        -12    1    3    3    0    0 -0.17433932269E+02 -0.38949780508E+02 -0.15210481444E+01  0.42700596992E+02  0.00000000000E+00 0.  1.
</event>
<event>
 7    1  0.2084210E-015  0.9000780E+02  0.7816164E-02  0.1186339E+00
        -11   -1    0    0    0    0  0.00000000000E+00  0.00000000000E+00  0.45593999997E+02  0.45594000000E+02  0.51100000000E-03 0.  1.
         11   -1    0    0    0    0 -0.00000000000E+00 -0.00000000000E+00 -0.45593999997E+02  0.45594000000E+02  0.51100000000E-03 0. -1.
    9900012    2    1    2    0    0 -0.34158579814E+00  0.22454615079E+00  0.11071471913E+01  0.90007798011E+02  0.90000060145E+02 0.  0.
         12    1    1    2    0    0  0.34158579814E+00 -0.22454615079E+00 -0.11071471913E+01  0.11802019889E+01  0.00000000000E+00 0. -1.
         11    1    3    3    0    0 -0.87616864884E+01 -0.27745004975E+01  0.37213069764E+01  0.99152977265E+01  0.51100000000E-03 0. -1.
        -11    1    3    3    0    0 -0.26044112913E+02 -0.41967073904E+01  0.24229759079E+02  0.35818841350E+02  0.51100000000E-03 0.  1.
         12    1    3    3    0    0  0.34464213603E+02  0.71957540387E+01 -0.26843918864E+02  0.44273658935E+02  0.00000000000E+00 0. -1.
</event>
<event>
 7    1  0.2084210E-015  0.9000775E+02  0.7816164E-02  0.1186339E+00
        -11   -1    0    0    0    0  0.00000000000E+00  0.00000000000E+00  0.45593999997E+02  0.45594000000E+02  0.51100000000E-03 0.  1.
         11   -1    0    0    0    0 -0.00000000000E+00 -0.00000000000E+00 -0.45593999997E+02  0.45594000000E+02  0.51100000000E-03 0. -1.
    9900012    2    1    2    0    0  0.16859134961E+00 -0.78806168035E+00  0.86228094423E+00  0.90007748890E+02  0.90000010376E+02 0.  0.
         12    1    1    2    0    0 -0.16859134961E+00  0.78806168035E+00 -0.86228094423E+00  0.11802511097E+01  0.00000000000E+00 0. -1.
         11    1    3    3    0    0  0.26893547822E+02  0.28306389008E+02 -0.17392179731E+02  0.42743449664E+02  0.51100000000E-03 0. -1.
        -11    1    3    3    0    0 -0.10107906693E+02 -0.10068382490E+00  0.31202747140E+01  0.10579037267E+02  0.51100000000E-03 0.  1.
        -12    1    3    3    0    0 -0.16617049780E+02 -0.28993766863E+02  0.15134185961E+02  0.36685261959E+02  0.00000000000E+00 0.  1.
</event>
<event>
 7    1  0.2084210E-015  0.9000752E+02  0.7816164E-02  0.1186339E+00
        -11   -1    0    0    0    0  0.00000000000E+00  0.00000000000E+00  0.45593999997E+02  0.45594000000E+02  0.51100000000E-03 0. -1.
         11   -1    0    0    0    0 -0.00000000000E+00 -0.00000000000E+00 -0.45593999997E+02  0.45594000000E+02  0.51100000000E-03 0.  1.
    9900012    2    1    2    0    0  0.10684626046E+01 -0.41637274347E+00 -0.28027594375E+00  0.90007519927E+02  0.89999778389E+02 0.  0.
         12    1    1    2    0    0 -0.10684626046E+01  0.41637274347E+00  0.28027594375E+00  0.11804800734E+01  0.00000000000E+00 0. -1.
         11    1    3    3    0    0  0.62548625149E+01 -0.28655479461E+02  0.24082422645E+02  0.37950268628E+02  0.51100000000E-03 0. -1.
        -11    1    3    3    0    0 -0.64652681529E+00 -0.87290691581E+01 -0.43173817794E+01  0.97598376513E+01  0.51100000000E-03 0.  1.
        -12    1    3    3    0    0 -0.45398730950E+01  0.36968175875E+02 -0.20045316810E+02  0.42297413647E+02  0.00000000000E+00 0.  1.
</event>
<event>
 7    1  0.2084210E-015  0.9000772E+02  0.7816164E-02  0.1186339E+00
        -11   -1    0    0    0    0  0.00000000000E+00  0.00000000000E+00  0.45593999997E+02  0.45594000000E+02  0.51100000000E-03 0.  1.
         11   -1    0    0    0    0 -0.00000000000E+00 -0.00000000000E+00 -0.45593999997E+02  0.45594000000E+02  0.51100000000E-03 0. -1.
    9900012    2    1    2    0    0  0.26469768317E+00  0.84282951582E+00 -0.78270411212E+00  0.90007723683E+02  0.89999984836E+02 0.  0.
         12    1    1    2    0    0 -0.26469768317E+00 -0.84282951582E+00  0.78270411212E+00  0.11802763165E+01  0.00000000000E+00 0. -1.
         11    1    3    3    0    0  0.47052731803E+01  0.13496290587E+02 -0.33264340620E+02  0.36205052306E+02  0.51100000000E-03 0. -1.
        -11    1    3    3    0    0  0.18434048735E+01  0.78523773007E+01 -0.57916926657E+01  0.99298376117E+01  0.51100000000E-03 0.  1.
        -12    1    3    3    0    0 -0.62839803706E+01 -0.20505838372E+02  0.38273329173E+02  0.43872833766E+02  0.00000000000E+00 0.  1.
</event>
<event>
 7    1  0.2084210E-015  0.9000767E+02  0.7816164E-02  0.1186339E+00
        -11   -1    0    0    0    0  0.00000000000E+00  0.00000000000E+00  0.45593999997E+02  0.45594000000E+02  0.51100000000E-03 0. -1.
         11   -1    0    0    0    0 -0.00000000000E+00 -0.00000000000E+00 -0.45593999997E+02  0.45594000000E+02  0.51100000000E-03 0.  1.
    9900012    2    1    2    0    0  0.73541357256E+00 -0.85536239146E+00 -0.34743692935E+00  0.90007665148E+02  0.89999925528E+02 0.  0.
         12    1    1    2    0    0 -0.73541357256E+00  0.85536239146E+00  0.34743692935E+00  0.11803348522E+01  0.00000000000E+00 0. -1.
         11    1    3    3    0    0 -0.12479874294E+02  0.43531684019E+01 -0.84342857818E+01  0.15679110767E+02  0.51100000000E-03 0. -1.
        -11    1    3    3    0    0  0.35801870257E+01 -0.16883771902E+02 -0.29293284234E+02  0.33999646973E+02  0.51100000000E-03 0.  1.
         12    1    3    3    0    0  0.96351008409E+01  0.11675241108E+02  0.37380133087E+02  0.40328907408E+02  0.00000000000E+00 0. -1.
</event>
<event>
 7    1  0.2084210E-015  0.9000776E+02  0.7816164E-02  0.1186339E+00
        -11   -1    0    0    0    0  0.00000000000E+00  0.00000000000E+00  0.45593999997E+02  0.45594000000E+02  0.51100000000E-03 0. -1.
         11   -1    0    0    0    0 -0.00000000000E+00 -0.00000000000E+00 -0.45593999997E+02  0.45594000000E+02  0.51100000000E-03 0.  1.
    9900012    2    1    2    0    0 -0.30376875916E+00 -0.38488851325E+00 -0.10735696791E+01  0.90007759989E+02  0.90000021621E+02 0.  0.
         12    1    1    2    0    0  0.30376875916E+00  0.38488851325E+00  0.10735696791E+01  0.11802400106E+01  0.00000000000E+00 0. -1.
         11    1    3    3    0    0  0.91897254328E+01 -0.42254353141E+02 -0.45714150825E+01  0.43483091530E+02  0.51100000000E-03 0. -1.
        -11    1    3    3    0    0 -0.69825832496E+01  0.79459589212E+01 -0.46361200958E+01  0.11549387075E+02  0.51100000000E-03 0.  1.
        -12    1    3    3    0    0 -0.25109109424E+01  0.33923505706E+02  0.81339654992E+01  0.34975281384E+02  0.00000000000E+00 0.  1.
</event>
<event>
 7    1  0.2084210E-015  0.9000759E+02  0.7816164E-02  0.1186339E+00
        -11   -1    0    0    0    0  0.00000000000E+00  0.00000000000E+00  0.45593999997E+02  0.45594000000E+02  0.51100000000E-03 0.  1.
         11   -1    0    0    0    0 -0.00000000000E+00 -0.00000000000E+00 -0.45593999997E+02  0.45594000000E+02  0.51100000000E-03 0. -1.
    9900012    2    1    2    0    0 -0.69212577666E+00  0.89174656505E+00  0.34514516970E+00  0.90007586846E+02  0.89999846192E+02 0.  0.
         12    1    1    2    0    0  0.69212577666E+00 -0.89174656505E+00 -0.34514516970E+00  0.11804131544E+01  0.00000000000E+00 0. -1.
         11    1    3    3    0    0 -0.32026458401E+02 -0.65213287900E+01 -0.14272419935E+02  0.35664039843E+02  0.51100000000E-03 0. -1.
        -11    1    3    3    0    0 -0.92868902433E+01  0.68529882001E+01  0.14208290330E+01  0.11628780377E+02  0.51100000000E-03 0.  1.
        -12    1    3    3    0    0  0.40621222868E+02  0.56008715494E+00  0.13196736071E+02  0.42714766625E+02  0.00000000000E+00 0.  1.
</event>
<event>
 7    1  0.2084210E-015  0.9000773E+02  0.7816164E-02  0.1186339E+00
        -11   -1    0    0    0    0  0.00000000000E+00  0.00000000000E+00  0.45593999997E+02  0.45594000000E+02  0.51100000000E-03 0. -1.
         11   -1    0    0    0    0 -0.00000000000E+00 -0.00000000000E+00 -0.45593999997E+02  0.45594000000E+02  0.51100000000E-03 0.  1.
    9900012    2    1    2    0    0  0.31093142900E+00  0.76896779561E+00 -0.83966798884E+00  0.90007732168E+02  0.89999993432E+02 0.  0.
         12    1    1    2    0    0 -0.31093142900E+00 -0.76896779561E+00  0.83966798884E+00  0.11802678322E+01  0.00000000000E+00 0. -1.
         11    1    3    3    0    0  0.45581129755E+01 -0.36715750760E+01  0.70901296268E+01  0.91938455405E+01  0.51100000000E-03 0. -1.
        -11    1    3    3    0    0  0.27875805639E+02  0.27141306249E+02  0.54057583564E+01  0.39280189264E+02  0.51100000000E-03 0.  1.
         12    1    3    3    0    0 -0.32122987185E+02 -0.22700763377E+02 -0.13335555972E+02  0.41533697364E+02  0.00000000000E+00 0. -1.
</event>
<event>
 7    1  0.2084210E-015  0.9000773E+02  0.7816164E-02  0.1186339E+00
        -11   -1    0    0    0    0  0.00000000000E+00  0.00000000000E+00  0.45593999997E+02  0.45594000000E+02  0.51100000000E-03 0.  1.
         11   -1    0    0    0    0 -0.00000000000E+00 -0.00000000000E+00 -0.45593999997E+02  0.45594000000E+02  0.51100000000E-03 0. -1.
    9900012    2    1    2    0    0 -0.10984845176E+01 -0.99056508508E-01  0.42017737621E+00  0.90007733312E+02  0.89999994592E+02 0.  0.
         12    1    1    2    0    0  0.10984845176E+01  0.99056508508E-01 -0.42017737621E+00  0.11802666880E+01  0.00000000000E+00 0. -1.
         11    1    3    3    0    0  0.17410662461E+02 -0.22024334578E+02 -0.20662467114E+02  0.34858858680E+02  0.51100000000E-03 0. -1.
        -11    1    3    3    0    0  0.69649031211E+01 -0.85081555513E+01  0.22664257523E+01  0.11226543205E+02  0.51100000000E-03 0.  1.
        -12    1    3    3    0    0 -0.25474050100E+02  0.30433433621E+02  0.18816218738E+02  0.43922331428E+02  0.00000000000E+00 0.  1.
</event>
<event>
 7    1  0.2084210E-015  0.9000771E+02  0.7816164E-02  0.1186339E+00
        -11   -1    0    0    0    0  0.00000000000E+00  0.00000000000E+00  0.45593999997E+02  0.45594000000E+02  0.51100000000E-03 0. -1.
         11   -1    0    0    0    0 -0.00000000000E+00 -0.00000000000E+00 -0.45593999997E+02  0.45594000000E+02  0.51100000000E-03 0.  1.
    9900012    2    1    2    0    0  0.70500251623E+00 -0.86097807366E+00 -0.39340103942E+00  0.90007713522E+02  0.89999974541E+02 0.  0.
         12    1    1    2    0    0 -0.70500251623E+00  0.86097807366E+00  0.39340103942E+00  0.11802864775E+01  0.00000000000E+00 0. -1.
         11    1    3    3    0    0 -0.11454718439E+01  0.67851093723E+01 -0.24987031414E+01  0.73207467235E+01  0.51100000000E-03 0. -1.
        -11    1    3    3    0    0 -0.91190804467E+01  0.61777407212E+01 -0.37630106826E+02  0.39209017440E+02  0.51100000000E-03 0.  1.
         12    1    3    3    0    0  0.10969554807E+02 -0.13823828167E+02  0.39735408928E+02  0.43477949359E+02  0.00000000000E+00 0. -1.
</event>
<event>
 7    1  0.2084210E-015  0.9000769E+02  0.7816164E-02  0.1186339E+00
        -11   -1    0    0    0    0  0.00000000000E+00  0.00000000000E+00  0.45593999997E+02  0.45594000000E+02  0.51100000000E-03 0.  1.
         11   -1    0    0    0    0 -0.00000000000E+00 -0.00000000000E+00 -0.45593999997E+02  0.45594000000E+02  0.51100000000E-03 0. -1.
    9900012    2    1    2    0    0 -0.83929137784E+00  0.73347162636E+00  0.38825065591E+00  0.90007691051E+02  0.89999951773E+02 0.  0.
         12    1    1    2    0    0  0.83929137784E+00 -0.73347162636E+00 -0.38825065591E+00  0.11803089491E+01  0.00000000000E+00 0. -1.
         11    1    3    3    0    0  0.37538555501E+02 -0.76452026568E+01  0.67543672801E+01  0.38900048205E+02  0.51100000000E-03 0. -1.
        -11    1    3    3    0    0  0.12958719533E+00  0.99406782873E+01  0.47208738211E+01  0.11005477161E+02  0.51100000000E-03 0.  1.
        -12    1    3    3    0    0 -0.38507434074E+02 -0.15620040042E+01 -0.11086990445E+02  0.40102165685E+02  0.00000000000E+00 0.  1.
</event>
<event>
 7    1  0.2084210E-015  0.9000762E+02  0.7816164E-02  0.1186339E+00
        -11   -1    0    0    0    0  0.00000000000E+00  0.00000000000E+00  0.45593999997E+02  0.45594000000E+02  0.51100000000E-03 0. -1.
         11   -1    0    0    0    0 -0.00000000000E+00 -0.00000000000E+00 -0.45593999997E+02  0.45594000000E+02  0.51100000000E-03 0.  1.
    9900012    2    1    2    0    0  0.15990773385E-01 -0.11801116673E+01  0.19145876466E-01  0.90007624714E+02  0.89999884560E+02 0.  0.
         12    1    1    2    0    0 -0.15990773385E-01  0.11801116673E+01 -0.19145876466E-01  0.11803752863E+01  0.00000000000E+00 0. -1.
         11    1    3    3    0    0 -0.10245786850E+02  0.31389862999E+02  0.19726218744E+02  0.38463272787E+02  0.51100000000E-03 0. -1.
        -11    1    3    3    0    0  0.68408097413E+01  0.58802160648E+01 -0.34286009043E+01  0.96503328081E+01  0.51100000000E-03 0.  1.
        -12    1    3    3    0    0  0.34209678820E+01 -0.38450190731E+02 -0.16278471963E+02  0.41894019119E+02  0.00000000000E+00 0.  1.
</event>
<event>
 7    1  0.2084210E-015  0.9000774E+02  0.7816164E-02  0.1186339E+00
        -11   -1    0    0    0    0  0.00000000000E+00  0.00000000000E+00  0.45593999997E+02  0.45594000000E+02  0.51100000000E-03 0.  1.
         11   -1    0    0    0    0 -0.00000000000E+00 -0.00000000000E+00 -0.45593999997E+02  0.45594000000E+02  0.51100000000E-03 0. -1.
    9900012    2    1    2    0    0  0.41055589256E+00 -0.81695968592E-01  0.11035311655E+01  0.90007740958E+02  0.90000002339E+02 0.  0.
         12    1    1    2    0    0 -0.41055589256E+00  0.81695968592E-01 -0.11035311655E+01  0.11802590417E+01  0.00000000000E+00 0. -1.
         11    1    3    3    0    0 -0.28158518245E+02 -0.13542167672E+02  0.19113576234E+02  0.36628148352E+02  0.51100000000E-03 0. -1.
        -11    1    3    3    0    0 -0.68550721320E+01 -0.16861188420E+01  0.48653893490E+01  0.85736237650E+01  0.51100000000E-03 0.  1.
        -12    1    3    3    0    0  0.35424146269E+02  0.15146590545E+02 -0.22875434417E+02  0.44805968841E+02  0.00000000000E+00 0.  1.
</event>
<event>
 7    1  0.2084210E-015  0.9000790E+02  0.7816164E-02  0.1186339E+00
        -11   -1    0    0    0    0  0.00000000000E+00  0.00000000000E+00  0.45593999997E+02  0.45594000000E+02  0.51100000000E-03 0. -1.
         11   -1    0    0    0    0 -0.00000000000E+00 -0.00000000000E+00 -0.45593999997E+02  0.45594000000E+02  0.51100000000E-03 0.  1.
    9900012    2    1    2    0    0  0.11577693166E+01  0.18578246463E+00 -0.13298316239E+00  0.90007902785E+02  0.90000166302E+02 0.  0.
         12    1    1    2    0    0 -0.11577693166E+01 -0.18578246463E+00  0.13298316239E+00  0.11800972147E+01  0.00000000000E+00 0. -1.
         11    1    3    3    0    0  0.82183662232E+01  0.15399697750E+02  0.34037135277E+02  0.38252043243E+02  0.51100000000E-03 0. -1.
        -11    1    3    3    0    0 -0.46673454709E+01 -0.60212743725E+01  0.64856197440E+01  0.10005154798E+02  0.51100000000E-03 0.  1.
        -12    1    3    3    0    0 -0.23932514356E+01 -0.91926409126E+01 -0.40655738183E+02  0.41750704744E+02  0.00000000000E+00 0.  1.
</event>
<event>
 7    1  0.2084210E-015  0.9000745E+02  0.7816164E-02  0.1186340E+00
        -11   -1    0    0    0    0  0.00000000000E+00  0.00000000000E+00  0.45593999997E+02  0.45594000000E+02  0.51100000000E-03 0.  1.
         11   -1    0    0    0    0 -0.00000000000E+00 -0.00000000000E+00 -0.45593999997E+02  0.45594000000E+02  0.51100000000E-03 0. -1.
    9900012    2    1    2    0    0 -0.30135274293E+00  0.51811369512E+00  0.10170784392E+01  0.90007447660E+02  0.89999705168E+02 0.  0.
         12    1    1    2    0    0  0.30135274293E+00 -0.51811369512E+00 -0.10170784392E+01  0.11805523403E+01  0.00000000000E+00 0. -1.
         11    1    3    3    0    0  0.41704321357E+01 -0.89186987693E+01  0.99662735082E+01  0.14009364719E+02  0.51100000000E-03 0. -1.
        -11    1    3    3    0    0  0.29956709568E+02 -0.14542171118E+02 -0.67996350269E+01  0.33986971412E+02  0.51100000000E-03 0.  1.
         12    1    3    3    0    0 -0.34428494447E+02  0.23978983582E+02 -0.21495600422E+01  0.42011111529E+02  0.00000000000E+00 0. -1.
</event>
<event>
 7    1  0.2084210E-015  0.9000767E+02  0.7816164E-02  0.1186339E+00
        -11   -1    0    0    0    0  0.00000000000E+00  0.00000000000E+00  0.45593999997E+02  0.45594000000E+02  0.51100000000E-03 0.  1.
         11   -1    0    0    0    0 -0.00000000000E+00 -0.00000000000E+00 -0.45593999997E+02  0.45594000000E+02  0.51100000000E-03 0. -1.
    9900012    2    1    2    0    0  0.90903916127E+00 -0.61013662335E+00 -0.44109983964E+00  0.90007666164E+02  0.89999926557E+02 0.  0.
         12    1    1    2    0    0 -0.90903916127E+00  0.61013662335E+00  0.44109983964E+00  0.11803338360E+01  0.00000000000E+00 0. -1.
         11    1    3    3    0    0  0.38836631014E+01  0.27250473372E+01 -0.63223909735E+01  0.79045145302E+01  0.51100000000E-03 0. -1.
        -11    1    3    3    0    0  0.71971228847E+01  0.37074649847E+02  0.12769859172E+02  0.39867248998E+02  0.51100000000E-03 0.  1.
         12    1    3    3    0    0 -0.10171746825E+02 -0.40409833808E+02 -0.68885680385E+01  0.42235902636E+02  0.00000000000E+00 0. -1.
</event>
<event>
 7    1  0.2084210E-015  0.9000716E+02  0.7816164E-02  0.1186340E+00
        -11   -1    0    0    0    0  0.00000000000E+00  0.00000000000E+00  0.45593999997E+02  0.45594000000E+02  0.51100000000E-03 0.  1.
         11   -1    0    0    0    0 -0.00000000000E+00 -0.00000000000E+00 -0.45593999997E+02  0.45594000000E+02  0.51100000000E-03 0. -1.
    9900012    2    1    2    0    0  0.69898964395E+00  0.16245515259E+00  0.93776864507E+00  0.90007157830E+02  0.89999411511E+02 0.  0.
         12    1    1    2    0    0 -0.69898964395E+00 -0.16245515259E+00 -0.93776864507E+00  0.11808421701E+01  0.00000000000E+00 0. -1.
         11    1    3    3    0    0  0.27892018351E+02  0.22736797021E+02  0.16352768898E+02  0.39526442762E+02  0.51100000000E-03 0. -1.
        -11    1    3    3    0    0 -0.49919569551E+01  0.84594786866E+01 -0.19283491282E+01  0.10010042183E+02  0.51100000000E-03 0.  1.
        -12    1    3    3    0    0 -0.22201071752E+02 -0.31033820555E+02 -0.13486651125E+02  0.40470672885E+02  0.00000000000E+00 0.  1.
</event>
<event>
 7    1  0.2084210E-015  0.9000735E+02  0.7816164E-02  0.1186340E+00
        -11   -1    0    0    0    0  0.00000000000E+00  0.00000000000E+00  0.45593999997E+02  0.45594000000E+02  0.51100000000E-03 0.  1.
         11   -1    0    0    0    0 -0.00000000000E+00 -0.00000000000E+00 -0.45593999997E+02  0.45594000000E+02  0.51100000000E-03 0. -1.
    9900012    2    1    2    0    0 -0.77686544978E+00 -0.48200046281E+00  0.74705153846E+00  0.90007351714E+02  0.89999607956E+02 0.  0.
         12    1    1    2    0    0  0.77686544978E+00  0.48200046281E+00 -0.74705153846E+00  0.11806482856E+01  0.00000000000E+00 0. -1.
         11    1    3    3    0    0  0.25658105914E+02 -0.20587349135E+02 -0.13660424890E+02  0.35620002132E+02  0.51100000000E-03 0. -1.
        -11    1    3    3    0    0  0.73536953752E+01 -0.27508857924E+01 -0.49008432036E+01  0.92554023511E+01  0.51100000000E-03 0.  1.
        -12    1    3    3    0    0 -0.33788666739E+02  0.22856234464E+02  0.19308319632E+02  0.45131947231E+02  0.00000000000E+00 0.  1.
</event>
<event>
 7    1  0.2084210E-015  0.9000773E+02  0.7816164E-02  0.1186339E+00
        -11   -1    0    0    0    0  0.00000000000E+00  0.00000000000E+00  0.45593999997E+02  0.45594000000E+02  0.51100000000E-03 0.  1.
         11   -1    0    0    0    0 -0.00000000000E+00 -0.00000000000E+00 -0.45593999997E+02  0.45594000000E+02  0.51100000000E-03 0. -1.
    9900012    2    1    2    0    0  0.97664058474E+00  0.64533735211E+00 -0.15079504638E+00  0.90007734659E+02  0.89999995956E+02 0.  0.
         12    1    1    2    0    0 -0.97664058474E+00 -0.64533735211E+00  0.15079504638E+00  0.11802653413E+01  0.00000000000E+00 0. -1.
         11    1    3    3    0    0  0.55642800088E+01 -0.19536486332E+01 -0.36633229687E+02  0.37104871278E+02  0.51100000000E-03 0. -1.
        -11    1    3    3    0    0 -0.70310115098E+00 -0.34148160499E+01 -0.75373799887E+01  0.83046623796E+01  0.51100000000E-03 0.  1.
        -12    1    3    3    0    0 -0.38845382731E+01  0.60138020353E+01  0.44019814629E+02  0.44598201001E+02  0.00000000000E+00 0.  1.
</event>
<event>
 7    1  0.2084210E-015  0.9000774E+02  0.7816164E-02  0.1186339E+00
        -11   -1    0    0    0    0  0.00000000000E+00  0.00000000000E+00  0.45593999997E+02  0.45594000000E+02  0.51100000000E-03 0. -1.
         11   -1    0    0    0    0 -0.00000000000E+00 -0.00000000000E+00 -0.45593999997E+02  0.45594000000E+02  0.51100000000E-03 0.  1.
    9900012    2    1    2    0    0  0.67567745291E+00 -0.83180929811E+00  0.49454200584E+00  0.90007737943E+02  0.89999999283E+02 0.  0.
         12    1    1    2    0    0 -0.67567745291E+00  0.83180929811E+00 -0.49454200584E+00  0.11802620575E+01  0.00000000000E+00 0. -1.
         11    1    3    3    0    0  0.17336731258E+02  0.21715214583E+02  0.13402088232E+02  0.30850101529E+02  0.51100000000E-03 0. -1.
        -11    1    3    3    0    0  0.13809209165E+02  0.18334018183E+01  0.67307281259E+01  0.15471209434E+02  0.51100000000E-03 0.  1.
        -12    1    3    3    0    0 -0.30470262969E+02 -0.24380425700E+02 -0.19638274353E+02  0.43686426980E+02  0.00000000000E+00 0.  1.
</event>
<event>
 7    1  0.2084210E-015  0.9000778E+02  0.7816164E-02  0.1186339E+00
        -11   -1    0    0    0    0  0.00000000000E+00  0.00000000000E+00  0.45593999997E+02  0.45594000000E+02  0.51100000000E-03 0.  1.
         11   -1    0    0    0    0 -0.00000000000E+00 -0.00000000000E+00 -0.45593999997E+02  0.45594000000E+02  0.51100000000E-03 0. -1.
    9900012    2    1    2    0    0  0.36526873481E-01  0.84189522814E+00  0.82631966578E+00  0.90007777149E+02  0.90000039007E+02 0.  0.
         12    1    1    2    0    0 -0.36526873481E-01 -0.84189522814E+00 -0.82631966578E+00  0.11802228509E+01  0.00000000000E+00 0. -1.
         11    1    3    3    0    0  0.14846966862E+02  0.32384042200E+02 -0.12816057935E+01  0.35648297686E+02  0.51100000000E-03 0. -1.
        -11    1    3    3    0    0 -0.47394086974E+00  0.92692114644E+01  0.58023140167E+01  0.10945763990E+02  0.51100000000E-03 0.  1.
        -12    1    3    3    0    0 -0.14336499119E+02 -0.40811358436E+02 -0.36943885575E+01  0.43413715473E+02  0.00000000000E+00 0.  1.
</event>
<event>
 7    1  0.2084210E-015  0.9000792E+02  0.7816164E-02  0.1186339E+00
        -11   -1    0    0    0    0  0.00000000000E+00  0.00000000000E+00  0.45593999997E+02  0.45594000000E+02  0.51100000000E-03 0.  1.
         11   -1    0    0    0    0 -0.00000000000E+00 -0.00000000000E+00 -0.45593999997E+02  0.45594000000E+02  0.51100000000E-03 0. -1.
    9900012    2    1    2    0    0  0.42406968200E+00 -0.35584179952E+00  0.10421772001E+01  0.90007918733E+02  0.90000182460E+02 0.  0.
         12    1    1    2    0    0 -0.42406968200E+00  0.35584179952E+00 -0.10421772001E+01  0.11800812675E+01  0.00000000000E+00 0. -1.
         11    1    3    3    0    0  0.77257740473E+00 -0.30173294682E+02  0.22027225988E+02  0.37366071145E+02  0.51100000000E-03 0. -1.
        -11    1    3    3    0    0  0.22410354201E+01 -0.67458884207E+01  0.41179253973E+01  0.82150204003E+01  0.51100000000E-03 0.  1.
        -12    1    3    3    0    0 -0.25895431428E+01  0.36563341303E+02 -0.25102974186E+02  0.44426827187E+02  0.00000000000E+00 0.  1.
</event>
<event>
 7    1  0.2084210E-015  0.9000778E+02  0.7816164E-02  0.1186339E+00
        -11   -1    0    0    0    0  0.00000000000E+00  0.00000000000E+00  0.45593999997E+02  0.45594000000E+02  0.51100000000E-03 0.  1.
         11   -1    0    0    0    0 -0.00000000000E+00 -0.00000000000E+00 -0.45593999997E+02  0.45594000000E+02  0.51100000000E-03 0. -1.
    9900012    2    1    2    0    0  0.58822821869E+00 -0.32725087683E+00  0.96944540984E+00  0.90007775455E+02  0.90000037291E+02 0.  0.
         12    1    1    2    0    0 -0.58822821869E+00  0.32725087683E+00 -0.96944540984E+00  0.11802245449E+01  0.00000000000E+00 0. -1.
         11    1    3    3    0    0 -0.24623570937E+02 -0.62484843285E+01 -0.17981794353E+02  0.31124086018E+02  0.51100000000E-03 0. -1.
        -11    1    3    3    0    0 -0.14779634758E+02 -0.62823702034E+00  0.18854260477E+01  0.14912649562E+02  0.51100000000E-03 0.  1.
        -12    1    3    3    0    0  0.39991433913E+02  0.65494704720E+01  0.17065813715E+02  0.43971039874E+02  0.00000000000E+00 0.  1.
</event>
<event>
 7    1  0.2084210E-015  0.9000809E+02  0.7816164E-02  0.1186338E+00
        -11   -1    0    0    0    0  0.00000000000E+00  0.00000000000E+00  0.45593999997E+02  0.45594000000E+02  0.51100000000E-03 0.  1.
         11   -1    0    0    0    0 -0.00000000000E+00 -0.00000000000E+00 -0.45593999997E+02  0.45594000000E+02  0.51100000000E-03 0. -1.
    9900012    2    1    2    0    0 -0.21483412134E+00 -0.38865412435E+00  0.10931548569E+01  0.90008087601E+02  0.90000353557E+02 0.  0.
         12    1    1    2    0    0  0.21483412134E+00  0.38865412435E+00 -0.10931548569E+01  0.11799123990E+01  0.00000000000E+00 0. -1.
         11    1    3    3    0    0  0.11520286923E+02  0.14902784470E+01 -0.10214448774E+00  0.11616728213E+02  0.51100000000E-03 0. -1.
        -11    1    3    3    0    0  0.30573643997E+02 -0.50358533389E+01  0.14104136824E+02  0.34044591376E+02  0.51100000000E-03 0.  1.
         12    1    3    3    0    0 -0.42308765041E+02  0.31569207676E+01 -0.12908837479E+02  0.44346768012E+02  0.00000000000E+00 0. -1.
</event>
<event>
 7    1  0.2084210E-015  0.9000772E+02  0.7816164E-02  0.1186339E+00
        -11   -1    0    0    0    0  0.00000000000E+00  0.00000000000E+00  0.45593999997E+02  0.45594000000E+02  0.51100000000E-03 0.  1.
         11   -1    0    0    0    0 -0.00000000000E+00 -0.00000000000E+00 -0.45593999997E+02  0.45594000000E+02  0.51100000000E-03 0. -1.
    9900012    2    1    2    0    0 -0.26539420369E-01 -0.11717954182E+01  0.13878760945E+00  0.90007715779E+02  0.89999976827E+02 0.  0.
         12    1    1    2    0    0  0.26539420369E-01  0.11717954182E+01 -0.13878760945E+00  0.11802842215E+01  0.00000000000E+00 0. -1.
         11    1    3    3    0    0  0.24895378111E+01 -0.12855841838E+01  0.10060645077E+02  0.10443519753E+02  0.51100000000E-03 0. -1.
        -11    1    3    3    0    0 -0.32573297067E+02 -0.13141464377E+02  0.15137139285E+02  0.38247231975E+02  0.51100000000E-03 0.  1.
         12    1    3    3    0    0  0.30057219835E+02  0.13255253142E+02 -0.25058996752E+02  0.41316964050E+02  0.00000000000E+00 0. -1.
</event>
<event>
 7    1  0.2084210E-015  0.9000777E+02  0.7816164E-02  0.1186339E+00
        -11   -1    0    0    0    0  0.00000000000E+00  0.00000000000E+00  0.45593999997E+02  0.45594000000E+02  0.51100000000E-03 0.  1.
         11   -1    0    0    0    0 -0.00000000000E+00 -0.00000000000E+00 -0.45593999997E+02  0.45594000000E+02  0.51100000000E-03 0. -1.
    9900012    2    1    2    0    0  0.20705046519E+00  0.11455670301E+01  0.19428586114E+00  0.90007770907E+02  0.90000032683E+02 0.  0.
         12    1    1    2    0    0 -0.20705046519E+00 -0.11455670301E+01 -0.19428586114E+00  0.11802290928E+01  0.00000000000E+00 0. -1.
         11    1    3    3    0    0  0.15146263928E+01 -0.12753842535E+02 -0.35174125747E+02  0.37445610088E+02  0.51100000000E-03 0. -1.
        -11    1    3    3    0    0  0.71147822540E+01  0.66166664261E+01 -0.48299272742E+01  0.10850281049E+02  0.51100000000E-03 0.  1.
        -12    1    3    3    0    0 -0.84223581816E+01  0.72827431392E+01  0.40198338883E+02  0.41711879770E+02  0.00000000000E+00 0.  1.
</event>
<event>
 7    1  0.2084210E-015  0.9000790E+02  0.7816164E-02  0.1186339E+00
        -11   -1    0    0    0    0  0.00000000000E+00  0.00000000000E+00  0.45593999997E+02  0.45594000000E+02  0.51100000000E-03 0. -1.
         11   -1    0    0    0    0 -0.00000000000E+00 -0.00000000000E+00 -0.45593999997E+02  0.45594000000E+02  0.51100000000E-03 0.  1.
    9900012    2    1    2    0    0 -0.40805532752E+00 -0.98439020279E+00 -0.50705352070E+00  0.90007899795E+02  0.90000163272E+02 0.  0.
         12    1    1    2    0    0  0.40805532752E+00  0.98439020279E+00  0.50705352070E+00  0.11801002053E+01  0.00000000000E+00 0. -1.
         11    1    3    3    0    0 -0.31209108836E+01 -0.70221566048E+01  0.80431416685E+01  0.11123978438E+02  0.51100000000E-03 0. -1.
        -11    1    3    3    0    0  0.16908635481E+02 -0.27513504031E+02 -0.23047271778E+02  0.39674571133E+02  0.51100000000E-03 0.  1.
         12    1    3    3    0    0 -0.14195779925E+02  0.33551270433E+02  0.14497076589E+02  0.39209350224E+02  0.00000000000E+00 0. -1.
</event>
<event>
 7    1  0.2084210E-015  0.9000776E+02  0.7816164E-02  0.1186339E+00
        -11   -1    0    0    0    0  0.00000000000E+00  0.00000000000E+00  0.45593999997E+02  0.45594000000E+02  0.51100000000E-03 0. -1.
         11   -1    0    0    0    0 -0.00000000000E+00 -0.00000000000E+00 -0.45593999997E+02  0.45594000000E+02  0.51100000000E-03 0.  1.
    9900012    2    1    2    0    0  0.65312000076E+00 -0.43340122620E+00  0.88235836072E+00  0.90007763314E+02  0.90000024990E+02 0.  0.
         12    1    1    2    0    0 -0.65312000076E+00  0.43340122620E+00 -0.88235836072E+00  0.11802366860E+01  0.00000000000E+00 0. -1.
         11    1    3    3    0    0 -0.14938885309E+02  0.30938831021E+02 -0.13168859983E+02  0.36794027134E+02  0.51100000000E-03 0. -1.
        -11    1    3    3    0    0 -0.76070624525E+01  0.42256342925E+01  0.38540653274E+01  0.95172056896E+01  0.51100000000E-03 0.  1.
        -12    1    3    3    0    0  0.23199067762E+02 -0.35597866540E+02  0.10197153017E+02  0.43696530490E+02  0.00000000000E+00 0.  1.
</event>
<event>
 7    1  0.2084210E-015  0.9000755E+02  0.7816164E-02  0.1186339E+00
        -11   -1    0    0    0    0  0.00000000000E+00  0.00000000000E+00  0.45593999997E+02  0.45594000000E+02  0.51100000000E-03 0. -1.
         11   -1    0    0    0    0 -0.00000000000E+00 -0.00000000000E+00 -0.45593999997E+02  0.45594000000E+02  0.51100000000E-03 0.  1.
    9900012    2    1    2    0    0  0.49385193567E+00  0.10484488234E+01 -0.22434872597E+00  0.90007547959E+02  0.89999806792E+02 0.  0.
         12    1    1    2    0    0 -0.49385193567E+00 -0.10484488234E+01  0.22434872597E+00  0.11804520407E+01  0.00000000000E+00 0. -1.
         11    1    3    3    0    0  0.15270677833E+02  0.32273347146E+02 -0.70203719640E+01  0.36387472573E+02  0.51100000000E-03 0. -1.
        -11    1    3    3    0    0  0.54072928928E+00  0.86203670310E+01  0.67009675841E+01  0.10931883769E+02  0.51100000000E-03 0.  1.
        -12    1    3    3    0    0 -0.15317555187E+02 -0.39845265353E+02  0.95055653952E-01  0.42688191617E+02  0.00000000000E+00 0.  1.
</event>
<event>
 7    1  0.2084210E-015  0.9000793E+02  0.7816164E-02  0.1186339E+00
        -11   -1    0    0    0    0  0.00000000000E+00  0.00000000000E+00  0.45593999997E+02  0.45594000000E+02  0.51100000000E-03 0.  1.
         11   -1    0    0    0    0 -0.00000000000E+00 -0.00000000000E+00 -0.45593999997E+02  0.45594000000E+02  0.51100000000E-03 0. -1.
    9900012    2    1    2    0    0  0.10749121713E+00  0.81845430390E+00  0.84328687493E+00  0.90007934509E+02  0.90000198444E+02 0.  0.
         12    1    1    2    0    0 -0.10749121713E+00 -0.81845430390E+00 -0.84328687493E+00  0.11800654909E+01  0.00000000000E+00 0. -1.
         11    1    3    3    0    0 -0.36780861620E+02  0.28497214738E+01 -0.80053741430E+01  0.37749684892E+02  0.51100000000E-03 0. -1.
        -11    1    3    3    0    0  0.40525955713E+01 -0.14721434002E+02  0.75449565449E+01  0.17031456763E+02  0.51100000000E-03 0.  1.
        -12    1    3    3    0    0  0.32835757266E+02  0.12690166832E+02  0.13037044730E+01  0.35226792854E+02  0.00000000000E+00 0.  1.
</event>
<event>
 7    1  0.2084210E-015  0.9000774E+02  0.7816164E-02  0.1186339E+00
        -11   -1    0    0    0    0  0.00000000000E+00  0.00000000000E+00  0.45593999997E+02  0.45594000000E+02  0.51100000000E-03 0. -1.
         11   -1    0    0    0    0 -0.00000000000E+00 -0.00000000000E+00 -0.45593999997E+02  0.45594000000E+02  0.51100000000E-03 0.  1.
    9900012    2    1    2    0    0 -0.97493176159E-01  0.11759729517E+01  0.24599711758E-01  0.90007736280E+02  0.89999997599E+02 0.  0.
         12    1    1    2    0    0  0.97493176159E-01 -0.11759729517E+01 -0.24599711758E-01  0.11802637198E+01  0.00000000000E+00 0. -1.
         11    1    3    3    0    0 -0.26891403630E+02 -0.28077816936E+02  0.13464492460E+02  0.41143698795E+02  0.51100000000E-03 0. -1.
        -11    1    3    3    0    0  0.27739315190E+01  0.61740372230E+01  0.70358389550E+01  0.97630149936E+01  0.51100000000E-03 0.  1.
        -12    1    3    3    0    0  0.24019978935E+02  0.23079752665E+02 -0.20475731704E+02  0.39101022491E+02  0.00000000000E+00 0.  1.
</event>
<event>
 7    1  0.2084210E-015  0.9000764E+02  0.7816164E-02  0.1186339E+00
        -11   -1    0    0    0    0  0.00000000000E+00  0.00000000000E+00  0.45593999997E+02  0.45594000000E+02  0.51100000000E-03 0. -1.
         11   -1    0    0    0    0 -0.00000000000E+00 -0.00000000000E+00 -0.45593999997E+02  0.45594000000E+02  0.51100000000E-03 0.  1.
    9900012    2    1    2    0    0 -0.86904137282E+00  0.54503440580E+00  0.58390610769E+00  0.90007643379E+02  0.89999903471E+02 0.  0.
         12    1    1    2    0    0  0.86904137282E+00 -0.54503440580E+00 -0.58390610769E+00  0.11803566214E+01  0.00000000000E+00 0. -1.
         11    1    3    3    0    0  0.12744474965E+01  0.67914178713E+01 -0.62185558789E+01  0.92961287966E+01  0.51100000000E-03 0. -1.
        -11    1    3    3    0    0 -0.62559670920E+00  0.16249479733E+02 -0.31965323829E+02  0.35863893968E+02  0.51100000000E-03 0.  1.
         12    1    3    3    0    0 -0.15178921601E+01 -0.22495863199E+02  0.38767785815E+02  0.44847620613E+02  0.00000000000E+00 0. -1.
</event>
<event>
 7    1  0.2084210E-015  0.9000775E+02  0.7816164E-02  0.1186339E+00
        -11   -1    0    0    0    0  0.00000000000E+00  0.00000000000E+00  0.45593999997E+02  0.45594000000E+02  0.51100000000E-03 0.  1.
         11   -1    0    0    0    0 -0.00000000000E+00 -0.00000000000E+00 -0.45593999997E+02  0.45594000000E+02  0.51100000000E-03 0. -1.
    9900012    2    1    2    0    0 -0.66446040205E+00  0.94729519578E+00  0.23261204480E+00  0.90007752493E+02  0.90000014026E+02 0.  0.
         12    1    1    2    0    0  0.66446040205E+00 -0.94729519578E+00 -0.23261204480E+00  0.11802475068E+01  0.00000000000E+00 0. -1.
         11    1    3    3    0    0 -0.36552460552E+02 -0.12286208331E+02 -0.21212587428E+02  0.44011443434E+02  0.51100000000E-03 0. -1.
        -11    1    3    3    0    0  0.51771786066E+01  0.77175702648E+01  0.30790949317E+01  0.97900406013E+01  0.51100000000E-03 0.  1.
        -12    1    3    3    0    0  0.30710821543E+02  0.55159332616E+01  0.18366104541E+02  0.36206268457E+02  0.00000000000E+00 0.  1.
</event>
<event>
 7    1  0.2084210E-015  0.9000787E+02  0.7816164E-02  0.1186339E+00
        -11   -1    0    0    0    0  0.00000000000E+00  0.00000000000E+00  0.45593999997E+02  0.45594000000E+02  0.51100000000E-03 0. -1.
         11   -1    0    0    0    0 -0.00000000000E+00 -0.00000000000E+00 -0.45593999997E+02  0.45594000000E+02  0.51100000000E-03 0.  1.
    9900012    2    1    2    0    0 -0.10388866527E+01 -0.70727166438E-01 -0.55535830892E+00  0.90007868372E+02  0.90000131434E+02 0.  0.
         12    1    1    2    0    0  0.10388866527E+01  0.70727166438E-01  0.55535830892E+00  0.11801316285E+01  0.00000000000E+00 0. -1.
         11    1    3    3    0    0 -0.44227399663E+01  0.87291517101E+01 -0.99310470055E+00  0.98359023782E+01  0.51100000000E-03 0. -1.
        -11    1    3    3    0    0 -0.29239711425E+02 -0.13048702707E+02 -0.23303108143E+02  0.39601315836E+02  0.51100000000E-03 0.  1.
         12    1    3    3    0    0  0.32623564738E+02  0.42488238305E+01  0.23740854534E+02  0.40570650158E+02  0.00000000000E+00 0. -1.
</event>
<event>
 7    1  0.2084210E-015  0.9000782E+02  0.7816164E-02  0.1186339E+00
        -11   -1    0    0    0    0  0.00000000000E+00  0.00000000000E+00  0.45593999997E+02  0.45594000000E+02  0.51100000000E-03 0.  1.
         11   -1    0    0    0    0 -0.00000000000E+00 -0.00000000000E+00 -0.45593999997E+02  0.45594000000E+02  0.51100000000E-03 0. -1.
    9900012    2    1    2    0    0 -0.99372371591E+00 -0.48949507855E+00  0.40710969871E+00  0.90007817572E+02  0.90000079964E+02 0.  0.
         12    1    1    2    0    0  0.99372371591E+00  0.48949507855E+00 -0.40710969871E+00  0.11801824275E+01  0.00000000000E+00 0. -1.
         11    1    3    3    0    0 -0.18489710842E+02 -0.23525752603E+01 -0.34941548142E+02  0.39601967175E+02  0.51100000000E-03 0. -1.
        -11    1    3    3    0    0  0.10591337122E+02 -0.29628720528E+00 -0.32909741035E+01  0.11094805945E+02  0.51100000000E-03 0.  1.
        -12    1    3    3    0    0  0.69046500038E+01  0.21593673870E+01  0.38639631944E+02  0.39311044452E+02  0.00000000000E+00 0.  1.
</event>
<event>
 7    1  0.2084210E-015  0.9000770E+02  0.7816164E-02  0.1186339E+00
        -11   -1    0    0    0    0  0.00000000000E+00  0.00000000000E+00  0.45593999997E+02  0.45594000000E+02  0.51100000000E-03 0. -1.
         11   -1    0    0    0    0 -0.00000000000E+00 -0.00000000000E+00 -0.45593999997E+02  0.45594000000E+02  0.51100000000E-03 0.  1.
    9900012    2    1    2    0    0 -0.11462579683E+01 -0.19297893803E+00  0.20484474765E+00  0.90007699373E+02  0.89999960204E+02 0.  0.
         12    1    1    2    0    0  0.11462579683E+01  0.19297893803E+00 -0.20484474765E+00  0.11803006274E+01  0.00000000000E+00 0. -1.
         11    1    3    3    0    0  0.95165980905E+01  0.27672403673E+01  0.18054377050E+01  0.10073870360E+02  0.51100000000E-03 0. -1.
        -11    1    3    3    0    0  0.16668837187E+01  0.37397524277E+02  0.26075380930E+01  0.37525359139E+02  0.51100000000E-03 0.  1.
         12    1    3    3    0    0 -0.12329739777E+02 -0.40357743582E+02 -0.42081310503E+01  0.42408469873E+02  0.00000000000E+00 0. -1.
</event>
<event>
 7    1  0.2084210E-015  0.9000767E+02  0.7816164E-02  0.1186339E+00
        -11   -1    0    0    0    0  0.00000000000E+00  0.00000000000E+00  0.45593999997E+02  0.45594000000E+02  0.51100000000E-03 0.  1.
         11   -1    0    0    0    0 -0.00000000000E+00 -0.00000000000E+00 -0.45593999997E+02  0.45594000000E+02  0.51100000000E-03 0. -1.
    9900012    2    1    2    0    0  0.11349292091E+01 -0.28776039587E+00 -0.14935720788E+00  0.90007670414E+02  0.89999930864E+02 0.  0.
         12    1    1    2    0    0 -0.11349292091E+01  0.28776039587E+00  0.14935720788E+00  0.11803295856E+01  0.00000000000E+00 0. -1.
         11    1    3    3    0    0 -0.63130320514E+01 -0.14832728470E+01  0.62008605546E+01  0.89724658762E+01  0.51100000000E-03 0. -1.
        -11    1    3    3    0    0 -0.78834686644E+01  0.21878446485E+02  0.29082164543E+02  0.37236914393E+02  0.51100000000E-03 0.  1.
         12    1    3    3    0    0  0.15331429925E+02 -0.20682934034E+02 -0.35432382305E+02  0.43798290145E+02  0.00000000000E+00 0. -1.
</event>
<event>
 7    1  0.2084210E-015  0.9000779E+02  0.7816164E-02  0.1186339E+00
        -11   -1    0    0    0    0  0.00000000000E+00  0.00000000000E+00  0.45593999997E+02  0.45594000000E+02  0.51100000000E-03 0. -1.
         11   -1    0    0    0    0 -0.00000000000E+00 -0.00000000000E+00 -0.45593999997E+02  0.45594000000E+02  0.51100000000E-03 0.  1.
    9900012    2    1    2    0    0  0.10780970027E+01  0.21717220952E+00 -0.42829675041E+00  0.90007790263E+02  0.90000052295E+02 0.  0.
         12    1    1    2    0    0 -0.10780970027E+01 -0.21717220952E+00  0.42829675041E+00  0.11802097366E+01  0.00000000000E+00 0. -1.
         11    1    3    3    0    0 -0.37864311513E+02  0.41239153774E+01  0.29974456367E+01  0.38205987030E+02  0.51100000000E-03 0. -1.
        -11    1    3    3    0    0 -0.61603899620E+01 -0.18404841702E+01  0.68050521405E+00  0.64653595470E+01  0.51100000000E-03 0.  1.
        -12    1    3    3    0    0  0.45102798477E+02 -0.20662589977E+01 -0.41062476012E+01  0.45336443686E+02  0.00000000000E+00 0.  1.
</event>
<event>
 7    1  0.2084210E-015  0.9000773E+02  0.7816164E-02  0.1186339E+00
        -11   -1    0    0    0    0  0.00000000000E+00  0.00000000000E+00  0.45593999997E+02  0.45594000000E+02  0.51100000000E-03 0. -1.
         11   -1    0    0    0    0 -0.00000000000E+00 -0.00000000000E+00 -0.45593999997E+02  0.45594000000E+02  0.51100000000E-03 0.  1.
    9900012    2    1    2    0    0 -0.92855734920E+00 -0.16334418045E+00 -0.71002831571E+00  0.90007728726E+02  0.89999989945E+02 0.  0.
         12    1    1    2    0    0  0.92855734920E+00  0.16334418045E+00  0.71002831571E+00  0.11802712744E+01  0.00000000000E+00 0. -1.
         11    1    3    3    0    0  0.34297846713E+02 -0.12977488607E+02 -0.12240682078E+02  0.38659950824E+02  0.51100000000E-03 0. -1.
        -11    1    3    3    0    0 -0.42125225398E+01 -0.55191001533E+01 -0.78160199064E+01  0.10454471775E+02  0.51100000000E-03 0.  1.
        -12    1    3    3    0    0 -0.31013881523E+02  0.18333244580E+02  0.19346673669E+02  0.40893306127E+02  0.00000000000E+00 0.  1.
</event>
<event>
 7    1  0.2084210E-015  0.9000779E+02  0.7816164E-02  0.1186339E+00
        -11   -1    0    0    0    0  0.00000000000E+00  0.00000000000E+00  0.45593999997E+02  0.45594000000E+02  0.51100000000E-03 0. -1.
         11   -1    0    0    0    0 -0.00000000000E+00 -0.00000000000E+00 -0.45593999997E+02  0.45594000000E+02  0.51100000000E-03 0.  1.
    9900012    2    1    2    0    0 -0.11768565428E+00 -0.87671118184E+00 -0.78130240809E+00  0.90007785671E+02  0.90000047642E+02 0.  0.
         12    1    1    2    0    0  0.11768565428E+00  0.87671118184E+00  0.78130240809E+00  0.11802143290E+01  0.00000000000E+00 0. -1.
         11    1    3    3    0    0 -0.30049880722E+01 -0.21758416020E+02  0.41569954645E+00  0.21968874059E+02  0.51100000000E-03 0. -1.
        -11    1    3    3    0    0  0.30397633726E+01 -0.20509495683E+02  0.12774546160E+02  0.24352999905E+02  0.51100000000E-03 0.  1.
        -12    1    3    3    0    0 -0.15246095467E+00  0.41391200521E+02 -0.13971548115E+02  0.43685911707E+02  0.00000000000E+00 0.  1.
</event>
<event>
 7    1  0.2084210E-015  0.9000771E+02  0.7816164E-02  0.1186339E+00
        -11   -1    0    0    0    0  0.00000000000E+00  0.00000000000E+00  0.45593999997E+02  0.45594000000E+02  0.51100000000E-03 0.  1.
         11   -1    0    0    0    0 -0.00000000000E+00 -0.00000000000E+00 -0.45593999997E+02  0.45594000000E+02  0.51100000000E-03 0. -1.
    9900012    2    1    2    0    0  0.88210965177E+00 -0.39498863004E+00 -0.67746516158E+00  0.90007706604E+02  0.89999967531E+02 0.  0.
         12    1    1    2    0    0 -0.88210965177E+00  0.39498863004E+00  0.67746516158E+00  0.11802933960E+01  0.00000000000E+00 0. -1.
         11    1    3    3    0    0 -0.34382220464E+02 -0.23085778502E+02  0.35211296301E+01  0.41563067827E+02  0.51100000000E-03 0. -1.
        -11    1    3    3    0    0 -0.15677013576E+01  0.86312355668E+01 -0.17435800541E+01  0.89440475525E+01  0.51100000000E-03 0.  1.
        -12    1    3    3    0    0  0.36832031473E+02  0.14059554305E+02 -0.24550147376E+01  0.39500591224E+02  0.00000000000E+00 0.  1.
</event>
<event>
 7    1  0.2253506E-015  0.9000786E+02  0.7816164E-02  0.1186339E+00
        -11   -1    0    0    0    0  0.00000000000E+00  0.00000000000E+00  0.45593999997E+02  0.45594000000E+02  0.51100000000E-03 0. -1.
         11   -1    0    0    0    0 -0.00000000000E+00 -0.00000000000E+00 -0.45593999997E+02  0.45594000000E+02  0.51100000000E-03 0.  1.
    9900012    2    1    2    0    0 -0.22506652692E+00  0.81275865241E+00 -0.82552399526E+00  0.90007863806E+02  0.90000126809E+02 0.  0.
         12    1    1    2    0    0  0.22506652692E+00 -0.81275865241E+00  0.82552399526E+00  0.11801361936E+01  0.00000000000E+00 0. -1.
         11    1    3    3    0    0  0.18584338349E+02  0.30298224669E+02  0.10204352207E+02  0.36979573472E+02  0.51100000000E-03 0. -1.
        -11    1    3    3    0    0  0.53261185956E+00  0.45735915605E+01  0.81923928473E+01  0.93976973765E+01  0.51100000000E-03 0.  1.
        -12    1    3    3    0    0 -0.19342016735E+02 -0.34059057577E+02 -0.19222269050E+02  0.43630592958E+02  0.00000000000E+00 0.  1.
</event>
<event>
 7    1  0.2084210E-015  0.9000766E+02  0.7816164E-02  0.1186339E+00
        -11   -1    0    0    0    0  0.00000000000E+00  0.00000000000E+00  0.45593999997E+02  0.45594000000E+02  0.51100000000E-03 0. -1.
         11   -1    0    0    0    0 -0.00000000000E+00 -0.00000000000E+00 -0.45593999997E+02  0.45594000000E+02  0.51100000000E-03 0.  1.
    9900012    2    1    2    0    0 -0.86057491451E-01 -0.65776156586E+00  0.97629515344E+00  0.90007657509E+02  0.89999917788E+02 0.  0.
         12    1    1    2    0    0  0.86057491451E-01  0.65776156586E+00 -0.97629515344E+00  0.11803424910E+01  0.00000000000E+00 0. -1.
         11    1    3    3    0    0 -0.28278932686E+02 -0.23851687831E+01  0.26096861777E+02  0.38554289760E+02  0.51100000000E-03 0. -1.
        -11    1    3    3    0    0  0.25147245605E+01  0.61664374415E+01  0.72847637742E+01  0.98699834773E+01  0.51100000000E-03 0.  1.
        -12    1    3    3    0    0  0.25678150634E+02 -0.44390302242E+01 -0.32405330398E+02  0.41583384272E+02  0.00000000000E+00 0.  1.
</event>
<event>
 7    1  0.2084210E-015  0.9000774E+02  0.7816164E-02  0.1186339E+00
        -11   -1    0    0    0    0  0.00000000000E+00  0.00000000000E+00  0.45593999997E+02  0.45594000000E+02  0.51100000000E-03 0.  1.
         11   -1    0    0    0    0 -0.00000000000E+00 -0.00000000000E+00 -0.45593999997E+02  0.45594000000E+02  0.51100000000E-03 0. -1.
    9900012    2    1    2    0    0 -0.43013733229E+00 -0.10691353359E+01 -0.25486018436E+00  0.90007736383E+02  0.89999997704E+02 0.  0.
         12    1    1    2    0    0  0.43013733229E+00  0.10691353359E+01  0.25486018436E+00  0.11802636166E+01  0.00000000000E+00 0. -1.
         11    1    3    3    0    0  0.37713588658E+02 -0.11730525563E+02  0.28181862136E+00  0.39496827993E+02  0.51100000000E-03 0. -1.
        -11    1    3    3    0    0 -0.24516088556E+01 -0.14305486664E+01  0.10792896614E+02  0.11159904706E+02  0.51100000000E-03 0.  1.
        -12    1    3    3    0    0 -0.35692117135E+02  0.12091938893E+02 -0.11329575420E+02  0.39351003685E+02  0.00000000000E+00 0.  1.
</event>
<event>
 7    1  0.2084210E-015  0.9000773E+02  0.7816164E-02  0.1186339E+00
        -11   -1    0    0    0    0  0.00000000000E+00  0.00000000000E+00  0.45593999997E+02  0.45594000000E+02  0.51100000000E-03 0.  1.
         11   -1    0    0    0    0 -0.00000000000E+00 -0.00000000000E+00 -0.45593999997E+02  0.45594000000E+02  0.51100000000E-03 0. -1.
    9900012    2    1    2    0    0  0.12301645272E+00 -0.43916548540E+00  0.10885943411E+01  0.90007730111E+02  0.89999991349E+02 0.  0.
         12    1    1    2    0    0 -0.12301645272E+00  0.43916548540E+00 -0.10885943411E+01  0.11802698889E+01  0.00000000000E+00 0. -1.
         11    1    3    3    0    0 -0.58600812239E+01 -0.34502745725E+02 -0.20089891121E+02  0.40353237046E+02  0.51100000000E-03 0. -1.
        -11    1    3    3    0    0  0.10644103486E+02  0.10156043895E+01  0.12069981331E+01  0.10760354829E+02  0.51100000000E-03 0.  1.
        -12    1    3    3    0    0 -0.46610058096E+01  0.33047975851E+02  0.19971487329E+02  0.38894138236E+02  0.00000000000E+00 0.  1.
</event>
<event>
 7    1  0.2084210E-015  0.9000792E+02  0.7816164E-02  0.1186339E+00
        -11   -1    0    0    0    0  0.00000000000E+00  0.00000000000E+00  0.45593999997E+02  0.45594000000E+02  0.51100000000E-03 0.  1.
         11   -1    0    0    0    0 -0.00000000000E+00 -0.00000000000E+00 -0.45593999997E+02  0.45594000000E+02  0.51100000000E-03 0. -1.
    9900012    2    1    2    0    0 -0.69546173653E-01 -0.61632733645E+00  0.10039349061E+01  0.90007923159E+02  0.90000186944E+02 0.  0.
         12    1    1    2    0    0  0.69546173653E-01  0.61632733645E+00 -0.10039349061E+01  0.11800768414E+01  0.00000000000E+00 0. -1.
         11    1    3    3    0    0 -0.54483871829E+01 -0.55929109207E+01  0.47675400150E+01  0.91484978831E+01  0.51100000000E-03 0. -1.
        -11    1    3    3    0    0 -0.26872768885E+02 -0.14614497163E+02  0.19736962285E+02  0.36404352973E+02  0.51100000000E-03 0.  1.
         12    1    3    3    0    0  0.32251609894E+02  0.19591080747E+02 -0.23500567394E+02  0.44455072303E+02  0.00000000000E+00 0. -1.
</event>
<event>
 7    1  0.2084210E-015  0.9000781E+02  0.7816164E-02  0.1186339E+00
        -11   -1    0    0    0    0  0.00000000000E+00  0.00000000000E+00  0.45593999997E+02  0.45594000000E+02  0.51100000000E-03 0.  1.
         11   -1    0    0    0    0 -0.00000000000E+00 -0.00000000000E+00 -0.45593999997E+02  0.45594000000E+02  0.51100000000E-03 0. -1.
    9900012    2    1    2    0    0 -0.82265219882E+00  0.84530782305E+00  0.39383345466E-01  0.90007808065E+02  0.90000070331E+02 0.  0.
         12    1    1    2    0    0  0.82265219882E+00 -0.84530782305E+00 -0.39383345466E-01  0.11801919352E+01  0.00000000000E+00 0. -1.
         11    1    3    3    0    0  0.95134151197E+01  0.21862592880E+02  0.15310199000E+02  0.28335141227E+02  0.51100000000E-03 0. -1.
        -11    1    3    3    0    0 -0.74335737676E+01  0.14385350994E+02  0.91193085458E+01  0.18583813678E+02  0.51100000000E-03 0.  1.
        -12    1    3    3    0    0 -0.29024935509E+01 -0.35402636051E+02 -0.24390124200E+02  0.43088853160E+02  0.00000000000E+00 0.  1.
</event>
<event>
 7    1  0.2084210E-015  0.9000774E+02  0.7816164E-02  0.1186339E+00
        -11   -1    0    0    0    0  0.00000000000E+00  0.00000000000E+00  0.45593999997E+02  0.45594000000E+02  0.51100000000E-03 0.  1.
         11   -1    0    0    0    0 -0.00000000000E+00 -0.00000000000E+00 -0.45593999997E+02  0.45594000000E+02  0.51100000000E-03 0. -1.
    9900012    2    1    2    0    0 -0.10918671161E+01 -0.32961980146E+00  0.30363705867E+00  0.90007737963E+02  0.89999999304E+02 0.  0.
         12    1    1    2    0    0  0.10918671161E+01  0.32961980146E+00 -0.30363705867E+00  0.11802620371E+01  0.00000000000E+00 0. -1.
         11    1    3    3    0    0 -0.10281636175E+02 -0.76015278138E+01 -0.49637378196E+01  0.13716193384E+02  0.51100000000E-03 0. -1.
        -11    1    3    3    0    0  0.17610701559E+02 -0.26961538084E+02 -0.15109944263E+02  0.35572064337E+02  0.51100000000E-03 0.  1.
         12    1    3    3    0    0 -0.84209325004E+01  0.34233446097E+02  0.20377319141E+02  0.40719480242E+02  0.00000000000E+00 0. -1.
</event>
<event>
 7    1  0.2084210E-015  0.9000753E+02  0.7816164E-02  0.1186339E+00
        -11   -1    0    0    0    0  0.00000000000E+00  0.00000000000E+00  0.45593999997E+02  0.45594000000E+02  0.51100000000E-03 0.  1.
         11   -1    0    0    0    0 -0.00000000000E+00 -0.00000000000E+00 -0.45593999997E+02  0.45594000000E+02  0.51100000000E-03 0. -1.
    9900012    2    1    2    0    0 -0.42724442615E+00  0.10939904223E+01  0.11898509343E+00  0.90007529629E+02  0.89999788220E+02 0.  0.
         12    1    1    2    0    0  0.42724442615E+00 -0.10939904223E+01 -0.11898509343E+00  0.11804703707E+01  0.00000000000E+00 0. -1.
         11    1    3    3    0    0 -0.44852639911E+00  0.90614010015E+00  0.54708300063E+01  0.55634743668E+01  0.51100000000E-03 0. -1.
        -11    1    3    3    0    0 -0.39108152727E+02  0.15619956734E+02 -0.47293127494E+01  0.42376845770E+02  0.51100000000E-03 0.  1.
         12    1    3    3    0    0  0.39129434700E+02 -0.15432106412E+02 -0.62253216346E+00  0.42067209493E+02  0.00000000000E+00 0. -1.
</event>
<event>
 7    1  0.2084210E-015  0.9000780E+02  0.7816164E-02  0.1186339E+00
        -11   -1    0    0    0    0  0.00000000000E+00  0.00000000000E+00  0.45593999997E+02  0.45594000000E+02  0.51100000000E-03 0. -1.
         11   -1    0    0    0    0 -0.00000000000E+00 -0.00000000000E+00 -0.45593999997E+02  0.45594000000E+02  0.51100000000E-03 0.  1.
    9900012    2    1    2    0    0 -0.11626513885E+01 -0.20210652516E+00 -0.16478268893E-01  0.90007797970E+02  0.90000060103E+02 0.  0.
         12    1    1    2    0    0  0.11626513885E+01  0.20210652516E+00  0.16478268893E-01  0.11802020302E+01  0.00000000000E+00 0. -1.
         11    1    3    3    0    0 -0.27327071956E+01  0.46541858697E-01  0.90301216153E+01  0.94346675304E+01  0.51100000000E-03 0. -1.
        -11    1    3    3    0    0  0.16381350480E+02  0.35339691719E+02  0.55690129864E+01  0.39347888891E+02  0.51100000000E-03 0.  1.
         12    1    3    3    0    0 -0.14811294673E+02 -0.35588340102E+02 -0.14615612871E+02  0.41225241548E+02  0.00000000000E+00 0. -1.
</event>
<event>
 7    1  0.2084210E-015  0.9000807E+02  0.7816164E-02  0.1186338E+00
        -11   -1    0    0    0    0  0.00000000000E+00  0.00000000000E+00  0.45593999997E+02  0.45594000000E+02  0.51100000000E-03 0. -1.
         11   -1    0    0    0    0 -0.00000000000E+00 -0.00000000000E+00 -0.45593999997E+02  0.45594000000E+02  0.51100000000E-03 0.  1.
    9900012    2    1    2    0    0 -0.10528240657E+01 -0.19124232395E+00  0.49721647843E+00  0.90008069338E+02  0.90000335053E+02 0.  0.
         12    1    1    2    0    0  0.10528240657E+01  0.19124232395E+00 -0.49721647843E+00  0.11799306616E+01  0.00000000000E+00 0. -1.
         11    1    3    3    0    0 -0.40525044254E+02 -0.10074729574E+02  0.69944782843E+01  0.42340313113E+02  0.51100000000E-03 0. -1.
        -11    1    3    3    0    0  0.35154417876E+01 -0.10099717862E+01 -0.92992494769E+01  0.99927181020E+01  0.51100000000E-03 0.  1.
        -12    1    3    3    0    0  0.35956778400E+02  0.10893459036E+02  0.28019876711E+01  0.37675038124E+02  0.00000000000E+00 0.  1.
</event>
<event>
 7    1  0.2084210E-015  0.9000778E+02  0.7816164E-02  0.1186339E+00
        -11   -1    0    0    0    0  0.00000000000E+00  0.00000000000E+00  0.45593999997E+02  0.45594000000E+02  0.51100000000E-03 0.  1.
         11   -1    0    0    0    0 -0.00000000000E+00 -0.00000000000E+00 -0.45593999997E+02  0.45594000000E+02  0.51100000000E-03 0. -1.
    9900012    2    1    2    0    0 -0.27490658856E+00 -0.91044787094E+00  0.69887209249E+00  0.90007783427E+02  0.90000045368E+02 0.  0.
         12    1    1    2    0    0  0.27490658856E+00  0.91044787094E+00 -0.69887209249E+00  0.11802165733E+01  0.00000000000E+00 0. -1.
         11    1    3    3    0    0 -0.43585077514E+01 -0.84358001539E+01 -0.39092599996E+01  0.10268477397E+02  0.51100000000E-03 0. -1.
        -11    1    3    3    0    0 -0.33875298655E+02 -0.89096040033E+01  0.13307987009E+02  0.37470247143E+02  0.51100000000E-03 0.  1.
         12    1    3    3    0    0  0.37958899818E+02  0.16434956286E+02 -0.86998549164E+01  0.42269058886E+02  0.00000000000E+00 0. -1.
</event>
<event>
 7    1  0.2084210E-015  0.9000759E+02  0.7816164E-02  0.1186339E+00
        -11   -1    0    0    0    0  0.00000000000E+00  0.00000000000E+00  0.45593999997E+02  0.45594000000E+02  0.51100000000E-03 0. -1.
         11   -1    0    0    0    0 -0.00000000000E+00 -0.00000000000E+00 -0.45593999997E+02  0.45594000000E+02  0.51100000000E-03 0.  1.
    9900012    2    1    2    0    0  0.26606462106E+00  0.11115849979E+01 -0.29489449816E+00  0.90007587210E+02  0.89999846561E+02 0.  0.
         12    1    1    2    0    0 -0.26606462106E+00 -0.11115849979E+01  0.29489449816E+00  0.11804127902E+01  0.00000000000E+00 0. -1.
         11    1    3    3    0    0  0.14361269834E+00  0.13350115714E+02 -0.31570004047E+00  0.13354620210E+02  0.51100000000E-03 0. -1.
        -11    1    3    3    0    0  0.27103385402E+01  0.30954797707E+02  0.92258567329E+01  0.32413914740E+02  0.51100000000E-03 0.  1.
         12    1    3    3    0    0 -0.25878866175E+01 -0.43193328423E+02 -0.92050511906E+01  0.44239052259E+02  0.00000000000E+00 0. -1.
</event>
<event>
 7    1  0.2084210E-015  0.9000798E+02  0.7816164E-02  0.1186339E+00
        -11   -1    0    0    0    0  0.00000000000E+00  0.00000000000E+00  0.45593999997E+02  0.45594000000E+02  0.51100000000E-03 0. -1.
         11   -1    0    0    0    0 -0.00000000000E+00 -0.00000000000E+00 -0.45593999997E+02  0.45594000000E+02  0.51100000000E-03 0.  1.
    9900012    2    1    2    0    0  0.91251856393E+00  0.73685074427E+00 -0.12965881945E+00  0.90007978577E+02  0.90000243094E+02 0.  0.
         12    1    1    2    0    0 -0.91251856393E+00 -0.73685074427E+00  0.12965881945E+00  0.11800214228E+01  0.00000000000E+00 0. -1.
         11    1    3    3    0    0  0.19811542631E+02 -0.25012385868E+01  0.36729312295E+02  0.41806647770E+02  0.51100000000E-03 0. -1.
        -11    1    3    3    0    0  0.59839403772E+01  0.24242883824E+00 -0.75860668420E+01  0.96651293096E+01  0.51100000000E-03 0.  1.
        -12    1    3    3    0    0 -0.24882964444E+02  0.29956604928E+01 -0.29272904272E+02  0.38536201497E+02  0.00000000000E+00 0.  1.
</event>
<event>
 7    1  0.2084210E-015  0.9000777E+02  0.7816164E-02  0.1186339E+00
        -11   -1    0    0    0    0  0.00000000000E+00  0.00000000000E+00  0.45593999997E+02  0.45594000000E+02  0.51100000000E-03 0.  1.
         11   -1    0    0    0    0 -0.00000000000E+00 -0.00000000000E+00 -0.45593999997E+02  0.45594000000E+02  0.51100000000E-03 0. -1.
    9900012    2    1    2    0    0  0.88250436378E+00  0.76107747976E+00 -0.18677371591E+00  0.90007772351E+02  0.90000034146E+02 0.  0.
         12    1    1    2    0    0 -0.88250436378E+00 -0.76107747976E+00  0.18677371591E+00  0.11802276489E+01  0.00000000000E+00 0. -1.
         11    1    3    3    0    0 -0.71810492259E+01 -0.48010856853E+01  0.42853154119E+01  0.96427081353E+01  0.51100000000E-03 0. -1.
        -11    1    3    3    0    0  0.32564321768E+01  0.20816344845E+02  0.33266388592E+02  0.39377368798E+02  0.51100000000E-03 0.  1.
         12    1    3    3    0    0  0.48071214129E+01 -0.15254181680E+02 -0.37738477720E+02  0.40987695418E+02  0.00000000000E+00 0. -1.
</event>
<event>
 7    1  0.2084210E-015  0.9000725E+02  0.7816164E-02  0.1186340E+00
        -11   -1    0    0    0    0  0.00000000000E+00  0.00000000000E+00  0.45593999997E+02  0.45594000000E+02  0.51100000000E-03 0.  1.
         11   -1    0    0    0    0 -0.00000000000E+00 -0.00000000000E+00 -0.45593999997E+02  0.45594000000E+02  0.51100000000E-03 0. -1.
    9900012    2    1    2    0    0  0.44871018993E+00 -0.10847130145E+01  0.12738137571E+00  0.90007250588E+02  0.89999505495E+02 0.  0.
         12    1    1    2    0    0 -0.44871018993E+00  0.10847130145E+01 -0.12738137571E+00  0.11807494117E+01  0.00000000000E+00 0. -1.
         11    1    3    3    0    0 -0.34801993186E+02  0.15239333978E+01 -0.47067578589E+01  0.35151880071E+02  0.51100000000E-03 0. -1.
        -11    1    3    3    0    0 -0.96249386509E+01  0.24381129372E+00 -0.18823622799E-01  0.96280445870E+01  0.51100000000E-03 0.  1.
        -12    1    3    3    0    0  0.44875642027E+02 -0.28524577061E+01  0.48529628574E+01  0.45227325930E+02  0.00000000000E+00 0.  1.
</event>
<event>
 7    1  0.2084210E-015  0.9000780E+02  0.7816164E-02  0.1186339E+00
        -11   -1    0    0    0    0  0.00000000000E+00  0.00000000000E+00  0.45593999997E+02  0.45594000000E+02  0.51100000000E-03 0.  1.
         11   -1    0    0    0    0 -0.00000000000E+00 -0.00000000000E+00 -0.45593999997E+02  0.45594000000E+02  0.51100000000E-03 0. -1.
    9900012    2    1    2    0    0  0.36650801285E+00 -0.11156873956E+01 -0.11742883215E+00  0.90007798314E+02  0.90000060452E+02 0.  0.
         12    1    1    2    0    0 -0.36650801285E+00  0.11156873956E+01  0.11742883215E+00  0.11802016856E+01  0.00000000000E+00 0. -1.
         11    1    3    3    0    0  0.19405537830E+02 -0.22442638570E+02 -0.20177715820E+02  0.35880177542E+02  0.51100000000E-03 0. -1.
        -11    1    3    3    0    0  0.71631604182E+01 -0.38472982898E+01 -0.53989390233E+01  0.97601800263E+01  0.51100000000E-03 0.  1.
        -12    1    3    3    0    0 -0.26202190235E+02  0.25174249465E+02  0.25459226011E+02  0.44367440746E+02  0.00000000000E+00 0.  1.
</event>
<event>
 7    1  0.2084210E-015  0.9000776E+02  0.7816164E-02  0.1186339E+00
        -11   -1    0    0    0    0  0.00000000000E+00  0.00000000000E+00  0.45593999997E+02  0.45594000000E+02  0.51100000000E-03 0.  1.
         11   -1    0    0    0    0 -0.00000000000E+00 -0.00000000000E+00 -0.45593999997E+02  0.45594000000E+02  0.51100000000E-03 0. -1.
    9900012    2    1    2    0    0 -0.52184068227E+00 -0.90177512951E+00  0.55448375170E+00  0.90007759214E+02  0.90000020836E+02 0.  0.
         12    1    1    2    0    0  0.52184068227E+00  0.90177512951E+00 -0.55448375170E+00  0.11802407859E+01  0.00000000000E+00 0. -1.
         11    1    3    3    0    0  0.35539310634E+02  0.20781294783E-01 -0.18580079523E+02  0.40103146853E+02  0.51100000000E-03 0. -1.
        -11    1    3    3    0    0 -0.42944018714E+01  0.87888577485E+01 -0.27065627191E+01  0.10149452693E+02  0.51100000000E-03 0.  1.
        -12    1    3    3    0    0 -0.31766749445E+02 -0.97114141728E+01  0.21841125994E+02  0.39755159668E+02  0.00000000000E+00 0.  1.
</event>
<event>
 7    1  0.2084210E-015  0.9000796E+02  0.7816164E-02  0.1186339E+00
        -11   -1    0    0    0    0  0.00000000000E+00  0.00000000000E+00  0.45593999997E+02  0.45594000000E+02  0.51100000000E-03 0. -1.
         11   -1    0    0    0    0 -0.00000000000E+00 -0.00000000000E+00 -0.45593999997E+02  0.45594000000E+02  0.51100000000E-03 0.  1.
    9900012    2    1    2    0    0  0.97392468084E+00 -0.60499737434E+00 -0.27917985038E+00  0.90007960808E+02  0.90000225090E+02 0.  0.
         12    1    1    2    0    0 -0.97392468084E+00  0.60499737434E+00  0.27917985038E+00  0.11800391925E+01  0.00000000000E+00 0. -1.
         11    1    3    3    0    0  0.76458821385E+01 -0.42909434729E+01 -0.80933049523E+00  0.88049262163E+01  0.51100000000E-03 0. -1.
        -11    1    3    3    0    0  0.23225548808E+02  0.27426437987E+02 -0.16322112197E+02  0.39472103630E+02  0.51100000000E-03 0.  1.
         12    1    3    3    0    0 -0.29897506266E+02 -0.23740491888E+02  0.16852262842E+02  0.41730930962E+02  0.00000000000E+00 0. -1.
</event>
<event>
 7    1  0.2084210E-015  0.9000793E+02  0.7816164E-02  0.1186339E+00
        -11   -1    0    0    0    0  0.00000000000E+00  0.00000000000E+00  0.45593999997E+02  0.45594000000E+02  0.51100000000E-03 0.  1.
         11   -1    0    0    0    0 -0.00000000000E+00 -0.00000000000E+00 -0.45593999997E+02  0.45594000000E+02  0.51100000000E-03 0. -1.
    9900012    2    1    2    0    0  0.65706150795E-01  0.10735483213E+01  0.48554219886E+00  0.90007926052E+02  0.90000189875E+02 0.  0.
         12    1    1    2    0    0 -0.65706150795E-01 -0.10735483213E+01 -0.48554219886E+00  0.11800739482E+01  0.00000000000E+00 0. -1.
         11    1    3    3    0    0  0.98345271872E+01  0.23016636393E+00 -0.21617167234E+00  0.98395951139E+01  0.51100000000E-03 0. -1.
        -11    1    3    3    0    0  0.30619709062E+02  0.36673696255E+01 -0.17851362362E+02  0.35632672106E+02  0.51100000000E-03 0.  1.
         12    1    3    3    0    0 -0.40388530098E+02 -0.28239876681E+01  0.18553076233E+02  0.44535658832E+02  0.00000000000E+00 0. -1.
</event>
<event>
 7    1  0.2084210E-015  0.9000770E+02  0.7816164E-02  0.1186339E+00
        -11   -1    0    0    0    0  0.00000000000E+00  0.00000000000E+00  0.45593999997E+02  0.45594000000E+02  0.51100000000E-03 0.  1.
         11   -1    0    0    0    0 -0.00000000000E+00 -0.00000000000E+00 -0.45593999997E+02  0.45594000000E+02  0.51100000000E-03 0. -1.
    9900012    2    1    2    0    0  0.90797860704E+00  0.23837363830E+00 -0.71544424703E+00  0.90007700202E+02  0.89999961045E+02 0.  0.
         12    1    1    2    0    0 -0.90797860704E+00 -0.23837363830E+00  0.71544424703E+00  0.11802997979E+01  0.00000000000E+00 0. -1.
         11    1    3    3    0    0 -0.17593638555E+02  0.31320312927E+02  0.10952824929E+02  0.37556124583E+02  0.51100000000E-03 0. -1.
        -11    1    3    3    0    0  0.57548536267E+01  0.70706817081E+01 -0.78759744457E+01  0.12047566302E+02  0.51100000000E-03 0.  1.
        -12    1    3    3    0    0  0.12746763536E+02 -0.38152620997E+02 -0.37922947308E+01  0.40404009317E+02  0.00000000000E+00 0.  1.
</event>
<event>
 7    1  0.2084210E-015  0.9000787E+02  0.7816164E-02  0.1186339E+00
        -11   -1    0    0    0    0  0.00000000000E+00  0.00000000000E+00  0.45593999997E+02  0.45594000000E+02  0.51100000000E-03 0.  1.
         11   -1    0    0    0    0 -0.00000000000E+00 -0.00000000000E+00 -0.45593999997E+02  0.45594000000E+02  0.51100000000E-03 0. -1.
    9900012    2    1    2    0    0 -0.46158296156E+00  0.38561419640E+00  0.10153519586E+01  0.90007874270E+02  0.90000137410E+02 0.  0.
         12    1    1    2    0    0  0.46158296156E+00 -0.38561419640E+00 -0.10153519586E+01  0.11801257300E+01  0.00000000000E+00 0. -1.
         11    1    3    3    0    0 -0.14000587711E+01  0.32387764318E+01  0.71664348738E+01  0.79879676013E+01  0.51100000000E-03 0. -1.
        -11    1    3    3    0    0 -0.24494018637E+02  0.47072790763E+01  0.28825459968E+02  0.38118533129E+02  0.51100000000E-03 0.  1.
         12    1    3    3    0    0  0.25432494447E+02 -0.75604413117E+01 -0.34976542883E+02  0.43901373540E+02  0.00000000000E+00 0. -1.
</event>
<event>
 7    1  0.2084210E-015  0.9000777E+02  0.7816164E-02  0.1186339E+00
        -11   -1    0    0    0    0  0.00000000000E+00  0.00000000000E+00  0.45593999997E+02  0.45594000000E+02  0.51100000000E-03 0.  1.
         11   -1    0    0    0    0 -0.00000000000E+00 -0.00000000000E+00 -0.45593999997E+02  0.45594000000E+02  0.51100000000E-03 0. -1.
    9900012    2    1    2    0    0  0.12408770790E+00 -0.10250248154E+01  0.57173045195E+00  0.90007767251E+02  0.90000028979E+02 0.  0.
         12    1    1    2    0    0 -0.12408770790E+00  0.10250248154E+01 -0.57173045195E+00  0.11802327487E+01  0.00000000000E+00 0. -1.
         11    1    3    3    0    0  0.38195663853E+01  0.38847509206E+02  0.79332893104E+01  0.39832839949E+02  0.51100000000E-03 0. -1.
        -11    1    3    3    0    0 -0.96347514335E+01 -0.46954955676E+01  0.57547364747E+01  0.12165241714E+02  0.51100000000E-03 0.  1.
        -12    1    3    3    0    0  0.59392727562E+01 -0.35177038454E+02 -0.13116295333E+02  0.38009685588E+02  0.00000000000E+00 0.  1.
</event>
<event>
 7    1  0.2084210E-015  0.9000762E+02  0.7816164E-02  0.1186339E+00
        -11   -1    0    0    0    0  0.00000000000E+00  0.00000000000E+00  0.45593999997E+02  0.45594000000E+02  0.51100000000E-03 0.  1.
         11   -1    0    0    0    0 -0.00000000000E+00 -0.00000000000E+00 -0.45593999997E+02  0.45594000000E+02  0.51100000000E-03 0. -1.
    9900012    2    1    2    0    0  0.14652595405E+00  0.69413730403E+00  0.94340077295E+00  0.90007618083E+02  0.89999877841E+02 0.  0.
         12    1    1    2    0    0 -0.14652595405E+00 -0.69413730403E+00 -0.94340077295E+00  0.11803819172E+01  0.00000000000E+00 0. -1.
         11    1    3    3    0    0 -0.19062608541E+01  0.54109104971E+01 -0.83772230615E+01  0.10153307310E+02  0.51100000000E-03 0. -1.
        -11    1    3    3    0    0  0.59419367171E+01 -0.30352462556E+02 -0.22909251879E+02  0.38489120762E+02  0.51100000000E-03 0.  1.
         12    1    3    3    0    0 -0.38891499090E+01  0.25635689363E+02  0.32229875713E+02  0.41365190010E+02  0.00000000000E+00 0. -1.
</event>
<event>
 7    1  0.2084210E-015  0.9000750E+02  0.7816164E-02  0.1186340E+00
        -11   -1    0    0    0    0  0.00000000000E+00  0.00000000000E+00  0.45593999997E+02  0.45594000000E+02  0.51100000000E-03 0. -1.
         11   -1    0    0    0    0 -0.00000000000E+00 -0.00000000000E+00 -0.45593999997E+02  0.45594000000E+02  0.51100000000E-03 0.  1.
    9900012    2    1    2    0    0  0.11272759398E+01  0.33133813554E+00 -0.11417171515E+00  0.90007503839E+02  0.89999762090E+02 0.  0.
         12    1    1    2    0    0 -0.11272759398E+01 -0.33133813554E+00  0.11417171515E+00  0.11804961605E+01  0.00000000000E+00 0. -1.
         11    1    3    3    0    0  0.71532067296E+01  0.15871497169E+01 -0.32083541528E+01  0.79988091221E+01  0.51100000000E-03 0. -1.
        -11    1    3    3    0    0 -0.35346804482E+02 -0.27719919810E+01 -0.23384247825E+02  0.42472386009E+02  0.51100000000E-03 0.  1.
         12    1    3    3    0    0  0.29320873693E+02  0.15161803997E+01  0.26478430263E+02  0.39536308709E+02  0.00000000000E+00 0. -1.
</event>
<event>
 7    1  0.2084210E-015  0.9000768E+02  0.7816164E-02  0.1186339E+00
        -11   -1    0    0    0    0  0.00000000000E+00  0.00000000000E+00  0.45593999997E+02  0.45594000000E+02  0.51100000000E-03 0.  1.
         11   -1    0    0    0    0 -0.00000000000E+00 -0.00000000000E+00 -0.45593999997E+02  0.45594000000E+02  0.51100000000E-03 0. -1.
    9900012    2    1    2    0    0  0.41061651973E+00  0.98829253865E+00  0.49782100940E+00  0.90007680626E+02  0.89999941210E+02 0.  0.
         12    1    1    2    0    0 -0.41061651973E+00 -0.98829253865E+00 -0.49782100940E+00  0.11803193744E+01  0.00000000000E+00 0. -1.
         11    1    3    3    0    0  0.23314130932E+01 -0.35500105405E+02  0.89653680890E+01  0.36688837485E+02  0.51100000000E-03 0. -1.
        -11    1    3    3    0    0  0.16665757832E+01 -0.35202928244E+01  0.87786636217E+01  0.96038987737E+01  0.51100000000E-03 0.  1.
        -12    1    3    3    0    0 -0.35873723567E+01  0.40008690768E+02 -0.17246210701E+02  0.43714944367E+02  0.00000000000E+00 0.  1.
</event>
<event>
 7    1  0.2084210E-015  0.9000772E+02  0.7816164E-02  0.1186339E+00
        -11   -1    0    0    0    0  0.00000000000E+00  0.00000000000E+00  0.45593999997E+02  0.45594000000E+02  0.51100000000E-03 0.  1.
         11   -1    0    0    0    0 -0.00000000000E+00 -0.00000000000E+00 -0.45593999997E+02  0.45594000000E+02  0.51100000000E-03 0. -1.
    9900012    2    1    2    0    0 -0.82738168268E+00  0.41400823568E+00 -0.73286193936E+00  0.90007724655E+02  0.89999985820E+02 0.  0.
         12    1    1    2    0    0  0.82738168268E+00 -0.41400823568E+00  0.73286193936E+00  0.11802753451E+01  0.00000000000E+00 0. -1.
         11    1    3    3    0    0  0.14851701380E+02 -0.45957795317E+01 -0.34118512425E+02  0.37493560964E+02  0.51100000000E-03 0. -1.
        -11    1    3    3    0    0 -0.51817538992E+01 -0.84300223566E+01 -0.45728886063E+01  0.10900787168E+02  0.51100000000E-03 0.  1.
        -12    1    3    3    0    0 -0.10497329164E+02  0.13439810124E+02  0.37958539092E+02  0.41613376524E+02  0.00000000000E+00 0.  1.
</event>
<event>
 7    1  0.2084210E-015  0.9000778E+02  0.7816164E-02  0.1186339E+00
        -11   -1    0    0    0    0  0.00000000000E+00  0.00000000000E+00  0.45593999997E+02  0.45594000000E+02  0.51100000000E-03 0. -1.
         11   -1    0    0    0    0 -0.00000000000E+00 -0.00000000000E+00 -0.45593999997E+02  0.45594000000E+02  0.51100000000E-03 0.  1.
    9900012    2    1    2    0    0 -0.93602344544E+00 -0.15079021631E-01 -0.71872241071E+00  0.90007775796E+02  0.90000037637E+02 0.  0.
         12    1    1    2    0    0  0.93602344544E+00  0.15079021631E-01  0.71872241071E+00  0.11802242037E+01  0.00000000000E+00 0. -1.
         11    1    3    3    0    0  0.36350575065E+01  0.34571280687E+01 -0.89442242645E+01  0.10254975647E+02  0.51100000000E-03 0. -1.
        -11    1    3    3    0    0 -0.25220249577E+02  0.44717438073E+01 -0.27595162362E+02  0.37650371412E+02  0.51100000000E-03 0.  1.
         12    1    3    3    0    0  0.20649168625E+02 -0.79439508976E+01  0.35820664216E+02  0.42102428738E+02  0.00000000000E+00 0. -1.
</event>
<event>
 7    1  0.2084210E-015  0.9000794E+02  0.7816164E-02  0.1186339E+00
        -11   -1    0    0    0    0  0.00000000000E+00  0.00000000000E+00  0.45593999997E+02  0.45594000000E+02  0.51100000000E-03 0.  1.
         11   -1    0    0    0    0 -0.00000000000E+00 -0.00000000000E+00 -0.45593999997E+02  0.45594000000E+02  0.51100000000E-03 0. -1.
    9900012    2    1    2    0    0 -0.48809088171E+00  0.69163273316E+00  0.82216226880E+00  0.90007940958E+02  0.90000204978E+02 0.  0.
         12    1    1    2    0    0  0.48809088171E+00 -0.69163273316E+00 -0.82216226880E+00  0.11800590420E+01  0.00000000000E+00 0. -1.
         11    1    3    3    0    0  0.29747608162E+02  0.57068454694E+01 -0.20097240736E+02  0.36350892177E+02  0.51100000000E-03 0. -1.
        -11    1    3    3    0    0  0.91490191830E+01 -0.83430622784E+00  0.76730695156E+00  0.92189684408E+01  0.51100000000E-03 0.  1.
        -12    1    3    3    0    0 -0.39384718227E+02 -0.41809065084E+01  0.20152096053E+02  0.44438080341E+02  0.00000000000E+00 0.  1.
</event>
<event>
 7    1  0.2084210E-015  0.9000787E+02  0.7816164E-02  0.1186339E+00
        -11   -1    0    0    0    0  0.00000000000E+00  0.00000000000E+00  0.45593999997E+02  0.45594000000E+02  0.51100000000E-03 0. -1.
         11   -1    0    0    0    0 -0.00000000000E+00 -0.00000000000E+00 -0.45593999997E+02  0.45594000000E+02  0.51100000000E-03 0.  1.
    9900012    2    1    2    0    0  0.76939415662E+00 -0.49274854746E+00 -0.74694590862E+00  0.90007874291E+02  0.90000137431E+02 0.  0.
         12    1    1    2    0    0 -0.76939415662E+00  0.49274854746E+00  0.74694590862E+00  0.11801257093E+01  0.00000000000E+00 0. -1.
         11    1    3    3    0    0 -0.50994553715E+01  0.51416597445E+00 -0.78943816777E+01  0.94122300264E+01  0.51100000000E-03 0. -1.
        -11    1    3    3    0    0 -0.12974468214E+02 -0.16073983792E+02 -0.29925937877E+02  0.36363051831E+02  0.51100000000E-03 0.  1.
         12    1    3    3    0    0  0.18843317742E+02  0.15067069270E+02  0.37073373646E+02  0.44232592434E+02  0.00000000000E+00 0. -1.
</event>
<event>
 7    1  0.2084210E-015  0.9000770E+02  0.7816164E-02  0.1186339E+00
        -11   -1    0    0    0    0  0.00000000000E+00  0.00000000000E+00  0.45593999997E+02  0.45594000000E+02  0.51100000000E-03 0.  1.
         11   -1    0    0    0    0 -0.00000000000E+00 -0.00000000000E+00 -0.45593999997E+02  0.45594000000E+02  0.51100000000E-03 0. -1.
    9900012    2    1    2    0    0  0.67236835259E+00  0.68159926708E+00 -0.69025532614E+00  0.90007699539E+02  0.89999960373E+02 0.  0.
         12    1    1    2    0    0 -0.67236835259E+00 -0.68159926708E+00  0.69025532614E+00  0.11803004608E+01  0.00000000000E+00 0. -1.
         11    1    3    3    0    0  0.72904305904E+01  0.37123474736E+02  0.12242324580E+02  0.39764019742E+02  0.51100000000E-03 0. -1.
        -11    1    3    3    0    0 -0.20966257718E+01  0.29485761332E+01 -0.98284888429E+01  0.10473258043E+02  0.51100000000E-03 0.  1.
        -12    1    3    3    0    0 -0.45214364661E+01 -0.39390451602E+02 -0.31040910636E+01  0.39770421754E+02  0.00000000000E+00 0.  1.
</event>
<event>
 7    1  0.2084210E-015  0.9000748E+02  0.7816164E-02  0.1186340E+00
        -11   -1    0    0    0    0  0.00000000000E+00  0.00000000000E+00  0.45593999997E+02  0.45594000000E+02  0.51100000000E-03 0.  1.
         11   -1    0    0    0    0 -0.00000000000E+00 -0.00000000000E+00 -0.45593999997E+02  0.45594000000E+02  0.51100000000E-03 0. -1.
    9900012    2    1    2    0    0  0.44116401973E+00  0.59409586314E+00  0.91980676788E+00  0.90007483131E+02  0.89999741108E+02 0.  0.
         12    1    1    2    0    0 -0.44116401973E+00 -0.59409586314E+00 -0.91980676788E+00  0.11805168686E+01  0.00000000000E+00 0. -1.
         11    1    3    3    0    0 -0.20878157758E+02 -0.26554201981E+02  0.61156504396E+01  0.34328185137E+02  0.51100000000E-03 0. -1.
        -11    1    3    3    0    0 -0.89790004787E+01 -0.50120746217E+01  0.30626395211E+01  0.10729543453E+02  0.51100000000E-03 0.  1.
        -12    1    3    3    0    0  0.30298322257E+02  0.32160372466E+02 -0.82584831929E+01  0.44949754542E+02  0.00000000000E+00 0.  1.
</event>
<event>
 7    1  0.2084210E-015  0.9000775E+02  0.7816164E-02  0.1186339E+00
        -11   -1    0    0    0    0  0.00000000000E+00  0.00000000000E+00  0.45593999997E+02  0.45594000000E+02  0.51100000000E-03 0.  1.
         11   -1    0    0    0    0 -0.00000000000E+00 -0.00000000000E+00 -0.45593999997E+02  0.45594000000E+02  0.51100000000E-03 0. -1.
    9900012    2    1    2    0    0  0.98445312383E+00 -0.14007732162E+00  0.63578054173E+00  0.90007751507E+02  0.90000013026E+02 0.  0.
         12    1    1    2    0    0 -0.98445312383E+00  0.14007732162E+00 -0.63578054173E+00  0.11802484935E+01  0.00000000000E+00 0. -1.
         11    1    3    3    0    0  0.15108522634E+02 -0.92891492048E+01  0.53918978052E+01  0.18537214228E+02  0.51100000000E-03 0. -1.
        -11    1    3    3    0    0 -0.29453917126E+02 -0.11714438206E+02  0.18472254321E+02  0.36687674722E+02  0.51100000000E-03 0.  1.
         12    1    3    3    0    0  0.15329847616E+02  0.20863510090E+02 -0.23228371584E+02  0.34782862557E+02  0.00000000000E+00 0. -1.
</event>
<event>
 7    1  0.2084210E-015  0.9000777E+02  0.7816164E-02  0.1186339E+00
        -11   -1    0    0    0    0  0.00000000000E+00  0.00000000000E+00  0.45593999997E+02  0.45594000000E+02  0.51100000000E-03 0.  1.
         11   -1    0    0    0    0 -0.00000000000E+00 -0.00000000000E+00 -0.45593999997E+02  0.45594000000E+02  0.51100000000E-03 0. -1.
    9900012    2    1    2    0    0 -0.10690634240E+01  0.15589484693E+00 -0.47513443899E+00  0.90007765895E+02  0.90000027605E+02 0.  0.
         12    1    1    2    0    0  0.10690634240E+01 -0.15589484693E+00  0.47513443899E+00  0.11802341052E+01  0.00000000000E+00 0. -1.
         11    1    3    3    0    0 -0.19756546056E+02 -0.25894846007E+02 -0.19917569386E+02  0.38178183984E+02  0.51100000000E-03 0. -1.
        -11    1    3    3    0    0  0.37404183290E+00 -0.33437430053E+01 -0.73234579563E+01  0.80593772264E+01  0.51100000000E-03 0.  1.
        -12    1    3    3    0    0  0.18313440799E+02  0.29394483859E+02  0.26765892904E+02  0.43770204685E+02  0.00000000000E+00 0.  1.
</event>
<event>
 7    1  0.2084210E-015  0.9000773E+02  0.7816164E-02  0.1186339E+00
        -11   -1    0    0    0    0  0.00000000000E+00  0.00000000000E+00  0.45593999997E+02  0.45594000000E+02  0.51100000000E-03 0. -1.
         11   -1    0    0    0    0 -0.00000000000E+00 -0.00000000000E+00 -0.45593999997E+02  0.45594000000E+02  0.51100000000E-03 0.  1.
    9900012    2    1    2    0    0  0.71481321331E-01  0.38647074936E+00 -0.11129070963E+01  0.90007732478E+02  0.89999993746E+02 0.  0.
         12    1    1    2    0    0 -0.71481321331E-01 -0.38647074936E+00  0.11129070963E+01  0.11802675224E+01  0.00000000000E+00 0. -1.
         11    1    3    3    0    0  0.17667978493E+01  0.34530042169E+00  0.12034965196E+02  0.12168861679E+02  0.51100000000E-03 0. -1.
        -11    1    3    3    0    0 -0.12766609432E+02 -0.35556883987E+02  0.14390074765E+01  0.37806732972E+02  0.51100000000E-03 0.  1.
         12    1    3    3    0    0  0.11071292904E+02  0.35598054315E+02 -0.14586879769E+02  0.40032137827E+02  0.00000000000E+00 0. -1.
</event>
