<event>
 7    1  0.5329250E-013  0.5052886E+02  0.7816164E-02  0.1300439E+00
        -11   -1    0    0    0    0  0.00000000000E+00  0.00000000000E+00  0.45593999997E+02  0.45594000000E+02  0.51100000000E-03 0.  1.
         11   -1    0    0    0    0 -0.00000000000E+00 -0.00000000000E+00 -0.45593999997E+02  0.45594000000E+02  0.51100000000E-03 0. -1.
    9900012    2    1    2    0    0  0.25463898769E+02  0.25779773389E+02  0.18443402275E+02  0.50528856576E+02  0.29999990049E+02 0.  0.
         12    1    1    2    0    0 -0.25463898769E+02 -0.25779773389E+02 -0.18443402275E+02  0.40659143424E+02  0.00000000000E+00 0. -1.
         11    1    3    3    0    0  0.70492322494E+01  0.10258163536E+02  0.43040298807E+01  0.13169900072E+02  0.51100000000E-03 0. -1.
        -11    1    3    3    0    0  0.23813295088E+02  0.96045220122E+01  0.14213796453E+02  0.29348796839E+02  0.51100000000E-03 0.  1.
         12    1    3    3    0    0 -0.53986285680E+01  0.59170878408E+01 -0.74424058819E-01  0.80101596658E+01  0.00000000000E+00 0. -1.
</event>
<event>
 7    1  0.5329250E-013  0.5052886E+02  0.7816164E-02  0.1300439E+00
        -11   -1    0    0    0    0  0.00000000000E+00  0.00000000000E+00  0.45593999997E+02  0.45594000000E+02  0.51100000000E-03 0.  1.
         11   -1    0    0    0    0 -0.00000000000E+00 -0.00000000000E+00 -0.45593999997E+02  0.45594000000E+02  0.51100000000E-03 0. -1.
    9900012    2    1    2    0    0  0.32326014304E+02 -0.11332603009E+02  0.21903575212E+02  0.50528859591E+02  0.29999999212E+02 0.  0.
         12    1    1    2    0    0 -0.32326014304E+02  0.11332603009E+02 -0.21903575212E+02  0.40659140409E+02  0.00000000000E+00 0. -1.
         11    1    3    3    0    0 -0.91721935098E-01 -0.64940210473E+00 -0.24512744866E+01  0.25374953945E+01  0.51100000000E-03 0. -1.
        -11    1    3    3    0    0  0.28547425373E+02 -0.18864441596E+01  0.92118957862E+01  0.30056167274E+02  0.51100000000E-03 0.  1.
         12    1    3    3    0    0  0.38703108667E+01 -0.87967567451E+01  0.15142953912E+02  0.17935196922E+02  0.00000000000E+00 0. -1.
</event>
<event>
 7    1  0.5329250E-013  0.5052886E+02  0.7816164E-02  0.1300439E+00
        -11   -1    0    0    0    0  0.00000000000E+00  0.00000000000E+00  0.45593999997E+02  0.45594000000E+02  0.51100000000E-03 0. -1.
         11   -1    0    0    0    0 -0.00000000000E+00 -0.00000000000E+00 -0.45593999997E+02  0.45594000000E+02  0.51100000000E-03 0.  1.
    9900012    2    1    2    0    0  0.19769306873E+02 -0.32171380901E+02 -0.15077870781E+02  0.50528862889E+02  0.30000009237E+02 0.  0.
         12    1    1    2    0    0 -0.19769306873E+02  0.32171380901E+02  0.15077870781E+02  0.40659137111E+02  0.00000000000E+00 0. -1.
         11    1    3    3    0    0  0.74558349085E-01  0.26797917510E+01 -0.35193492979E+01  0.44241001931E+01  0.51100000000E-03 0. -1.
        -11    1    3    3    0    0  0.14413930146E+02 -0.13363092600E+02 -0.13572078809E+02  0.23885873430E+02  0.51100000000E-03 0.  1.
         12    1    3    3    0    0  0.52808183785E+01 -0.21488080052E+02  0.20135573258E+01  0.22218889266E+02  0.00000000000E+00 0. -1.
</event>
<event>
 7    1  0.5329250E-013  0.5052886E+02  0.7816164E-02  0.1300439E+00
        -11   -1    0    0    0    0  0.00000000000E+00  0.00000000000E+00  0.45593999997E+02  0.45594000000E+02  0.51100000000E-03 0.  1.
         11   -1    0    0    0    0 -0.00000000000E+00 -0.00000000000E+00 -0.45593999997E+02  0.45594000000E+02  0.51100000000E-03 0. -1.
    9900012    2    1    2    0    0 -0.56014627829E+00  0.27998481814E+02  0.29477731926E+02  0.50528862931E+02  0.30000009364E+02 0.  0.
         12    1    1    2    0    0  0.56014627829E+00 -0.27998481814E+02 -0.29477731926E+02  0.40659137069E+02  0.00000000000E+00 0. -1.
         11    1    3    3    0    0  0.26924927683E+01  0.28847468583E+02  0.21662698365E+02  0.36175937606E+02  0.51100000000E-03 0. -1.
        -11    1    3    3    0    0  0.43328018558E+01  0.31437719432E+00  0.32301612529E+01  0.54134967371E+01  0.51100000000E-03 0.  1.
         12    1    3    3    0    0 -0.75854409024E+01 -0.11633639635E+01  0.45848723073E+01  0.89394285874E+01  0.00000000000E+00 0. -1.
</event>
<event>
 7    1  0.5329250E-013  0.5052886E+02  0.7816164E-02  0.1300439E+00
        -11   -1    0    0    0    0  0.00000000000E+00  0.00000000000E+00  0.45593999997E+02  0.45594000000E+02  0.51100000000E-03 0.  1.
         11   -1    0    0    0    0 -0.00000000000E+00 -0.00000000000E+00 -0.45593999997E+02  0.45594000000E+02  0.51100000000E-03 0. -1.
    9900012    2    1    2    0    0  0.43576190619E+01  0.37406107843E+02  0.15328394759E+02  0.50528862851E+02  0.30000009121E+02 0.  0.
         12    1    1    2    0    0 -0.43576190619E+01 -0.37406107843E+02 -0.15328394759E+02  0.40659137149E+02  0.00000000000E+00 0. -1.
         11    1    3    3    0    0  0.10978384383E+02  0.82395727243E+01  0.23623994793E+01  0.13928259543E+02  0.51100000000E-03 0.  1.
        -11    1    3    3    0    0  0.45356874948E+01  0.17431710435E+02  0.74990904255E+01  0.19510852037E+02  0.51100000000E-03 0. -1.
         12    1    3    3    0    0 -0.11156452816E+02  0.11734824683E+02  0.54669048544E+01  0.17089751270E+02  0.00000000000E+00 0. -1.
</event>
<event>
 7    1  0.5329250E-013  0.5052883E+02  0.7816164E-02  0.1300439E+00
        -11   -1    0    0    0    0  0.00000000000E+00  0.00000000000E+00  0.45593999997E+02  0.45594000000E+02  0.51100000000E-03 0.  1.
         11   -1    0    0    0    0 -0.00000000000E+00 -0.00000000000E+00 -0.45593999997E+02  0.45594000000E+02  0.51100000000E-03 0. -1.
    9900012    2    1    2    0    0 -0.26105368294E+02 -0.22985038824E+02  0.21056261752E+02  0.50528826097E+02  0.29999897404E+02 0.  0.
         12    1    1    2    0    0  0.26105368294E+02  0.22985038824E+02 -0.21056261752E+02  0.40659173903E+02  0.00000000000E+00 0. -1.
         11    1    3    3    0    0 -0.12717174702E+02  0.16019193414E+01  0.71186377716E+01  0.14661776221E+02  0.51100000000E-03 0. -1.
        -11    1    3    3    0    0 -0.15583749750E+02 -0.11711858638E+02  0.11332695375E+02  0.22548855265E+02  0.51100000000E-03 0.  1.
         12    1    3    3    0    0  0.21955561572E+01 -0.12875099527E+02  0.26049286047E+01  0.13318194611E+02  0.00000000000E+00 0. -1.
</event>
<event>
 7    1  0.5329250E-013  0.5052885E+02  0.7816164E-02  0.1300439E+00
        -11   -1    0    0    0    0  0.00000000000E+00  0.00000000000E+00  0.45593999997E+02  0.45594000000E+02  0.51100000000E-03 0. -1.
         11   -1    0    0    0    0 -0.00000000000E+00 -0.00000000000E+00 -0.45593999997E+02  0.45594000000E+02  0.51100000000E-03 0.  1.
    9900012    2    1    2    0    0  0.18430030175E+02  0.35396969337E+02  0.77817040164E+01  0.50528851363E+02  0.29999974204E+02 0.  0.
         12    1    1    2    0    0 -0.18430030175E+02 -0.35396969337E+02 -0.77817040164E+01  0.40659148637E+02  0.00000000000E+00 0. -1.
         11    1    3    3    0    0  0.11240418080E+02  0.80387266666E+01  0.68801687727E+01  0.15437125627E+02  0.51100000000E-03 0. -1.
        -11    1    3    3    0    0 -0.31281721192E+01  0.12014516155E+01  0.56562307634E+01  0.65743359742E+01  0.51100000000E-03 0.  1.
        -12    1    3    3    0    0  0.10317784214E+02  0.26156791054E+02 -0.47546955197E+01  0.28517389762E+02  0.00000000000E+00 0.  1.
</event>
<event>
 7    1  0.5329250E-013  0.5052890E+02  0.7816164E-02  0.1300439E+00
        -11   -1    0    0    0    0  0.00000000000E+00  0.00000000000E+00  0.45593999997E+02  0.45594000000E+02  0.51100000000E-03 0.  1.
         11   -1    0    0    0    0 -0.00000000000E+00 -0.00000000000E+00 -0.45593999997E+02  0.45594000000E+02  0.51100000000E-03 0. -1.
    9900012    2    1    2    0    0 -0.24318027275E+02 -0.21838271193E+02  0.24184419631E+02  0.50528896565E+02  0.30000111600E+02 0.  0.
         12    1    1    2    0    0  0.24318027275E+02  0.21838271193E+02 -0.24184419631E+02  0.40659103435E+02  0.00000000000E+00 0. -1.
         11    1    3    3    0    0 -0.42688446595E+01 -0.15182758536E+02  0.37858190358E+01  0.16219482652E+02  0.51100000000E-03 0. -1.
        -11    1    3    3    0    0  0.17033684772E+01 -0.41421263100E+01  0.79399221363E+01  0.91159770913E+01  0.51100000000E-03 0.  1.
         12    1    3    3    0    0 -0.21752551092E+02 -0.25133863478E+01  0.12458678458E+02  0.25193436822E+02  0.00000000000E+00 0. -1.
</event>
<event>
 7    1  0.5329250E-013  0.5052886E+02  0.7816164E-02  0.1300439E+00
        -11   -1    0    0    0    0  0.00000000000E+00  0.00000000000E+00  0.45593999997E+02  0.45594000000E+02  0.51100000000E-03 0. -1.
         11   -1    0    0    0    0 -0.00000000000E+00 -0.00000000000E+00 -0.45593999997E+02  0.45594000000E+02  0.51100000000E-03 0.  1.
    9900012    2    1    2    0    0 -0.93689354330E+00 -0.19652403996E+02 -0.35581894182E+02  0.50528856552E+02  0.29999989974E+02 0.  0.
         12    1    1    2    0    0  0.93689354330E+00  0.19652403996E+02  0.35581894182E+02  0.40659143448E+02  0.00000000000E+00 0. -1.
         11    1    3    3    0    0 -0.65647866367E-01  0.63579280980E+00 -0.17809944232E+02  0.17821410043E+02  0.51100000000E-03 0. -1.
        -11    1    3    3    0    0 -0.70082268952E+00 -0.57885989827E+01 -0.17237512740E+02  0.18197001850E+02  0.51100000000E-03 0.  1.
         12    1    3    3    0    0 -0.17042298741E+00 -0.14499597823E+02 -0.53443721082E+00  0.14510444658E+02  0.00000000000E+00 0. -1.
</event>
<event>
 7    1  0.5329250E-013  0.5052886E+02  0.7816164E-02  0.1300439E+00
        -11   -1    0    0    0    0  0.00000000000E+00  0.00000000000E+00  0.45593999997E+02  0.45594000000E+02  0.51100000000E-03 0.  1.
         11   -1    0    0    0    0 -0.00000000000E+00 -0.00000000000E+00 -0.45593999997E+02  0.45594000000E+02  0.51100000000E-03 0. -1.
    9900012    2    1    2    0    0  0.15750947156E+02  0.57717629524E+01  0.37037277171E+02  0.50528862231E+02  0.30000007236E+02 0.  0.
         12    1    1    2    0    0 -0.15750947156E+02 -0.57717629524E+01 -0.37037277171E+02  0.40659137769E+02  0.00000000000E+00 0. -1.
         11    1    3    3    0    0  0.32477946282E+01 -0.53651736506E+01  0.98348708457E+01  0.11664387813E+02  0.51100000000E-03 0.  1.
        -11    1    3    3    0    0  0.18841919365E+02  0.97934250666E+01  0.19906787280E+02  0.29106859671E+02  0.51100000000E-03 0. -1.
         12    1    3    3    0    0 -0.63387668371E+01  0.13435115365E+01  0.72956190460E+01  0.97576147459E+01  0.00000000000E+00 0. -1.
</event>
<event>
 7    1  0.5329250E-013  0.5052887E+02  0.7816164E-02  0.1300439E+00
        -11   -1    0    0    0    0  0.00000000000E+00  0.00000000000E+00  0.45593999997E+02  0.45594000000E+02  0.51100000000E-03 0. -1.
         11   -1    0    0    0    0 -0.00000000000E+00 -0.00000000000E+00 -0.45593999997E+02  0.45594000000E+02  0.51100000000E-03 0.  1.
    9900012    2    1    2    0    0 -0.11099318093E+01  0.36178973005E+02 -0.18520652348E+02  0.50528873107E+02  0.30000040296E+02 0.  0.
         12    1    1    2    0    0  0.11099318093E+01 -0.36178973005E+02  0.18520652348E+02  0.40659126893E+02  0.00000000000E+00 0. -1.
         11    1    3    3    0    0  0.50453724457E+01  0.49735843033E+01 -0.84646676048E+01  0.11038248134E+02  0.51100000000E-03 0. -1.
        -11    1    3    3    0    0 -0.52863631868E+01 -0.25253728747E+00 -0.56027923105E+01  0.77071844898E+01  0.51100000000E-03 0.  1.
         12    1    3    3    0    0 -0.86894106825E+00  0.31457925989E+02 -0.44531924323E+01  0.31783440484E+02  0.00000000000E+00 0. -1.
</event>
<event>
 7    1  0.5329250E-013  0.5052886E+02  0.7816164E-02  0.1300439E+00
        -11   -1    0    0    0    0  0.00000000000E+00  0.00000000000E+00  0.45593999997E+02  0.45594000000E+02  0.51100000000E-03 0.  1.
         11   -1    0    0    0    0 -0.00000000000E+00 -0.00000000000E+00 -0.45593999997E+02  0.45594000000E+02  0.51100000000E-03 0. -1.
    9900012    2    1    2    0    0 -0.27651255278E+02 -0.19634625312E+02  0.22428893135E+02  0.50528859861E+02  0.30000000032E+02 0.  0.
         12    1    1    2    0    0  0.27651255278E+02  0.19634625312E+02 -0.22428893135E+02  0.40659140139E+02  0.00000000000E+00 0. -1.
         11    1    3    3    0    0 -0.19991178442E+01  0.41979484490E+00 -0.33491086726E+01  0.39229107852E+01  0.51100000000E-03 0. -1.
        -11    1    3    3    0    0 -0.50210554543E+01 -0.14950605589E+02  0.42042134700E+01  0.16321979553E+02  0.51100000000E-03 0.  1.
        -12    1    3    3    0    0 -0.20631081979E+02 -0.51038145675E+01  0.21573788338E+02  0.30283969522E+02  0.00000000000E+00 0.  1.
</event>
<event>
 7    1  0.5735915E-013  0.5052887E+02  0.7816164E-02  0.1300439E+00
        -11   -1    0    0    0    0  0.00000000000E+00  0.00000000000E+00  0.45593999997E+02  0.45594000000E+02  0.51100000000E-03 0.  1.
         11   -1    0    0    0    0 -0.00000000000E+00 -0.00000000000E+00 -0.45593999997E+02  0.45594000000E+02  0.51100000000E-03 0. -1.
    9900012    2    1    2    0    0  0.23522752488E+02  0.17264570888E+02  0.28315708243E+02  0.50528872785E+02  0.30000039319E+02 0.  0.
         12    1    1    2    0    0 -0.23522752488E+02 -0.17264570888E+02 -0.28315708243E+02  0.40659127215E+02  0.00000000000E+00 0. -1.
         11    1    3    3    0    0  0.83751665323E+01 -0.19277626377E+01 -0.27657195464E+01  0.90282272956E+01  0.51100000000E-03 0. -1.
        -11    1    3    3    0    0  0.51263462115E+00  0.90926117517E+01  0.66188277399E+01  0.11258208722E+02  0.51100000000E-03 0.  1.
        -12    1    3    3    0    0  0.14634951335E+02  0.10099721774E+02  0.24462600049E+02  0.30242436768E+02  0.00000000000E+00 0.  1.
</event>
<event>
 7    1  0.5329250E-013  0.5052885E+02  0.7816164E-02  0.1300439E+00
        -11   -1    0    0    0    0  0.00000000000E+00  0.00000000000E+00  0.45593999997E+02  0.45594000000E+02  0.51100000000E-03 0. -1.
         11   -1    0    0    0    0 -0.00000000000E+00 -0.00000000000E+00 -0.45593999997E+02  0.45594000000E+02  0.51100000000E-03 0.  1.
    9900012    2    1    2    0    0 -0.13266134646E+02 -0.38419247478E+02  0.10664197717E+01  0.50528853964E+02  0.29999982110E+02 0.  0.
         12    1    1    2    0    0  0.13266134646E+02  0.38419247478E+02 -0.10664197717E+01  0.40659146036E+02  0.00000000000E+00 0. -1.
         11    1    3    3    0    0 -0.73298179378E+01 -0.10415140578E+01 -0.22453946217E+01  0.77364578331E+01  0.51100000000E-03 0. -1.
        -11    1    3    3    0    0 -0.83147720038E+01 -0.85628307276E+01 -0.46403249613E+01  0.12805862702E+02  0.51100000000E-03 0.  1.
         12    1    3    3    0    0  0.23784552952E+01 -0.28814902692E+02  0.79521393547E+01  0.29986533429E+02  0.00000000000E+00 0. -1.
</event>
<event>
 7    1  0.5329250E-013  0.5052892E+02  0.7816164E-02  0.1300439E+00
        -11   -1    0    0    0    0  0.00000000000E+00  0.00000000000E+00  0.45593999997E+02  0.45594000000E+02  0.51100000000E-03 0. -1.
         11   -1    0    0    0    0 -0.00000000000E+00 -0.00000000000E+00 -0.45593999997E+02  0.45594000000E+02  0.51100000000E-03 0.  1.
    9900012    2    1    2    0    0  0.28093187087E+02  0.20732498206E+02 -0.20834990123E+02  0.50528924064E+02  0.30000195184E+02 0.  0.
         12    1    1    2    0    0 -0.28093187087E+02 -0.20732498206E+02  0.20834990123E+02  0.40659075936E+02  0.00000000000E+00 0. -1.
         11    1    3    3    0    0  0.14399886382E+02  0.59263940311E+01 -0.19509211870E+02  0.24961735157E+02  0.51100000000E-03 0. -1.
        -11    1    3    3    0    0  0.97851672760E+01  0.47731498943E+01 -0.74385469475E+01  0.13185766549E+02  0.51100000000E-03 0.  1.
         12    1    3    3    0    0  0.39081334290E+01  0.10032954280E+02  0.61127686942E+01  0.12381422358E+02  0.00000000000E+00 0. -1.
</event>
<event>
 7    1  0.5329250E-013  0.5052886E+02  0.7816164E-02  0.1300439E+00
        -11   -1    0    0    0    0  0.00000000000E+00  0.00000000000E+00  0.45593999997E+02  0.45594000000E+02  0.51100000000E-03 0.  1.
         11   -1    0    0    0    0 -0.00000000000E+00 -0.00000000000E+00 -0.45593999997E+02  0.45594000000E+02  0.51100000000E-03 0. -1.
    9900012    2    1    2    0    0  0.29188369991E+02 -0.27902858138E+02 -0.47576720104E+01  0.50528857388E+02  0.29999992516E+02 0.  0.
         12    1    1    2    0    0 -0.29188369991E+02  0.27902858138E+02  0.47576720104E+01  0.40659142612E+02  0.00000000000E+00 0. -1.
         11    1    3    3    0    0 -0.13281620081E+01  0.22982587887E+01 -0.14113130190E+01  0.30062954743E+01  0.51100000000E-03 0. -1.
        -11    1    3    3    0    0  0.17306202939E+02 -0.83590216388E+01 -0.92396368448E+01  0.21324839793E+02  0.51100000000E-03 0.  1.
        -12    1    3    3    0    0  0.13210329060E+02 -0.21842095288E+02  0.58932778534E+01  0.26197722120E+02  0.00000000000E+00 0.  1.
</event>
<event>
 7    1  0.5329250E-013  0.5052897E+02  0.7816164E-02  0.1300438E+00
        -11   -1    0    0    0    0  0.00000000000E+00  0.00000000000E+00  0.45593999997E+02  0.45594000000E+02  0.51100000000E-03 0.  1.
         11   -1    0    0    0    0 -0.00000000000E+00 -0.00000000000E+00 -0.45593999997E+02  0.45594000000E+02  0.51100000000E-03 0. -1.
    9900012    2    1    2    0    0 -0.17235516827E+02  0.29005108476E+02 -0.22689147842E+02  0.50528969173E+02  0.30000332295E+02 0.  0.
         12    1    1    2    0    0  0.17235516827E+02 -0.29005108476E+02  0.22689147842E+02  0.40659030827E+02  0.00000000000E+00 0. -1.
         11    1    3    3    0    0  0.62582504943E+01  0.52023541684E+01 -0.66162281544E+01  0.10488310798E+02  0.51100000000E-03 0. -1.
        -11    1    3    3    0    0 -0.54679666028E+01  0.14988394913E+02 -0.34141815977E+01  0.16315859679E+02  0.51100000000E-03 0.  1.
         12    1    3    3    0    0 -0.18025800719E+02  0.88143593953E+01 -0.12658738090E+02  0.23724798695E+02  0.00000000000E+00 0. -1.
</event>
<event>
 7    1  0.5329250E-013  0.5052879E+02  0.7816164E-02  0.1300439E+00
        -11   -1    0    0    0    0  0.00000000000E+00  0.00000000000E+00  0.45593999997E+02  0.45594000000E+02  0.51100000000E-03 0. -1.
         11   -1    0    0    0    0 -0.00000000000E+00 -0.00000000000E+00 -0.45593999997E+02  0.45594000000E+02  0.51100000000E-03 0.  1.
    9900012    2    1    2    0    0 -0.13440601597E+02  0.37682550050E+02 -0.72489096613E+01  0.50528793898E+02  0.29999799533E+02 0.  0.
         12    1    1    2    0    0  0.13440601597E+02 -0.37682550050E+02  0.72489096613E+01  0.40659206102E+02  0.00000000000E+00 0. -1.
         11    1    3    3    0    0 -0.15387131543E+02  0.17634050725E+02  0.59826815553E+01  0.24156076688E+02  0.51100000000E-03 0. -1.
        -11    1    3    3    0    0 -0.27429242681E+01  0.16260054187E+02 -0.11488522582E+02  0.20097242275E+02  0.51100000000E-03 0.  1.
        -12    1    3    3    0    0  0.46894542146E+01  0.37884451383E+01 -0.17430686345E+01  0.62754749352E+01  0.00000000000E+00 0.  1.
</event>
<event>
 7    1  0.5329250E-013  0.5052887E+02  0.7816164E-02  0.1300439E+00
        -11   -1    0    0    0    0  0.00000000000E+00  0.00000000000E+00  0.45593999997E+02  0.45594000000E+02  0.51100000000E-03 0.  1.
         11   -1    0    0    0    0 -0.00000000000E+00 -0.00000000000E+00 -0.45593999997E+02  0.45594000000E+02  0.51100000000E-03 0. -1.
    9900012    2    1    2    0    0  0.37894849659E+01 -0.62700259096E+01  0.39993646821E+02  0.50528865636E+02  0.30000017587E+02 0.  0.
         12    1    1    2    0    0 -0.37894849659E+01  0.62700259096E+01 -0.39993646821E+02  0.40659134364E+02  0.00000000000E+00 0. -1.
         11    1    3    3    0    0 -0.22548044947E+01  0.63292858055E+01  0.14228078408E+02  0.15734745551E+02  0.51100000000E-03 0. -1.
        -11    1    3    3    0    0 -0.38300375894E+01 -0.12057258188E+02  0.18945988949E+02  0.22781509178E+02  0.51100000000E-03 0.  1.
        -12    1    3    3    0    0  0.98743270500E+01 -0.54205352748E+00  0.68195794640E+01  0.12012610906E+02  0.00000000000E+00 0.  1.
</event>
<event>
 7    1  0.5329250E-013  0.5052886E+02  0.7816164E-02  0.1300439E+00
        -11   -1    0    0    0    0  0.00000000000E+00  0.00000000000E+00  0.45593999997E+02  0.45594000000E+02  0.51100000000E-03 0. -1.
         11   -1    0    0    0    0 -0.00000000000E+00 -0.00000000000E+00 -0.45593999997E+02  0.45594000000E+02  0.51100000000E-03 0.  1.
    9900012    2    1    2    0    0 -0.15396845664E+02  0.37455466274E+02  0.36318746810E+01  0.50528864201E+02  0.30000013225E+02 0.  0.
         12    1    1    2    0    0  0.15396845664E+02 -0.37455466274E+02 -0.36318746810E+01  0.40659135799E+02  0.00000000000E+00 0. -1.
         11    1    3    3    0    0  0.18657835308E+01  0.13280085921E+02  0.57866400847E+01  0.14605719222E+02  0.51100000000E-03 0. -1.
        -11    1    3    3    0    0 -0.21658756699E+02  0.22084644194E+02 -0.11593101153E+01  0.30954438311E+02  0.51100000000E-03 0.  1.
         12    1    3    3    0    0  0.43961275044E+01  0.20907361597E+01 -0.99545528830E+00  0.49687066683E+01  0.00000000000E+00 0. -1.
</event>
<event>
 7    1  0.5329250E-013  0.5052888E+02  0.7816164E-02  0.1300439E+00
        -11   -1    0    0    0    0  0.00000000000E+00  0.00000000000E+00  0.45593999997E+02  0.45594000000E+02  0.51100000000E-03 0. -1.
         11   -1    0    0    0    0 -0.00000000000E+00 -0.00000000000E+00 -0.45593999997E+02  0.45594000000E+02  0.51100000000E-03 0.  1.
    9900012    2    1    2    0    0  0.10543690862E+02 -0.13727684531E+02 -0.36790558925E+02  0.50528880905E+02  0.30000063999E+02 0.  0.
         12    1    1    2    0    0 -0.10543690862E+02  0.13727684531E+02  0.36790558925E+02  0.40659119095E+02  0.00000000000E+00 0. -1.
         11    1    3    3    0    0  0.11353953735E+02  0.32024559662E+01 -0.49751226411E+01  0.12803118182E+02  0.51100000000E-03 0. -1.
        -11    1    3    3    0    0  0.37514737750E+01 -0.68541887575E+01 -0.20333277133E+02  0.21782920333E+02  0.51100000000E-03 0.  1.
        -12    1    3    3    0    0 -0.45617366479E+01 -0.10075951740E+02 -0.11482159151E+02  0.15942842390E+02  0.00000000000E+00 0.  1.
</event>
<event>
 7    1  0.5329250E-013  0.5052888E+02  0.7816164E-02  0.1300439E+00
        -11   -1    0    0    0    0  0.00000000000E+00  0.00000000000E+00  0.45593999997E+02  0.45594000000E+02  0.51100000000E-03 0. -1.
         11   -1    0    0    0    0 -0.00000000000E+00 -0.00000000000E+00 -0.45593999997E+02  0.45594000000E+02  0.51100000000E-03 0.  1.
    9900012    2    1    2    0    0  0.36841752281E+02 -0.17157362066E+02  0.12140808429E+01  0.50528883230E+02  0.30000071067E+02 0.  0.
         12    1    1    2    0    0 -0.36841752281E+02  0.17157362066E+02 -0.12140808429E+01  0.40659116770E+02  0.00000000000E+00 0. -1.
         11    1    3    3    0    0  0.27469199171E+02 -0.15643772364E+02 -0.51013794420E+01  0.32020440180E+02  0.51100000000E-03 0. -1.
        -11    1    3    3    0    0  0.29016540524E+01  0.60406246210E+00 -0.47012733345E+01  0.55575587199E+01  0.51100000000E-03 0.  1.
        -12    1    3    3    0    0  0.64708990578E+01 -0.21176521640E+01  0.11016733619E+02  0.12950884330E+02  0.00000000000E+00 0.  1.
</event>
<event>
 7    1  0.5329250E-013  0.5052890E+02  0.7816164E-02  0.1300439E+00
        -11   -1    0    0    0    0  0.00000000000E+00  0.00000000000E+00  0.45593999997E+02  0.45594000000E+02  0.51100000000E-03 0. -1.
         11   -1    0    0    0    0 -0.00000000000E+00 -0.00000000000E+00 -0.45593999997E+02  0.45594000000E+02  0.51100000000E-03 0.  1.
    9900012    2    1    2    0    0  0.11814047833E+02  0.34843380081E+02  0.17306931053E+02  0.50528896172E+02  0.30000110403E+02 0.  0.
         12    1    1    2    0    0 -0.11814047833E+02 -0.34843380081E+02 -0.17306931053E+02  0.40659103828E+02  0.00000000000E+00 0. -1.
         11    1    3    3    0    0  0.42253273694E+01  0.92349779505E+01  0.10135779910E+02  0.14348248805E+02  0.51100000000E-03 0. -1.
        -11    1    3    3    0    0  0.62377652695E+01  0.19700770364E+02  0.15534507869E+02  0.25852485442E+02  0.51100000000E-03 0.  1.
         12    1    3    3    0    0  0.13509551939E+01  0.59076317661E+01 -0.83633567263E+01  0.10328161925E+02  0.00000000000E+00 0. -1.
</event>
<event>
 7    1  0.5329250E-013  0.5052892E+02  0.7816164E-02  0.1300439E+00
        -11   -1    0    0    0    0  0.00000000000E+00  0.00000000000E+00  0.45593999997E+02  0.45594000000E+02  0.51100000000E-03 0.  1.
         11   -1    0    0    0    0 -0.00000000000E+00 -0.00000000000E+00 -0.45593999997E+02  0.45594000000E+02  0.51100000000E-03 0. -1.
    9900012    2    1    2    0    0 -0.19438416261E+02 -0.74448210754E+01  0.34926830220E+02  0.50528919135E+02  0.30000180203E+02 0.  0.
         12    1    1    2    0    0  0.19438416261E+02  0.74448210754E+01 -0.34926830220E+02  0.40659080865E+02  0.00000000000E+00 0. -1.
         11    1    3    3    0    0 -0.62344504077E+01  0.55703590776E+01  0.93153771179E+01  0.12516929466E+02  0.51100000000E-03 0. -1.
        -11    1    3    3    0    0 -0.28434787856E+01  0.45558595930E+01  0.12910527837E+02  0.13982952389E+02  0.51100000000E-03 0.  1.
         12    1    3    3    0    0 -0.10360487068E+02 -0.17571039746E+02  0.12700925265E+02  0.24029037280E+02  0.00000000000E+00 0. -1.
</event>
<event>
 7    1  0.5329250E-013  0.5052886E+02  0.7816164E-02  0.1300439E+00
        -11   -1    0    0    0    0  0.00000000000E+00  0.00000000000E+00  0.45593999997E+02  0.45594000000E+02  0.51100000000E-03 0. -1.
         11   -1    0    0    0    0 -0.00000000000E+00 -0.00000000000E+00 -0.45593999997E+02  0.45594000000E+02  0.51100000000E-03 0.  1.
    9900012    2    1    2    0    0  0.99395625572E+01 -0.28546645116E+02 -0.27193013065E+02  0.50528858214E+02  0.29999995027E+02 0.  0.
         12    1    1    2    0    0 -0.99395625572E+01  0.28546645116E+02  0.27193013065E+02  0.40659141786E+02  0.00000000000E+00 0. -1.
         11    1    3    3    0    0 -0.42475889505E+00 -0.15882007565E+01  0.29576425340E+01  0.33838515603E+01  0.51100000000E-03 0. -1.
        -11    1    3    3    0    0  0.12215569239E+02 -0.35419667079E+01 -0.11591650620E+02  0.17208486986E+02  0.51100000000E-03 0.  1.
         12    1    3    3    0    0 -0.18512477866E+01 -0.23416477652E+02 -0.18559004979E+02  0.29936519667E+02  0.00000000000E+00 0. -1.
</event>
<event>
 7    1  0.5329250E-013  0.5052885E+02  0.7816164E-02  0.1300439E+00
        -11   -1    0    0    0    0  0.00000000000E+00  0.00000000000E+00  0.45593999997E+02  0.45594000000E+02  0.51100000000E-03 0.  1.
         11   -1    0    0    0    0 -0.00000000000E+00 -0.00000000000E+00 -0.45593999997E+02  0.45594000000E+02  0.51100000000E-03 0. -1.
    9900012    2    1    2    0    0  0.12361554329E+01 -0.40141000858E+02  0.63512333202E+01  0.50528853491E+02  0.29999980671E+02 0.  0.
         12    1    1    2    0    0 -0.12361554329E+01  0.40141000858E+02 -0.63512333202E+01  0.40659146509E+02  0.00000000000E+00 0. -1.
         11    1    3    3    0    0 -0.21971158149E+01 -0.23108633265E+02 -0.20153709577E+01  0.23300171022E+02  0.51100000000E-03 0. -1.
        -11    1    3    3    0    0 -0.63483420018E+01 -0.28905504759E+00  0.76520725134E+00  0.64008234932E+01  0.51100000000E-03 0.  1.
         12    1    3    3    0    0  0.97816132496E+01 -0.16743312545E+02  0.76013970266E+01  0.20827858976E+02  0.00000000000E+00 0. -1.
</event>
<event>
 7    1  0.5329250E-013  0.5052887E+02  0.7816164E-02  0.1300439E+00
        -11   -1    0    0    0    0  0.00000000000E+00  0.00000000000E+00  0.45593999997E+02  0.45594000000E+02  0.51100000000E-03 0. -1.
         11   -1    0    0    0    0 -0.00000000000E+00 -0.00000000000E+00 -0.45593999997E+02  0.45594000000E+02  0.51100000000E-03 0.  1.
    9900012    2    1    2    0    0 -0.35145068646E+01 -0.40227219175E+02 -0.47522892480E+01  0.50528866043E+02  0.30000018823E+02 0.  0.
         12    1    1    2    0    0  0.35145068646E+01  0.40227219175E+02  0.47522892480E+01  0.40659133957E+02  0.00000000000E+00 0. -1.
         11    1    3    3    0    0  0.55844149878E+01 -0.42823625499E+01  0.30075343135E+01  0.76530766802E+01  0.51100000000E-03 0. -1.
        -11    1    3    3    0    0 -0.23131740215E+01 -0.23487949648E+02  0.46183695284E+01  0.24049197285E+02  0.51100000000E-03 0.  1.
        -12    1    3    3    0    0 -0.67857478309E+01 -0.12456906977E+02 -0.12378193090E+02  0.18826592077E+02  0.00000000000E+00 0.  1.
</event>
<event>
 7    1  0.5329250E-013  0.5052887E+02  0.7816164E-02  0.1300439E+00
        -11   -1    0    0    0    0  0.00000000000E+00  0.00000000000E+00  0.45593999997E+02  0.45594000000E+02  0.51100000000E-03 0. -1.
         11   -1    0    0    0    0 -0.00000000000E+00 -0.00000000000E+00 -0.45593999997E+02  0.45594000000E+02  0.51100000000E-03 0.  1.
    9900012    2    1    2    0    0  0.88828864462E+01  0.28755396725E+02 -0.27338373526E+02  0.50528865977E+02  0.30000018624E+02 0.  0.
         12    1    1    2    0    0 -0.88828864462E+01 -0.28755396725E+02  0.27338373526E+02  0.40659134023E+02  0.00000000000E+00 0. -1.
         11    1    3    3    0    0 -0.48925145956E+01  0.50887925714E+01 -0.81750608640E+01  0.10801117039E+02  0.51100000000E-03 0. -1.
        -11    1    3    3    0    0  0.82162417685E+01  0.21144719876E+02 -0.23169770337E+02  0.32425978246E+02  0.51100000000E-03 0.  1.
         12    1    3    3    0    0  0.55591592733E+01  0.25218842779E+01  0.40064576752E+01  0.73017706922E+01  0.00000000000E+00 0. -1.
</event>
<event>
 7    1  0.5329250E-013  0.5052885E+02  0.7816164E-02  0.1300439E+00
        -11   -1    0    0    0    0  0.00000000000E+00  0.00000000000E+00  0.45593999997E+02  0.45594000000E+02  0.51100000000E-03 0.  1.
         11   -1    0    0    0    0 -0.00000000000E+00 -0.00000000000E+00 -0.45593999997E+02  0.45594000000E+02  0.51100000000E-03 0. -1.
    9900012    2    1    2    0    0  0.11682721964E+02  0.16934876555E+02  0.35069791941E+02  0.50528851666E+02  0.29999975125E+02 0.  0.
         12    1    1    2    0    0 -0.11682721964E+02 -0.16934876555E+02 -0.35069791941E+02  0.40659148334E+02  0.00000000000E+00 0. -1.
         11    1    3    3    0    0 -0.55811535392E+01  0.19962387435E+01  0.66465352752E+01  0.89056541239E+01  0.51100000000E-03 0. -1.
        -11    1    3    3    0    0  0.59559333790E+01  0.16938441114E+01 -0.20516393033E+01  0.65231491153E+01  0.51100000000E-03 0.  1.
        -12    1    3    3    0    0  0.11307942125E+02  0.13244793700E+02  0.30474895969E+02  0.35100048427E+02  0.00000000000E+00 0.  1.
</event>
<event>
 7    1  0.5329250E-013  0.5052885E+02  0.7816164E-02  0.1300439E+00
        -11   -1    0    0    0    0  0.00000000000E+00  0.00000000000E+00  0.45593999997E+02  0.45594000000E+02  0.51100000000E-03 0.  1.
         11   -1    0    0    0    0 -0.00000000000E+00 -0.00000000000E+00 -0.45593999997E+02  0.45594000000E+02  0.51100000000E-03 0. -1.
    9900012    2    1    2    0    0 -0.42373637775E+01  0.19892492224E+02  0.35206528069E+02  0.50528854444E+02  0.29999983569E+02 0.  0.
         12    1    1    2    0    0  0.42373637775E+01 -0.19892492224E+02 -0.35206528069E+02  0.40659145556E+02  0.00000000000E+00 0. -1.
         11    1    3    3    0    0  0.58409275832E+01 -0.84061693224E+00  0.60811323775E+01  0.84736794318E+01  0.51100000000E-03 0. -1.
        -11    1    3    3    0    0  0.19207279128E+01  0.15898278582E+02  0.97196274911E+01  0.18732741828E+02  0.51100000000E-03 0.  1.
         12    1    3    3    0    0 -0.11999019273E+02  0.48348305743E+01  0.19405768200E+02  0.23322433185E+02  0.00000000000E+00 0. -1.
</event>
<event>
 7    1  0.5329250E-013  0.5052886E+02  0.7816164E-02  0.1300439E+00
        -11   -1    0    0    0    0  0.00000000000E+00  0.00000000000E+00  0.45593999997E+02  0.45594000000E+02  0.51100000000E-03 0. -1.
         11   -1    0    0    0    0 -0.00000000000E+00 -0.00000000000E+00 -0.45593999997E+02  0.45594000000E+02  0.51100000000E-03 0.  1.
    9900012    2    1    2    0    0 -0.26393012904E+02 -0.87537082888E+01  0.29663902016E+02  0.50528860539E+02  0.30000002093E+02 0.  0.
         12    1    1    2    0    0  0.26393012904E+02  0.87537082888E+01 -0.29663902016E+02  0.40659139461E+02  0.00000000000E+00 0. -1.
         11    1    3    3    0    0 -0.80318579895E+01 -0.83890536522E+01  0.20481196671E+02  0.23544986330E+02  0.51100000000E-03 0. -1.
        -11    1    3    3    0    0 -0.76127647338E+01  0.72512299150E+01  0.89525674710E+01  0.13808801061E+02  0.51100000000E-03 0.  1.
        -12    1    3    3    0    0 -0.10748390181E+02 -0.76158845516E+01  0.23013787317E+00  0.13175073147E+02  0.00000000000E+00 0.  1.
</event>
<event>
 7    1  0.5329250E-013  0.5052886E+02  0.7816164E-02  0.1300439E+00
        -11   -1    0    0    0    0  0.00000000000E+00  0.00000000000E+00  0.45593999997E+02  0.45594000000E+02  0.51100000000E-03 0. -1.
         11   -1    0    0    0    0 -0.00000000000E+00 -0.00000000000E+00 -0.45593999997E+02  0.45594000000E+02  0.51100000000E-03 0.  1.
    9900012    2    1    2    0    0 -0.13819438066E+02  0.17437562253E+01 -0.38198801175E+02  0.50528856312E+02  0.29999989245E+02 0.  0.
         12    1    1    2    0    0  0.13819438066E+02 -0.17437562253E+01  0.38198801175E+02  0.40659143688E+02  0.00000000000E+00 0. -1.
         11    1    3    3    0    0  0.35695175338E+01 -0.27144210419E+01 -0.44956024261E+01  0.63498014498E+01  0.51100000000E-03 0. -1.
        -11    1    3    3    0    0 -0.31627644178E+01  0.12017385299E+02 -0.13724171168E+02  0.18514143315E+02  0.51100000000E-03 0.  1.
        -12    1    3    3    0    0 -0.14226191182E+02 -0.75592080320E+01 -0.19979027581E+02  0.25664911547E+02  0.00000000000E+00 0.  1.
</event>
<event>
 7    1  0.5329250E-013  0.5052885E+02  0.7816164E-02  0.1300439E+00
        -11   -1    0    0    0    0  0.00000000000E+00  0.00000000000E+00  0.45593999997E+02  0.45594000000E+02  0.51100000000E-03 0.  1.
         11   -1    0    0    0    0 -0.00000000000E+00 -0.00000000000E+00 -0.45593999997E+02  0.45594000000E+02  0.51100000000E-03 0. -1.
    9900012    2    1    2    0    0  0.12218416441E+02 -0.38185843613E+02  0.67615165338E+01  0.50528850248E+02  0.29999970813E+02 0.  0.
         12    1    1    2    0    0 -0.12218416441E+02  0.38185843613E+02 -0.67615165338E+01  0.40659149752E+02  0.00000000000E+00 0. -1.
         11    1    3    3    0    0 -0.66807176611E+01 -0.13926635619E+02  0.43249736033E+01  0.16040217114E+02  0.51100000000E-03 0. -1.
        -11    1    3    3    0    0 -0.52592098100E+00  0.15944230596E+01 -0.10231895323E+01  0.19661370378E+01  0.51100000000E-03 0.  1.
        -12    1    3    3    0    0  0.19425055083E+02 -0.25853631054E+02  0.34597324628E+01  0.32522496096E+02  0.00000000000E+00 0.  1.
</event>
<event>
 7    1  0.5329250E-013  0.5052886E+02  0.7816164E-02  0.1300439E+00
        -11   -1    0    0    0    0  0.00000000000E+00  0.00000000000E+00  0.45593999997E+02  0.45594000000E+02  0.51100000000E-03 0. -1.
         11   -1    0    0    0    0 -0.00000000000E+00 -0.00000000000E+00 -0.45593999997E+02  0.45594000000E+02  0.51100000000E-03 0.  1.
    9900012    2    1    2    0    0  0.18228565653E+02 -0.34883529964E+02  0.10199217934E+02  0.50528864310E+02  0.30000013558E+02 0.  0.
         12    1    1    2    0    0 -0.18228565653E+02  0.34883529964E+02 -0.10199217934E+02  0.40659135690E+02  0.00000000000E+00 0. -1.
         11    1    3    3    0    0 -0.23204184468E+01 -0.70082700511E+01  0.88061055250E+01  0.11491200358E+02  0.51100000000E-03 0. -1.
        -11    1    3    3    0    0  0.50871075626E+01 -0.66681251071E+01 -0.75760400646E+01  0.11302165240E+02  0.51100000000E-03 0.  1.
         12    1    3    3    0    0  0.15461876538E+02 -0.21207134806E+02  0.89691524732E+01  0.27735498713E+02  0.00000000000E+00 0. -1.
</event>
<event>
 7    1  0.5329250E-013  0.5052887E+02  0.7816164E-02  0.1300439E+00
        -11   -1    0    0    0    0  0.00000000000E+00  0.00000000000E+00  0.45593999997E+02  0.45594000000E+02  0.51100000000E-03 0. -1.
         11   -1    0    0    0    0 -0.00000000000E+00 -0.00000000000E+00 -0.45593999997E+02  0.45594000000E+02  0.51100000000E-03 0.  1.
    9900012    2    1    2    0    0  0.16908407702E+02 -0.36270292949E+02 -0.71928041960E+01  0.50528870228E+02  0.30000031545E+02 0.  0.
         12    1    1    2    0    0 -0.16908407702E+02  0.36270292949E+02  0.71928041960E+01  0.40659129772E+02  0.00000000000E+00 0. -1.
         11    1    3    3    0    0  0.48758621142E+01 -0.21402644574E+02 -0.11120519514E+02  0.24607177421E+02  0.51100000000E-03 0. -1.
        -11    1    3    3    0    0 -0.27238172902E+01 -0.74115642319E+01 -0.23474370157E+01  0.82377743231E+01  0.51100000000E-03 0.  1.
         12    1    3    3    0    0  0.14756362878E+02 -0.74560841433E+01  0.62751523335E+01  0.17683918484E+02  0.00000000000E+00 0. -1.
</event>
<event>
 7    1  0.5329250E-013  0.5052885E+02  0.7816164E-02  0.1300439E+00
        -11   -1    0    0    0    0  0.00000000000E+00  0.00000000000E+00  0.45593999997E+02  0.45594000000E+02  0.51100000000E-03 0. -1.
         11   -1    0    0    0    0 -0.00000000000E+00 -0.00000000000E+00 -0.45593999997E+02  0.45594000000E+02  0.51100000000E-03 0.  1.
    9900012    2    1    2    0    0 -0.11019412875E+02  0.32144854030E+02 -0.22325928710E+02  0.50528853508E+02  0.29999980721E+02 0.  0.
         12    1    1    2    0    0  0.11019412875E+02 -0.32144854030E+02  0.22325928710E+02  0.40659146492E+02  0.00000000000E+00 0. -1.
         11    1    3    3    0    0  0.23892519003E+01  0.11902948149E+02  0.55983334902E+01  0.13368995378E+02  0.51100000000E-03 0. -1.
        -11    1    3    3    0    0 -0.16979421287E+01  0.12496611622E+01 -0.34340131227E+01  0.40295293622E+01  0.51100000000E-03 0.  1.
         12    1    3    3    0    0 -0.11710722646E+02  0.18992244719E+02 -0.24490249077E+02  0.33130328767E+02  0.00000000000E+00 0. -1.
</event>
<event>
 7    1  0.5329250E-013  0.5052884E+02  0.7816164E-02  0.1300439E+00
        -11   -1    0    0    0    0  0.00000000000E+00  0.00000000000E+00  0.45593999997E+02  0.45594000000E+02  0.51100000000E-03 0.  1.
         11   -1    0    0    0    0 -0.00000000000E+00 -0.00000000000E+00 -0.45593999997E+02  0.45594000000E+02  0.51100000000E-03 0. -1.
    9900012    2    1    2    0    0 -0.36885306589E+02 -0.15012963222E+02  0.82007445552E+01  0.50528842137E+02  0.29999946161E+02 0.  0.
         12    1    1    2    0    0  0.36885306589E+02  0.15012963222E+02 -0.82007445552E+01  0.40659157863E+02  0.00000000000E+00 0. -1.
         11    1    3    3    0    0 -0.68656058723E+01 -0.77707039774E+01 -0.70798101999E+01  0.12555640048E+02  0.51100000000E-03 0. -1.
        -11    1    3    3    0    0 -0.20608223543E+02 -0.93864837385E+01  0.37797505626E+01  0.22958472710E+02  0.51100000000E-03 0.  1.
        -12    1    3    3    0    0 -0.94114771729E+01  0.21442244939E+01  0.11500804192E+02  0.15014729379E+02  0.00000000000E+00 0.  1.
</event>
<event>
 7    1  0.5329250E-013  0.5052886E+02  0.7816164E-02  0.1300439E+00
        -11   -1    0    0    0    0  0.00000000000E+00  0.00000000000E+00  0.45593999997E+02  0.45594000000E+02  0.51100000000E-03 0.  1.
         11   -1    0    0    0    0 -0.00000000000E+00 -0.00000000000E+00 -0.45593999997E+02  0.45594000000E+02  0.51100000000E-03 0. -1.
    9900012    2    1    2    0    0 -0.82821049040E+01 -0.19366906469E+01  0.39759548508E+02  0.50528859209E+02  0.29999998052E+02 0.  0.
         12    1    1    2    0    0  0.82821049040E+01  0.19366906469E+01 -0.39759548508E+02  0.40659140791E+02  0.00000000000E+00 0. -1.
         11    1    3    3    0    0  0.38805858751E+01 -0.34234683765E+01  0.40328406319E+01  0.65607077577E+01  0.51100000000E-03 0. -1.
        -11    1    3    3    0    0 -0.76732653474E+01 -0.98021892692E+01  0.24235644281E+02  0.27245703689E+02  0.51100000000E-03 0.  1.
         12    1    3    3    0    0 -0.44894254316E+01  0.11288966999E+02  0.11491063595E+02  0.16722447762E+02  0.00000000000E+00 0. -1.
</event>
<event>
 7    1  0.5329250E-013  0.5052886E+02  0.7816164E-02  0.1300439E+00
        -11   -1    0    0    0    0  0.00000000000E+00  0.00000000000E+00  0.45593999997E+02  0.45594000000E+02  0.51100000000E-03 0.  1.
         11   -1    0    0    0    0 -0.00000000000E+00 -0.00000000000E+00 -0.45593999997E+02  0.45594000000E+02  0.51100000000E-03 0. -1.
    9900012    2    1    2    0    0  0.31394942270E+02 -0.11083862549E+02  0.23338188754E+02  0.50528862485E+02  0.30000008010E+02 0.  0.
         12    1    1    2    0    0 -0.31394942270E+02  0.11083862549E+02 -0.23338188754E+02  0.40659137515E+02  0.00000000000E+00 0. -1.
         11    1    3    3    0    0  0.10276003817E+02 -0.55183730738E+01  0.12689483739E+02  0.17235767858E+02  0.51100000000E-03 0.  1.
        -11    1    3    3    0    0  0.64210931688E+01 -0.13257194536E+02  0.30316768433E+01  0.15039105997E+02  0.51100000000E-03 0. -1.
         12    1    3    3    0    0  0.14697845284E+02  0.76917050609E+01  0.76170281722E+01  0.18253988630E+02  0.00000000000E+00 0. -1.
</event>
<event>
 7    1  0.5329250E-013  0.5052882E+02  0.7816164E-02  0.1300439E+00
        -11   -1    0    0    0    0  0.00000000000E+00  0.00000000000E+00  0.45593999997E+02  0.45594000000E+02  0.51100000000E-03 0.  1.
         11   -1    0    0    0    0 -0.00000000000E+00 -0.00000000000E+00 -0.45593999997E+02  0.45594000000E+02  0.51100000000E-03 0. -1.
    9900012    2    1    2    0    0 -0.13784406831E+02  0.36297184572E+02  0.12069514718E+02  0.50528823114E+02  0.29999888337E+02 0.  0.
         12    1    1    2    0    0  0.13784406831E+02 -0.36297184572E+02 -0.12069514718E+02  0.40659176886E+02  0.00000000000E+00 0. -1.
         11    1    3    3    0    0 -0.17491898304E+02  0.26048935018E+02  0.24567491726E+01  0.31472990621E+02  0.51100000000E-03 0. -1.
        -11    1    3    3    0    0  0.98372968761E+00  0.33184897568E+01 -0.28864974022E+01  0.45068798384E+01  0.51100000000E-03 0.  1.
        -12    1    3    3    0    0  0.27237617857E+01  0.69297597970E+01  0.12499262948E+02  0.14548952655E+02  0.00000000000E+00 0.  1.
</event>
<event>
 7    1  0.5329250E-013  0.5052883E+02  0.7816164E-02  0.1300439E+00
        -11   -1    0    0    0    0  0.00000000000E+00  0.00000000000E+00  0.45593999997E+02  0.45594000000E+02  0.51100000000E-03 0. -1.
         11   -1    0    0    0    0 -0.00000000000E+00 -0.00000000000E+00 -0.45593999997E+02  0.45594000000E+02  0.51100000000E-03 0.  1.
    9900012    2    1    2    0    0  0.14611503768E+02 -0.29472447624E+02 -0.23896590424E+02  0.50528828277E+02  0.29999904030E+02 0.  0.
         12    1    1    2    0    0 -0.14611503768E+02  0.29472447624E+02  0.23896590424E+02  0.40659171723E+02  0.00000000000E+00 0. -1.
         11    1    3    3    0    0 -0.72814749318E+01 -0.16527154440E+02 -0.94861588283E+01  0.20399850996E+02  0.51100000000E-03 0. -1.
        -11    1    3    3    0    0  0.46274708538E+01 -0.64117082991E+01 -0.31919884785E+01  0.85271496130E+01  0.51100000000E-03 0.  1.
        -12    1    3    3    0    0  0.17265507846E+02 -0.65335848851E+01 -0.11218443118E+02  0.21601827668E+02  0.00000000000E+00 0.  1.
</event>
<event>
 7    1  0.5329250E-013  0.5052886E+02  0.7816164E-02  0.1300439E+00
        -11   -1    0    0    0    0  0.00000000000E+00  0.00000000000E+00  0.45593999997E+02  0.45594000000E+02  0.51100000000E-03 0. -1.
         11   -1    0    0    0    0 -0.00000000000E+00 -0.00000000000E+00 -0.45593999997E+02  0.45594000000E+02  0.51100000000E-03 0.  1.
    9900012    2    1    2    0    0  0.28414189649E+02 -0.28794265258E+02 -0.40853184866E+01  0.50528859425E+02  0.29999998708E+02 0.  0.
         12    1    1    2    0    0 -0.28414189649E+02  0.28794265258E+02  0.40853184866E+01  0.40659140575E+02  0.00000000000E+00 0. -1.
         11    1    3    3    0    0 -0.13847684118E+01 -0.41101315868E+01 -0.63439020735E+01  0.76847809985E+01  0.51100000000E-03 0. -1.
        -11    1    3    3    0    0  0.17158120541E+02 -0.15731184094E+02 -0.75945671462E+01  0.24485683652E+02  0.51100000000E-03 0.  1.
         12    1    3    3    0    0  0.12640837520E+02 -0.89529495770E+01  0.98531507331E+01  0.18358394775E+02  0.00000000000E+00 0. -1.
</event>
<event>
 7    1  0.5329250E-013  0.5052885E+02  0.7816164E-02  0.1300439E+00
        -11   -1    0    0    0    0  0.00000000000E+00  0.00000000000E+00  0.45593999997E+02  0.45594000000E+02  0.51100000000E-03 0.  1.
         11   -1    0    0    0    0 -0.00000000000E+00 -0.00000000000E+00 -0.45593999997E+02  0.45594000000E+02  0.51100000000E-03 0. -1.
    9900012    2    1    2    0    0 -0.10107397559E+02  0.21821905687E+02  0.32784321732E+02  0.50528845992E+02  0.29999957877E+02 0.  0.
         12    1    1    2    0    0  0.10107397559E+02 -0.21821905687E+02 -0.32784321732E+02  0.40659154008E+02  0.00000000000E+00 0. -1.
         11    1    3    3    0    0  0.14788303197E+01  0.30620569042E+01  0.21359529406E+02  0.21628514242E+02  0.51100000000E-03 0. -1.
        -11    1    3    3    0    0 -0.69687892610E+01  0.26743585752E+01  0.94600932433E+01  0.12050293855E+02  0.51100000000E-03 0.  1.
        -12    1    3    3    0    0 -0.46174386176E+01  0.16085490207E+02  0.19646990829E+01  0.16850037896E+02  0.00000000000E+00 0.  1.
</event>
<event>
 7    1  0.5329250E-013  0.5052886E+02  0.7816164E-02  0.1300439E+00
        -11   -1    0    0    0    0  0.00000000000E+00  0.00000000000E+00  0.45593999997E+02  0.45594000000E+02  0.51100000000E-03 0. -1.
         11   -1    0    0    0    0 -0.00000000000E+00 -0.00000000000E+00 -0.45593999997E+02  0.45594000000E+02  0.51100000000E-03 0.  1.
    9900012    2    1    2    0    0 -0.99061294066E+01 -0.39387733081E+02 -0.19081635632E+01  0.50528855822E+02  0.29999987757E+02 0.  0.
         12    1    1    2    0    0  0.99061294066E+01  0.39387733081E+02  0.19081635632E+01  0.40659144178E+02  0.00000000000E+00 0. -1.
         11    1    3    3    0    0  0.19244886474E+01 -0.12403546208E+02 -0.11648943029E+02  0.17124528871E+02  0.51100000000E-03 0. -1.
        -11    1    3    3    0    0 -0.42499440189E+01 -0.85577453354E+00  0.32949051575E+01  0.54452524711E+01  0.51100000000E-03 0.  1.
        -12    1    3    3    0    0 -0.75806740351E+01 -0.26128412340E+02  0.64458743080E+01  0.27959074481E+02  0.00000000000E+00 0.  1.
</event>
<event>
 7    1  0.5329250E-013  0.5052880E+02  0.7816164E-02  0.1300439E+00
        -11   -1    0    0    0    0  0.00000000000E+00  0.00000000000E+00  0.45593999997E+02  0.45594000000E+02  0.51100000000E-03 0.  1.
         11   -1    0    0    0    0 -0.00000000000E+00 -0.00000000000E+00 -0.45593999997E+02  0.45594000000E+02  0.51100000000E-03 0. -1.
    9900012    2    1    2    0    0 -0.29170395176E+02  0.28214218276E+02 -0.24932743527E+01  0.50528800738E+02  0.29999820321E+02 0.  0.
         12    1    1    2    0    0  0.29170395176E+02 -0.28214218276E+02  0.24932743527E+01  0.40659199262E+02  0.00000000000E+00 0. -1.
         11    1    3    3    0    0 -0.80452624178E+01 -0.14041406944E+01  0.35933665643E+01  0.89224515683E+01  0.51100000000E-03 0. -1.
        -11    1    3    3    0    0 -0.12082032861E+02  0.16637239452E+02  0.63095685201E+01  0.21507763943E+02  0.51100000000E-03 0.  1.
        -12    1    3    3    0    0 -0.90430998974E+01  0.12981119518E+02 -0.12396209437E+02  0.20098585227E+02  0.00000000000E+00 0.  1.
</event>
<event>
 7    1  0.5329250E-013  0.5052885E+02  0.7816164E-02  0.1300439E+00
        -11   -1    0    0    0    0  0.00000000000E+00  0.00000000000E+00  0.45593999997E+02  0.45594000000E+02  0.51100000000E-03 0.  1.
         11   -1    0    0    0    0 -0.00000000000E+00 -0.00000000000E+00 -0.45593999997E+02  0.45594000000E+02  0.51100000000E-03 0. -1.
    9900012    2    1    2    0    0  0.26842320237E+02  0.17142929565E+02 -0.25274022287E+02  0.50528851062E+02  0.29999973289E+02 0.  0.
         12    1    1    2    0    0 -0.26842320237E+02 -0.17142929565E+02  0.25274022287E+02  0.40659148938E+02  0.00000000000E+00 0. -1.
         11    1    3    3    0    0  0.15602924646E+02  0.52875433445E+01 -0.14125826005E+02  0.21701344030E+02  0.51100000000E-03 0. -1.
        -11    1    3    3    0    0  0.14777257414E+02  0.15490408409E+02 -0.79822273970E+01  0.22848108102E+02  0.51100000000E-03 0.  1.
        -12    1    3    3    0    0 -0.35378618223E+01 -0.36350221888E+01 -0.31659688844E+01  0.59793989299E+01  0.00000000000E+00 0.  1.
</event>
<event>
 7    1  0.5329250E-013  0.5052886E+02  0.7816164E-02  0.1300439E+00
        -11   -1    0    0    0    0  0.00000000000E+00  0.00000000000E+00  0.45593999997E+02  0.45594000000E+02  0.51100000000E-03 0.  1.
         11   -1    0    0    0    0 -0.00000000000E+00 -0.00000000000E+00 -0.45593999997E+02  0.45594000000E+02  0.51100000000E-03 0. -1.
    9900012    2    1    2    0    0  0.34618546251E+01  0.40494907626E+02  0.11593209241E+01  0.50528855812E+02  0.29999987727E+02 0.  0.
         12    1    1    2    0    0 -0.34618546251E+01 -0.40494907626E+02 -0.11593209241E+01  0.40659144188E+02  0.00000000000E+00 0. -1.
         11    1    3    3    0    0  0.60726350737E+01  0.32527015077E+02 -0.86370687626E+01  0.34197698221E+02  0.51100000000E-03 0. -1.
        -11    1    3    3    0    0  0.33542533983E+01  0.53832504935E+01  0.33379214306E+01  0.71674347903E+01  0.51100000000E-03 0.  1.
        -12    1    3    3    0    0 -0.59650338470E+01  0.25846420555E+01  0.64584682562E+01  0.91637228006E+01  0.00000000000E+00 0.  1.
</event>
<event>
 7    1  0.5329250E-013  0.5052886E+02  0.7816164E-02  0.1300439E+00
        -11   -1    0    0    0    0  0.00000000000E+00  0.00000000000E+00  0.45593999997E+02  0.45594000000E+02  0.51100000000E-03 0.  1.
         11   -1    0    0    0    0 -0.00000000000E+00 -0.00000000000E+00 -0.45593999997E+02  0.45594000000E+02  0.51100000000E-03 0. -1.
    9900012    2    1    2    0    0  0.31430330562E+02  0.88925371832E+01  0.24212031858E+02  0.50528863468E+02  0.30000010998E+02 0.  0.
         12    1    1    2    0    0 -0.31430330562E+02 -0.88925371832E+01 -0.24212031858E+02  0.40659136532E+02  0.00000000000E+00 0. -1.
         11    1    3    3    0    0  0.12753147667E+02  0.18527097758E+00  0.17929429446E+02  0.22003216612E+02  0.51100000000E-03 0.  1.
        -11    1    3    3    0    0  0.15632594586E+02  0.14411869237E+02  0.58125574545E+01  0.22042364047E+02  0.51100000000E-03 0. -1.
         12    1    3    3    0    0  0.30445883091E+01 -0.57046030309E+01  0.47004495716E+00  0.64832828084E+01  0.00000000000E+00 0. -1.
</event>
<event>
 7    1  0.5329250E-013  0.5052900E+02  0.7816164E-02  0.1300438E+00
        -11   -1    0    0    0    0  0.00000000000E+00  0.00000000000E+00  0.45593999997E+02  0.45594000000E+02  0.51100000000E-03 0. -1.
         11   -1    0    0    0    0 -0.00000000000E+00 -0.00000000000E+00 -0.45593999997E+02  0.45594000000E+02  0.51100000000E-03 0.  1.
    9900012    2    1    2    0    0 -0.61987958356E+00  0.25691392627E+02 -0.31507502205E+02  0.50528996064E+02  0.30000414035E+02 0.  0.
         12    1    1    2    0    0  0.61987958356E+00 -0.25691392627E+02  0.31507502205E+02  0.40659003936E+02  0.00000000000E+00 0. -1.
         11    1    3    3    0    0 -0.71170054870E+01  0.11983864288E+02 -0.67619470257E+01  0.15491568617E+02  0.51100000000E-03 0. -1.
        -11    1    3    3    0    0  0.87919363785E+01  0.85536277139E+01 -0.30768638674E+01  0.12646334800E+02  0.51100000000E-03 0.  1.
         12    1    3    3    0    0 -0.22948104751E+01  0.51539006250E+01 -0.21668691312E+02  0.22391092648E+02  0.00000000000E+00 0. -1.
</event>
<event>
 7    1  0.5329250E-013  0.5052886E+02  0.7816164E-02  0.1300439E+00
        -11   -1    0    0    0    0  0.00000000000E+00  0.00000000000E+00  0.45593999997E+02  0.45594000000E+02  0.51100000000E-03 0. -1.
         11   -1    0    0    0    0 -0.00000000000E+00 -0.00000000000E+00 -0.45593999997E+02  0.45594000000E+02  0.51100000000E-03 0.  1.
    9900012    2    1    2    0    0 -0.36661191105E+02 -0.86735846178E+01  0.15293515951E+02  0.50528860394E+02  0.30000001653E+02 0.  0.
         12    1    1    2    0    0  0.36661191105E+02  0.86735846178E+01 -0.15293515951E+02  0.40659139606E+02  0.00000000000E+00 0. -1.
         11    1    3    3    0    0  0.11519509830E+00 -0.19563427113E+01  0.40556772402E+01  0.45043384478E+01  0.51100000000E-03 0. -1.
        -11    1    3    3    0    0 -0.18539622373E+02 -0.26074483509E-01 -0.65723464658E+01  0.19670130044E+02  0.51100000000E-03 0.  1.
         12    1    3    3    0    0 -0.18236763830E+02 -0.66911674230E+01  0.17810185177E+02  0.26354391902E+02  0.00000000000E+00 0. -1.
</event>
<event>
 7    1  0.5329250E-013  0.5052887E+02  0.7816164E-02  0.1300439E+00
        -11   -1    0    0    0    0  0.00000000000E+00  0.00000000000E+00  0.45593999997E+02  0.45594000000E+02  0.51100000000E-03 0.  1.
         11   -1    0    0    0    0 -0.00000000000E+00 -0.00000000000E+00 -0.45593999997E+02  0.45594000000E+02  0.51100000000E-03 0. -1.
    9900012    2    1    2    0    0  0.69326685961E+01 -0.91651151213E+01  0.39001329567E+02  0.50528868958E+02  0.30000027686E+02 0.  0.
         12    1    1    2    0    0 -0.69326685961E+01  0.91651151213E+01 -0.39001329567E+02  0.40659131042E+02  0.00000000000E+00 0. -1.
         11    1    3    3    0    0 -0.58127423296E+01 -0.92197595010E+01  0.17599680128E+02  0.20701224107E+02  0.51100000000E-03 0. -1.
        -11    1    3    3    0    0 -0.31785699473E+01  0.29434810867E+01  0.27400152939E+01  0.51259215649E+01  0.51100000000E-03 0.  1.
        -12    1    3    3    0    0  0.15923980873E+02 -0.28888367070E+01  0.18661634145E+02  0.24701723287E+02  0.00000000000E+00 0.  1.
</event>
<event>
 7    1  0.5329250E-013  0.5052886E+02  0.7816164E-02  0.1300439E+00
        -11   -1    0    0    0    0  0.00000000000E+00  0.00000000000E+00  0.45593999997E+02  0.45594000000E+02  0.51100000000E-03 0.  1.
         11   -1    0    0    0    0 -0.00000000000E+00 -0.00000000000E+00 -0.45593999997E+02  0.45594000000E+02  0.51100000000E-03 0. -1.
    9900012    2    1    2    0    0 -0.33537711099E+02 -0.14296886116E+02  0.17999626253E+02  0.50528861254E+02  0.30000004267E+02 0.  0.
         12    1    1    2    0    0  0.33537711099E+02  0.14296886116E+02 -0.17999626253E+02  0.40659138746E+02  0.00000000000E+00 0. -1.
         11    1    3    3    0    0 -0.48820804820E+01 -0.10774338274E+02  0.24842652174E+01  0.12086879209E+02  0.51100000000E-03 0. -1.
        -11    1    3    3    0    0  0.29692959260E+01  0.44248430008E-01  0.30656178780E+01  0.42681013876E+01  0.51100000000E-03 0.  1.
        -12    1    3    3    0    0 -0.31624926543E+02 -0.35667962712E+01  0.12449743158E+02  0.34173880657E+02  0.00000000000E+00 0.  1.
</event>
<event>
 7    1  0.5329250E-013  0.5052886E+02  0.7816164E-02  0.1300439E+00
        -11   -1    0    0    0    0  0.00000000000E+00  0.00000000000E+00  0.45593999997E+02  0.45594000000E+02  0.51100000000E-03 0. -1.
         11   -1    0    0    0    0 -0.00000000000E+00 -0.00000000000E+00 -0.45593999997E+02  0.45594000000E+02  0.51100000000E-03 0.  1.
    9900012    2    1    2    0    0  0.38132930771E+02  0.11920194845E+02 -0.75468281476E+01  0.50528855034E+02  0.29999985360E+02 0.  0.
         12    1    1    2    0    0 -0.38132930771E+02 -0.11920194845E+02  0.75468281476E+01  0.40659144966E+02  0.00000000000E+00 0. -1.
         11    1    3    3    0    0  0.79604494159E+01  0.12421499874E+02 -0.27896046737E+01  0.15014802980E+02  0.51100000000E-03 0. -1.
        -11    1    3    3    0    0  0.13999165842E+02  0.14328778842E+01 -0.11212431811E+02  0.17993010050E+02  0.51100000000E-03 0.  1.
         12    1    3    3    0    0  0.16173315513E+02 -0.19341829130E+01  0.64552083366E+01  0.17521042003E+02  0.00000000000E+00 0. -1.
</event>
<event>
 7    1  0.5329250E-013  0.5052887E+02  0.7816164E-02  0.1300439E+00
        -11   -1    0    0    0    0  0.00000000000E+00  0.00000000000E+00  0.45593999997E+02  0.45594000000E+02  0.51100000000E-03 0. -1.
         11   -1    0    0    0    0 -0.00000000000E+00 -0.00000000000E+00 -0.45593999997E+02  0.45594000000E+02  0.51100000000E-03 0.  1.
    9900012    2    1    2    0    0 -0.39798614533E+02  0.23564259446E+01 -0.79801204610E+01  0.50528870833E+02  0.30000033385E+02 0.  0.
         12    1    1    2    0    0  0.39798614533E+02 -0.23564259446E+01  0.79801204610E+01  0.40659129167E+02  0.00000000000E+00 0. -1.
         11    1    3    3    0    0  0.19463953503E+01 -0.85484934493E+00  0.37550095941E+01  0.43150109589E+01  0.51100000000E-03 0. -1.
        -11    1    3    3    0    0 -0.33095557308E+01  0.36605624491E+01 -0.52983882831E+01  0.72405659474E+01  0.51100000000E-03 0.  1.
        -12    1    3    3    0    0 -0.38435454153E+02 -0.44928715959E+00 -0.64367417720E+01  0.38973293927E+02  0.00000000000E+00 0.  1.
</event>
<event>
 7    1  0.5329250E-013  0.5052886E+02  0.7816164E-02  0.1300439E+00
        -11   -1    0    0    0    0  0.00000000000E+00  0.00000000000E+00  0.45593999997E+02  0.45594000000E+02  0.51100000000E-03 0.  1.
         11   -1    0    0    0    0 -0.00000000000E+00 -0.00000000000E+00 -0.45593999997E+02  0.45594000000E+02  0.51100000000E-03 0. -1.
    9900012    2    1    2    0    0  0.18085403245E+02  0.13712393023E+02  0.33735059827E+02  0.50528858414E+02  0.29999995636E+02 0.  0.
         12    1    1    2    0    0 -0.18085403245E+02 -0.13712393023E+02 -0.33735059827E+02  0.40659141586E+02  0.00000000000E+00 0. -1.
         11    1    3    3    0    0  0.78763189664E+01 -0.30485129734E+01  0.32809273857E+01  0.90605914035E+01  0.51100000000E-03 0. -1.
        -11    1    3    3    0    0  0.13677339038E+02  0.56370429092E+01  0.23876336460E+02  0.28087814064E+02  0.51100000000E-03 0.  1.
         12    1    3    3    0    0 -0.34682547598E+01  0.11123863088E+02  0.65777959817E+01  0.13380452946E+02  0.00000000000E+00 0. -1.
</event>
<event>
 7    1  0.5329250E-013  0.5052886E+02  0.7816164E-02  0.1300439E+00
        -11   -1    0    0    0    0  0.00000000000E+00  0.00000000000E+00  0.45593999997E+02  0.45594000000E+02  0.51100000000E-03 0.  1.
         11   -1    0    0    0    0 -0.00000000000E+00 -0.00000000000E+00 -0.45593999997E+02  0.45594000000E+02  0.51100000000E-03 0. -1.
    9900012    2    1    2    0    0  0.23122199074E+02  0.25507981126E+02  0.21630368328E+02  0.50528855578E+02  0.29999987014E+02 0.  0.
         12    1    1    2    0    0 -0.23122199074E+02 -0.25507981126E+02 -0.21630368328E+02  0.40659144422E+02  0.00000000000E+00 0. -1.
         11    1    3    3    0    0 -0.33127619507E+01  0.93244317324E+01  0.10177211350E+02  0.14194895209E+02  0.51100000000E-03 0. -1.
        -11    1    3    3    0    0  0.18289832898E+02  0.18444280402E+02  0.95025153810E+01  0.27658764720E+02  0.51100000000E-03 0.  1.
        -12    1    3    3    0    0  0.81451281273E+01 -0.22607310091E+01  0.19506415971E+01  0.86751956489E+01  0.00000000000E+00 0.  1.
</event>
<event>
 7    1  0.5329250E-013  0.5052886E+02  0.7816164E-02  0.1300439E+00
        -11   -1    0    0    0    0  0.00000000000E+00  0.00000000000E+00  0.45593999997E+02  0.45594000000E+02  0.51100000000E-03 0.  1.
         11   -1    0    0    0    0 -0.00000000000E+00 -0.00000000000E+00 -0.45593999997E+02  0.45594000000E+02  0.51100000000E-03 0. -1.
    9900012    2    1    2    0    0 -0.38132445467E+02  0.87638814981E+01 -0.11057864232E+02  0.50528863541E+02  0.30000011221E+02 0.  0.
         12    1    1    2    0    0  0.38132445467E+02 -0.87638814981E+01  0.11057864232E+02  0.40659136459E+02  0.00000000000E+00 0. -1.
         11    1    3    3    0    0 -0.74635239618E+00 -0.14790277419E+01  0.52287035288E+01  0.54848797447E+01  0.51100000000E-03 0. -1.
        -11    1    3    3    0    0 -0.15614153882E+02  0.20254847007E+01 -0.14985800487E+02  0.21736573010E+02  0.51100000000E-03 0.  1.
        -12    1    3    3    0    0 -0.21771939188E+02  0.82174245393E+01 -0.13007672739E+01  0.23307410787E+02  0.00000000000E+00 0.  1.
</event>
<event>
 7    1  0.5329250E-013  0.5052886E+02  0.7816164E-02  0.1300439E+00
        -11   -1    0    0    0    0  0.00000000000E+00  0.00000000000E+00  0.45593999997E+02  0.45594000000E+02  0.51100000000E-03 0. -1.
         11   -1    0    0    0    0 -0.00000000000E+00 -0.00000000000E+00 -0.45593999997E+02  0.45594000000E+02  0.51100000000E-03 0.  1.
    9900012    2    1    2    0    0  0.39756241665E+02  0.84649627716E+01 -0.97546342754E+00  0.50528857424E+02  0.29999992627E+02 0.  0.
         12    1    1    2    0    0 -0.39756241665E+02 -0.84649627716E+01  0.97546342754E+00  0.40659142576E+02  0.00000000000E+00 0. -1.
         11    1    3    3    0    0  0.86666514989E+01  0.71427397002E+01  0.38840571468E+01  0.11883411918E+02  0.51100000000E-03 0.  1.
        -11    1    3    3    0    0  0.13151168240E+02 -0.47446696063E+01  0.76626320256E+01  0.15943056343E+02  0.51100000000E-03 0. -1.
         12    1    3    3    0    0  0.17938421927E+02  0.60668926777E+01 -0.12522152600E+02  0.22702389163E+02  0.00000000000E+00 0. -1.
</event>
<event>
 7    1  0.5329250E-013  0.5052885E+02  0.7816164E-02  0.1300439E+00
        -11   -1    0    0    0    0  0.00000000000E+00  0.00000000000E+00  0.45593999997E+02  0.45594000000E+02  0.51100000000E-03 0.  1.
         11   -1    0    0    0    0 -0.00000000000E+00 -0.00000000000E+00 -0.45593999997E+02  0.45594000000E+02  0.51100000000E-03 0. -1.
    9900012    2    1    2    0    0  0.18928136728E+02  0.73001441124E+01  0.35236341253E+02  0.50528853318E+02  0.29999980145E+02 0.  0.
         12    1    1    2    0    0 -0.18928136728E+02 -0.73001441124E+01 -0.35236341253E+02  0.40659146682E+02  0.00000000000E+00 0. -1.
         11    1    3    3    0    0  0.47462036921E+01  0.55565165102E+01  0.20237665784E+01  0.75826747682E+01  0.51100000000E-03 0. -1.
        -11    1    3    3    0    0 -0.78469376656E+00  0.79244892001E+01  0.21596608895E+02  0.23017966665E+02  0.51100000000E-03 0.  1.
         12    1    3    3    0    0  0.14966626802E+02 -0.61808615979E+01  0.11615965780E+02  0.19928211885E+02  0.00000000000E+00 0. -1.
</event>
<event>
 7    1  0.5329250E-013  0.5052885E+02  0.7816164E-02  0.1300439E+00
        -11   -1    0    0    0    0  0.00000000000E+00  0.00000000000E+00  0.45593999997E+02  0.45594000000E+02  0.51100000000E-03 0.  1.
         11   -1    0    0    0    0 -0.00000000000E+00 -0.00000000000E+00 -0.45593999997E+02  0.45594000000E+02  0.51100000000E-03 0. -1.
    9900012    2    1    2    0    0 -0.24131772758E+02  0.11997931962E+02  0.30444593326E+02  0.50528854772E+02  0.29999984566E+02 0.  0.
         12    1    1    2    0    0  0.24131772758E+02 -0.11997931962E+02 -0.30444593326E+02  0.40659145228E+02  0.00000000000E+00 0. -1.
         11    1    3    3    0    0 -0.68199533007E+01  0.14018035851E+02  0.95417742934E+01  0.18277378069E+02  0.51100000000E-03 0. -1.
        -11    1    3    3    0    0 -0.20640468791E+00  0.19269396387E+01  0.12748842160E+02  0.12895296660E+02  0.51100000000E-03 0.  1.
        -12    1    3    3    0    0 -0.17105414770E+02 -0.39470435270E+01  0.81539768731E+01  0.19356180044E+02  0.00000000000E+00 0.  1.
</event>
<event>
 7    1  0.5329250E-013  0.5052886E+02  0.7816164E-02  0.1300439E+00
        -11   -1    0    0    0    0  0.00000000000E+00  0.00000000000E+00  0.45593999997E+02  0.45594000000E+02  0.51100000000E-03 0.  1.
         11   -1    0    0    0    0 -0.00000000000E+00 -0.00000000000E+00 -0.45593999997E+02  0.45594000000E+02  0.51100000000E-03 0. -1.
    9900012    2    1    2    0    0 -0.22492382329E+02 -0.13292089842E+01  0.33845115917E+02  0.50528856738E+02  0.29999990542E+02 0.  0.
         12    1    1    2    0    0  0.22492382329E+02  0.13292089842E+01 -0.33845115917E+02  0.40659143262E+02  0.00000000000E+00 0. -1.
         11    1    3    3    0    0 -0.40590194188E+01  0.75163679186E+01  0.10448222415E+02  0.13495805912E+02  0.51100000000E-03 0. -1.
        -11    1    3    3    0    0  0.15266068149E+01 -0.41677461153E+01  0.13610957332E+02  0.14316382078E+02  0.51100000000E-03 0.  1.
         12    1    3    3    0    0 -0.19959969725E+02 -0.46778307875E+01  0.97859361700E+01  0.22716668748E+02  0.00000000000E+00 0. -1.
</event>
<event>
 7    1  0.5329250E-013  0.5052886E+02  0.7816164E-02  0.1300439E+00
        -11   -1    0    0    0    0  0.00000000000E+00  0.00000000000E+00  0.45593999997E+02  0.45594000000E+02  0.51100000000E-03 0.  1.
         11   -1    0    0    0    0 -0.00000000000E+00 -0.00000000000E+00 -0.45593999997E+02  0.45594000000E+02  0.51100000000E-03 0. -1.
    9900012    2    1    2    0    0  0.28212912641E+02 -0.29150386030E+02  0.27298669889E+01  0.50528860570E+02  0.30000002190E+02 0.  0.
         12    1    1    2    0    0 -0.28212912641E+02  0.29150386030E+02 -0.27298669889E+01  0.40659139430E+02  0.00000000000E+00 0. -1.
         11    1    3    3    0    0  0.16763866215E+01 -0.14506249158E+02  0.57169333169E+01  0.15681991696E+02  0.51100000000E-03 0. -1.
        -11    1    3    3    0    0 -0.33674255910E+00  0.25741275944E+01 -0.12556528312E+01  0.28837809759E+01  0.51100000000E-03 0.  1.
        -12    1    3    3    0    0  0.26873268579E+02 -0.17218264466E+02 -0.17314134968E+01  0.31963087899E+02  0.00000000000E+00 0.  1.
</event>
<event>
 7    1  0.5329250E-013  0.5052885E+02  0.7816164E-02  0.1300439E+00
        -11   -1    0    0    0    0  0.00000000000E+00  0.00000000000E+00  0.45593999997E+02  0.45594000000E+02  0.51100000000E-03 0. -1.
         11   -1    0    0    0    0 -0.00000000000E+00 -0.00000000000E+00 -0.45593999997E+02  0.45594000000E+02  0.51100000000E-03 0.  1.
    9900012    2    1    2    0    0 -0.24961257884E+02 -0.30479338060E+02 -0.10055433310E+02  0.50528853639E+02  0.29999981122E+02 0.  0.
         12    1    1    2    0    0  0.24961257884E+02  0.30479338060E+02  0.10055433310E+02  0.40659146361E+02  0.00000000000E+00 0. -1.
         11    1    3    3    0    0  0.28017885198E+01 -0.99595975366E+00  0.12568122769E+01  0.32282397837E+01  0.51100000000E-03 0. -1.
        -11    1    3    3    0    0 -0.10385689605E+02 -0.11942598125E+02  0.62336461273E+01  0.17010189383E+02  0.51100000000E-03 0.  1.
        -12    1    3    3    0    0 -0.17377356799E+02 -0.17540780181E+02 -0.17545891715E+02  0.30290424473E+02  0.00000000000E+00 0.  1.
</event>
<event>
 7    1  0.5329250E-013  0.5052887E+02  0.7816164E-02  0.1300439E+00
        -11   -1    0    0    0    0  0.00000000000E+00  0.00000000000E+00  0.45593999997E+02  0.45594000000E+02  0.51100000000E-03 0. -1.
         11   -1    0    0    0    0 -0.00000000000E+00 -0.00000000000E+00 -0.45593999997E+02  0.45594000000E+02  0.51100000000E-03 0.  1.
    9900012    2    1    2    0    0 -0.12352948229E+02  0.38059324935E+02 -0.72150938273E+01  0.50528866667E+02  0.30000020722E+02 0.  0.
         12    1    1    2    0    0  0.12352948229E+02 -0.38059324935E+02  0.72150938273E+01  0.40659133333E+02  0.00000000000E+00 0. -1.
         11    1    3    3    0    0 -0.23628757895E+01  0.15852223255E+02 -0.76070555123E+01  0.17741010624E+02  0.51100000000E-03 0. -1.
        -11    1    3    3    0    0  0.64447030136E+01  0.10944266960E+02 -0.14297712841E+01  0.12781057171E+02  0.51100000000E-03 0.  1.
         12    1    3    3    0    0 -0.16434775453E+02  0.11262834720E+02  0.18217329690E+01  0.20006798873E+02  0.00000000000E+00 0. -1.
</event>
<event>
 7    1  0.5329250E-013  0.5052873E+02  0.7816164E-02  0.1300439E+00
        -11   -1    0    0    0    0  0.00000000000E+00  0.00000000000E+00  0.45593999997E+02  0.45594000000E+02  0.51100000000E-03 0.  1.
         11   -1    0    0    0    0 -0.00000000000E+00 -0.00000000000E+00 -0.45593999997E+02  0.45594000000E+02  0.51100000000E-03 0. -1.
    9900012    2    1    2    0    0 -0.43686220847E+01 -0.31175355086E+02  0.25733023585E+02  0.50528731358E+02  0.29999609435E+02 0.  0.
         12    1    1    2    0    0  0.43686220847E+01  0.31175355086E+02 -0.25733023585E+02  0.40659268642E+02  0.00000000000E+00 0. -1.
         11    1    3    3    0    0 -0.20432852516E+01 -0.52358406012E+01  0.20998305219E+02  0.21737476021E+02  0.51100000000E-03 0. -1.
        -11    1    3    3    0    0  0.34443844434E+01 -0.49772416915E+01 -0.13755202635E+01  0.62071551701E+01  0.51100000000E-03 0.  1.
        -12    1    3    3    0    0 -0.57697212765E+01 -0.20962272793E+02  0.61102386290E+01  0.22584100167E+02  0.00000000000E+00 0.  1.
</event>
<event>
 7    1  0.5329250E-013  0.5052887E+02  0.7816164E-02  0.1300439E+00
        -11   -1    0    0    0    0  0.00000000000E+00  0.00000000000E+00  0.45593999997E+02  0.45594000000E+02  0.51100000000E-03 0.  1.
         11   -1    0    0    0    0 -0.00000000000E+00 -0.00000000000E+00 -0.45593999997E+02  0.45594000000E+02  0.51100000000E-03 0. -1.
    9900012    2    1    2    0    0  0.49911442651E+01  0.36018089777E+02  0.18192040176E+02  0.50528872636E+02  0.30000038864E+02 0.  0.
         12    1    1    2    0    0 -0.49911442651E+01 -0.36018089777E+02 -0.18192040176E+02  0.40659127364E+02  0.00000000000E+00 0. -1.
         11    1    3    3    0    0  0.81695287658E+01  0.16585704685E+02  0.11070015484E+02  0.21549293335E+02  0.51100000000E-03 0.  1.
        -11    1    3    3    0    0  0.47850791956E+01  0.28836656975E+00 -0.32541309760E+01  0.57939198179E+01  0.51100000000E-03 0. -1.
         12    1    3    3    0    0 -0.79634636964E+01  0.19144018523E+02  0.10376155668E+02  0.23185659483E+02  0.00000000000E+00 0. -1.
</event>
<event>
 7    1  0.5329250E-013  0.5052885E+02  0.7816164E-02  0.1300439E+00
        -11   -1    0    0    0    0  0.00000000000E+00  0.00000000000E+00  0.45593999997E+02  0.45594000000E+02  0.51100000000E-03 0.  1.
         11   -1    0    0    0    0 -0.00000000000E+00 -0.00000000000E+00 -0.45593999997E+02  0.45594000000E+02  0.51100000000E-03 0. -1.
    9900012    2    1    2    0    0 -0.14246282517E+02  0.36343737411E+02  0.11372894914E+02  0.50528849083E+02  0.29999967274E+02 0.  0.
         12    1    1    2    0    0  0.14246282517E+02 -0.36343737411E+02 -0.11372894914E+02  0.40659150917E+02  0.00000000000E+00 0. -1.
         11    1    3    3    0    0 -0.98954854943E+01  0.23689792250E+02  0.88496304024E+01  0.27155898964E+02  0.51100000000E-03 0. -1.
        -11    1    3    3    0    0  0.96620294681E+00  0.34618347467E+01  0.98409050498E+01  0.10476700836E+02  0.51100000000E-03 0.  1.
         12    1    3    3    0    0 -0.53169999694E+01  0.91921104136E+01 -0.73176405380E+01  0.12896249283E+02  0.00000000000E+00 0. -1.
</event>
<event>
 7    1  0.5329250E-013  0.5052885E+02  0.7816164E-02  0.1300439E+00
        -11   -1    0    0    0    0  0.00000000000E+00  0.00000000000E+00  0.45593999997E+02  0.45594000000E+02  0.51100000000E-03 0. -1.
         11   -1    0    0    0    0 -0.00000000000E+00 -0.00000000000E+00 -0.45593999997E+02  0.45594000000E+02  0.51100000000E-03 0.  1.
    9900012    2    1    2    0    0  0.19528358621E+02 -0.88916126639E+00 -0.35651353140E+02  0.50528851227E+02  0.29999973791E+02 0.  0.
         12    1    1    2    0    0 -0.19528358621E+02  0.88916126639E+00  0.35651353140E+02  0.40659148773E+02  0.00000000000E+00 0. -1.
         11    1    3    3    0    0  0.71866183571E+01  0.61540463574E+01 -0.26240082323E+02  0.27893757197E+02  0.51100000000E-03 0. -1.
        -11    1    3    3    0    0  0.79951517300E+01 -0.36757674131E+01 -0.13266634933E+02  0.15919714821E+02  0.51100000000E-03 0.  1.
         12    1    3    3    0    0  0.43465885342E+01 -0.33674402107E+01  0.38553641165E+01  0.67153792097E+01  0.00000000000E+00 0. -1.
</event>
<event>
 7    1  0.5329250E-013  0.5052886E+02  0.7816164E-02  0.1300439E+00
        -11   -1    0    0    0    0  0.00000000000E+00  0.00000000000E+00  0.45593999997E+02  0.45594000000E+02  0.51100000000E-03 0.  1.
         11   -1    0    0    0    0 -0.00000000000E+00 -0.00000000000E+00 -0.45593999997E+02  0.45594000000E+02  0.51100000000E-03 0. -1.
    9900012    2    1    2    0    0 -0.74990366623E+01  0.36616979270E+02  0.16003974490E+02  0.50528856856E+02  0.29999990900E+02 0.  0.
         12    1    1    2    0    0  0.74990366623E+01 -0.36616979270E+02 -0.16003974490E+02  0.40659143144E+02  0.00000000000E+00 0. -1.
         11    1    3    3    0    0 -0.47804767438E+01  0.36295934864E+01 -0.52282019217E+01  0.79599624603E+01  0.51100000000E-03 0.  1.
        -11    1    3    3    0    0  0.50220355293E+00  0.33399762465E+00  0.66251912633E+01  0.66525876438E+01  0.51100000000E-03 0. -1.
        -12    1    3    3    0    0 -0.32207634714E+01  0.32653388159E+02  0.14606985148E+02  0.35916306752E+02  0.00000000000E+00 0.  1.
</event>
<event>
 7    1  0.5329250E-013  0.5052886E+02  0.7816164E-02  0.1300439E+00
        -11   -1    0    0    0    0  0.00000000000E+00  0.00000000000E+00  0.45593999997E+02  0.45594000000E+02  0.51100000000E-03 0.  1.
         11   -1    0    0    0    0 -0.00000000000E+00 -0.00000000000E+00 -0.45593999997E+02  0.45594000000E+02  0.51100000000E-03 0. -1.
    9900012    2    1    2    0    0  0.38606688282E+02 -0.12636622535E+02 -0.17334579079E+01  0.50528862214E+02  0.30000007186E+02 0.  0.
         12    1    1    2    0    0 -0.38606688282E+02  0.12636622535E+02  0.17334579079E+01  0.40659137786E+02  0.00000000000E+00 0. -1.
         11    1    3    3    0    0  0.20144151075E+02 -0.79134071496E+01 -0.21544646265E+00  0.21643827127E+02  0.51100000000E-03 0. -1.
        -11    1    3    3    0    0  0.21501723965E+02 -0.43373344622E+01  0.42603857894E+01  0.22344741910E+02  0.51100000000E-03 0.  1.
         12    1    3    3    0    0 -0.30391867583E+01 -0.38588092369E+00 -0.57783972347E+01  0.65402931770E+01  0.00000000000E+00 0. -1.
</event>
<event>
 7    1  0.5329250E-013  0.5052886E+02  0.7816164E-02  0.1300439E+00
        -11   -1    0    0    0    0  0.00000000000E+00  0.00000000000E+00  0.45593999997E+02  0.45594000000E+02  0.51100000000E-03 0.  1.
         11   -1    0    0    0    0 -0.00000000000E+00 -0.00000000000E+00 -0.45593999997E+02  0.45594000000E+02  0.51100000000E-03 0. -1.
    9900012    2    1    2    0    0  0.15672492693E+02 -0.15095768180E+02  0.34346124097E+02  0.50528862224E+02  0.30000007217E+02 0.  0.
         12    1    1    2    0    0 -0.15672492693E+02  0.15095768180E+02 -0.34346124097E+02  0.40659137776E+02  0.00000000000E+00 0. -1.
         11    1    3    3    0    0 -0.17564405694E+01  0.57865654220E+01  0.10268024792E+02  0.11916448978E+02  0.51100000000E-03 0. -1.
        -11    1    3    3    0    0  0.59320877152E-01 -0.80223391732E+01  0.99962413649E+01  0.12817421210E+02  0.51100000000E-03 0.  1.
         12    1    3    3    0    0  0.17369612385E+02 -0.12859994429E+02  0.14081857940E+02  0.25794992036E+02  0.00000000000E+00 0. -1.
</event>
<event>
 7    1  0.5723674E-013  0.5052886E+02  0.7816164E-02  0.1300439E+00
        -11   -1    0    0    0    0  0.00000000000E+00  0.00000000000E+00  0.45593999997E+02  0.45594000000E+02  0.51100000000E-03 0.  1.
         11   -1    0    0    0    0 -0.00000000000E+00 -0.00000000000E+00 -0.45593999997E+02  0.45594000000E+02  0.51100000000E-03 0. -1.
    9900012    2    1    2    0    0 -0.39090286007E+02 -0.42125147580E+01  0.10361941780E+02  0.50528861075E+02  0.30000003723E+02 0.  0.
         12    1    1    2    0    0  0.39090286007E+02  0.42125147580E+01 -0.10361941780E+02  0.40659138925E+02  0.00000000000E+00 0. -1.
         11    1    3    3    0    0 -0.21201701721E+01  0.18732935621E+01 -0.61282389174E+01  0.67497898351E+01  0.51100000000E-03 0. -1.
        -11    1    3    3    0    0 -0.15639040919E+02  0.14049606794E+01 -0.15763740248E+00  0.15702813926E+02  0.51100000000E-03 0.  1.
        -12    1    3    3    0    0 -0.21331074915E+02 -0.74907689994E+01  0.16647818100E+02  0.28076257313E+02  0.00000000000E+00 0.  1.
</event>
<event>
 7    1  0.5329250E-013  0.5052886E+02  0.7816164E-02  0.1300439E+00
        -11   -1    0    0    0    0  0.00000000000E+00  0.00000000000E+00  0.45593999997E+02  0.45594000000E+02  0.51100000000E-03 0. -1.
         11   -1    0    0    0    0 -0.00000000000E+00 -0.00000000000E+00 -0.45593999997E+02  0.45594000000E+02  0.51100000000E-03 0.  1.
    9900012    2    1    2    0    0  0.17762207786E+02  0.13760919686E+02 -0.33886676236E+02  0.50528858809E+02  0.29999996836E+02 0.  0.
         12    1    1    2    0    0 -0.17762207786E+02 -0.13760919686E+02  0.33886676236E+02  0.40659141191E+02  0.00000000000E+00 0. -1.
         11    1    3    3    0    0  0.43913840681E+01  0.10536482334E+02 -0.18168786233E+02  0.21457085251E+02  0.51100000000E-03 0. -1.
        -11    1    3    3    0    0 -0.14983276301E+01  0.85323460452E+01 -0.58608581572E+01  0.10459233878E+02  0.51100000000E-03 0.  1.
         12    1    3    3    0    0  0.14869151349E+02 -0.53079086930E+01 -0.98570318458E+01  0.18612539680E+02  0.00000000000E+00 0. -1.
</event>
<event>
 7    1  0.5329250E-013  0.5052887E+02  0.7816164E-02  0.1300439E+00
        -11   -1    0    0    0    0  0.00000000000E+00  0.00000000000E+00  0.45593999997E+02  0.45594000000E+02  0.51100000000E-03 0.  1.
         11   -1    0    0    0    0 -0.00000000000E+00 -0.00000000000E+00 -0.45593999997E+02  0.45594000000E+02  0.51100000000E-03 0. -1.
    9900012    2    1    2    0    0  0.19607559688E+02  0.10455827135E+02  0.34049732283E+02  0.50528868350E+02  0.30000025836E+02 0.  0.
         12    1    1    2    0    0 -0.19607559688E+02 -0.10455827135E+02 -0.34049732283E+02  0.40659131650E+02  0.00000000000E+00 0. -1.
         11    1    3    3    0    0  0.24432009460E+01  0.19297150350E+01 -0.24811297609E+01  0.39810847932E+01  0.51100000000E-03 0. -1.
        -11    1    3    3    0    0 -0.43616750284E+01 -0.19060670135E+01  0.80734727529E+01  0.93722069475E+01  0.51100000000E-03 0.  1.
        -12    1    3    3    0    0  0.21526033771E+02  0.10432179113E+02  0.28457389291E+02  0.37175576609E+02  0.00000000000E+00 0.  1.
</event>
<event>
 7    1  0.5329250E-013  0.5052886E+02  0.7816164E-02  0.1300439E+00
        -11   -1    0    0    0    0  0.00000000000E+00  0.00000000000E+00  0.45593999997E+02  0.45594000000E+02  0.51100000000E-03 0.  1.
         11   -1    0    0    0    0 -0.00000000000E+00 -0.00000000000E+00 -0.45593999997E+02  0.45594000000E+02  0.51100000000E-03 0. -1.
    9900012    2    1    2    0    0  0.24465370910E+02 -0.70963006487E+01  0.31689963057E+02  0.50528860619E+02  0.30000002338E+02 0.  0.
         12    1    1    2    0    0 -0.24465370910E+02  0.70963006487E+01 -0.31689963057E+02  0.40659139381E+02  0.00000000000E+00 0. -1.
         11    1    3    3    0    0  0.19880825800E+01  0.29902422595E+01 -0.38767374807E+01  0.52842326662E+01  0.51100000000E-03 0. -1.
        -11    1    3    3    0    0  0.74702366724E+01 -0.10262215219E+02  0.13231806094E+02  0.18335708056E+02  0.51100000000E-03 0.  1.
        -12    1    3    3    0    0  0.15007051658E+02  0.17567231090E+00  0.22334894443E+02  0.26908919897E+02  0.00000000000E+00 0.  1.
</event>
<event>
 7    1  0.5329250E-013  0.5052888E+02  0.7816164E-02  0.1300439E+00
        -11   -1    0    0    0    0  0.00000000000E+00  0.00000000000E+00  0.45593999997E+02  0.45594000000E+02  0.51100000000E-03 0.  1.
         11   -1    0    0    0    0 -0.00000000000E+00 -0.00000000000E+00 -0.45593999997E+02  0.45594000000E+02  0.51100000000E-03 0. -1.
    9900012    2    1    2    0    0  0.19816009989E+02  0.13219388279E+02  0.32950537975E+02  0.50528875179E+02  0.30000046594E+02 0.  0.
         12    1    1    2    0    0 -0.19816009989E+02 -0.13219388279E+02 -0.32950537975E+02  0.40659124821E+02  0.00000000000E+00 0. -1.
         11    1    3    3    0    0 -0.97063274447E+00 -0.16404305388E+01  0.15942852192E+02  0.16056390520E+02  0.51100000000E-03 0.  1.
        -11    1    3    3    0    0  0.32479786241E+01  0.11630675071E+02  0.80763452414E+01  0.14527536628E+02  0.51100000000E-03 0. -1.
         12    1    3    3    0    0  0.17538664109E+02  0.32291437465E+01  0.89313405423E+01  0.19944948031E+02  0.00000000000E+00 0. -1.
</event>
<event>
 7    1  0.5329250E-013  0.5052886E+02  0.7816164E-02  0.1300439E+00
        -11   -1    0    0    0    0  0.00000000000E+00  0.00000000000E+00  0.45593999997E+02  0.45594000000E+02  0.51100000000E-03 0. -1.
         11   -1    0    0    0    0 -0.00000000000E+00 -0.00000000000E+00 -0.45593999997E+02  0.45594000000E+02  0.51100000000E-03 0.  1.
    9900012    2    1    2    0    0  0.10866609537E+02  0.14680717641E+02 -0.36325735231E+02  0.50528859412E+02  0.29999998670E+02 0.  0.
         12    1    1    2    0    0 -0.10866609537E+02 -0.14680717641E+02  0.36325735231E+02  0.40659140588E+02  0.00000000000E+00 0. -1.
         11    1    3    3    0    0  0.37172948937E+01  0.56331835654E+00  0.10536662598E+01  0.39045898306E+01  0.51100000000E-03 0. -1.
        -11    1    3    3    0    0  0.43115963756E+01  0.19643069608E+02 -0.20859641300E+02  0.28975242576E+02  0.51100000000E-03 0.  1.
        -12    1    3    3    0    0  0.28377182680E+01 -0.55256703236E+01 -0.16519760190E+02  0.17649027006E+02  0.00000000000E+00 0.  1.
</event>
<event>
 7    1  0.5329250E-013  0.5052886E+02  0.7816164E-02  0.1300439E+00
        -11   -1    0    0    0    0  0.00000000000E+00  0.00000000000E+00  0.45593999997E+02  0.45594000000E+02  0.51100000000E-03 0. -1.
         11   -1    0    0    0    0 -0.00000000000E+00 -0.00000000000E+00 -0.45593999997E+02  0.45594000000E+02  0.51100000000E-03 0.  1.
    9900012    2    1    2    0    0  0.26294118105E+02 -0.25905311042E+02  0.17049922843E+02  0.50528860117E+02  0.30000000812E+02 0.  0.
         12    1    1    2    0    0 -0.26294118105E+02  0.25905311042E+02 -0.17049922843E+02  0.40659139883E+02  0.00000000000E+00 0. -1.
         11    1    3    3    0    0 -0.12631518107E+00  0.32248403632E+01 -0.11943843854E+00  0.32295226729E+01  0.51100000000E-03 0. -1.
        -11    1    3    3    0    0  0.22423109978E+02 -0.10197977508E+02  0.81090605649E+01  0.25933597318E+02  0.51100000000E-03 0.  1.
         12    1    3    3    0    0  0.39973233078E+01 -0.18932173896E+02  0.90603007167E+01  0.21365740126E+02  0.00000000000E+00 0. -1.
</event>
<event>
 7    1  0.5329250E-013  0.5052887E+02  0.7816164E-02  0.1300439E+00
        -11   -1    0    0    0    0  0.00000000000E+00  0.00000000000E+00  0.45593999997E+02  0.45594000000E+02  0.51100000000E-03 0.  1.
         11   -1    0    0    0    0 -0.00000000000E+00 -0.00000000000E+00 -0.45593999997E+02  0.45594000000E+02  0.51100000000E-03 0. -1.
    9900012    2    1    2    0    0 -0.12297799643E+01 -0.52383050551E+01  0.40301521339E+02  0.50528870388E+02  0.30000032031E+02 0.  0.
         12    1    1    2    0    0  0.12297799643E+01  0.52383050551E+01 -0.40301521339E+02  0.40659129612E+02  0.00000000000E+00 0. -1.
         11    1    3    3    0    0  0.64164294238E+01  0.16514682732E+01  0.13751438553E+02  0.15264336754E+02  0.51100000000E-03 0. -1.
        -11    1    3    3    0    0 -0.11190508898E+02  0.29730312180E+01  0.83957854152E+01  0.14302294117E+02  0.51100000000E-03 0.  1.
         12    1    3    3    0    0  0.35442995099E+01 -0.98628045462E+01  0.18154297370E+02  0.20962239516E+02  0.00000000000E+00 0. -1.
</event>
<event>
 7    1  0.5329250E-013  0.5052887E+02  0.7816164E-02  0.1300439E+00
        -11   -1    0    0    0    0  0.00000000000E+00  0.00000000000E+00  0.45593999997E+02  0.45594000000E+02  0.51100000000E-03 0. -1.
         11   -1    0    0    0    0 -0.00000000000E+00 -0.00000000000E+00 -0.45593999997E+02  0.45594000000E+02  0.51100000000E-03 0.  1.
    9900012    2    1    2    0    0 -0.23486674210E+02 -0.32993199891E+02  0.36041801997E+01  0.50528865486E+02  0.30000017132E+02 0.  0.
         12    1    1    2    0    0  0.23486674210E+02  0.32993199891E+02 -0.36041801997E+01  0.40659134514E+02  0.00000000000E+00 0. -1.
         11    1    3    3    0    0 -0.16715705079E+02 -0.26182338159E+02  0.23928072040E+01  0.31155339099E+02  0.51100000000E-03 0. -1.
        -11    1    3    3    0    0 -0.94479504630E+01 -0.68205110319E+01 -0.49464294322E+01  0.12659000872E+02  0.51100000000E-03 0.  1.
         12    1    3    3    0    0  0.26769813321E+01  0.96493000026E-02  0.61578024278E+01  0.67145255158E+01  0.00000000000E+00 0. -1.
</event>
<event>
 7    1  0.5329250E-013  0.5052886E+02  0.7816164E-02  0.1300439E+00
        -11   -1    0    0    0    0  0.00000000000E+00  0.00000000000E+00  0.45593999997E+02  0.45594000000E+02  0.51100000000E-03 0.  1.
         11   -1    0    0    0    0 -0.00000000000E+00 -0.00000000000E+00 -0.45593999997E+02  0.45594000000E+02  0.51100000000E-03 0. -1.
    9900012    2    1    2    0    0 -0.15027392164E+02 -0.19827887702E+02  0.32158948582E+02  0.50528860561E+02  0.30000002161E+02 0.  0.
         12    1    1    2    0    0  0.15027392164E+02  0.19827887702E+02 -0.32158948582E+02  0.40659139439E+02  0.00000000000E+00 0. -1.
         11    1    3    3    0    0 -0.83390392380E+01  0.83804157528E+00  0.10719073677E+02  0.13606631834E+02  0.51100000000E-03 0. -1.
        -11    1    3    3    0    0 -0.41239183228E+01 -0.80081345217E+01  0.22227477746E+02  0.23983279344E+02  0.51100000000E-03 0.  1.
         12    1    3    3    0    0 -0.25644346035E+01 -0.12657794756E+02 -0.78760284144E+00  0.12938949384E+02  0.00000000000E+00 0. -1.
</event>
<event>
 7    1  0.5329250E-013  0.5052889E+02  0.7816164E-02  0.1300439E+00
        -11   -1    0    0    0    0  0.00000000000E+00  0.00000000000E+00  0.45593999997E+02  0.45594000000E+02  0.51100000000E-03 0. -1.
         11   -1    0    0    0    0 -0.00000000000E+00 -0.00000000000E+00 -0.45593999997E+02  0.45594000000E+02  0.51100000000E-03 0.  1.
    9900012    2    1    2    0    0 -0.38435090812E+02  0.13073389593E+02 -0.22347040717E+01  0.50528885112E+02  0.30000076788E+02 0.  0.
         12    1    1    2    0    0  0.38435090812E+02 -0.13073389593E+02  0.22347040717E+01  0.40659114888E+02  0.00000000000E+00 0. -1.
         11    1    3    3    0    0 -0.13984269103E+01  0.61175028025E+01 -0.18580443722E+01  0.65445983461E+01  0.51100000000E-03 0. -1.
        -11    1    3    3    0    0 -0.27593923493E+02  0.14836962767E+02 -0.27773620678E+01  0.31452723542E+02  0.51100000000E-03 0.  1.
         12    1    3    3    0    0 -0.94427404086E+01 -0.78810759773E+01  0.24007023682E+01  0.12531563224E+02  0.00000000000E+00 0. -1.
</event>
<event>
 7    1  0.5329250E-013  0.5052886E+02  0.7816164E-02  0.1300439E+00
        -11   -1    0    0    0    0  0.00000000000E+00  0.00000000000E+00  0.45593999997E+02  0.45594000000E+02  0.51100000000E-03 0. -1.
         11   -1    0    0    0    0 -0.00000000000E+00 -0.00000000000E+00 -0.45593999997E+02  0.45594000000E+02  0.51100000000E-03 0.  1.
    9900012    2    1    2    0    0  0.48195677747E+01 -0.59594228784E+01 -0.39930223649E+02  0.50528859389E+02  0.29999998598E+02 0.  0.
         12    1    1    2    0    0 -0.48195677747E+01  0.59594228784E+01  0.39930223649E+02  0.40659140611E+02  0.00000000000E+00 0. -1.
         11    1    3    3    0    0 -0.53825039251E+01  0.41131919541E+01 -0.10393881549E+02  0.12406549499E+02  0.51100000000E-03 0. -1.
        -11    1    3    3    0    0 -0.44726181550E+01 -0.75926556415E+01 -0.77342909704E+01  0.11724844985E+02  0.51100000000E-03 0.  1.
         12    1    3    3    0    0  0.14674689855E+02 -0.24799591910E+01 -0.21802051130E+02  0.26397464905E+02  0.00000000000E+00 0. -1.
</event>
<event>
 7    1  0.5329250E-013  0.5052885E+02  0.7816164E-02  0.1300439E+00
        -11   -1    0    0    0    0  0.00000000000E+00  0.00000000000E+00  0.45593999997E+02  0.45594000000E+02  0.51100000000E-03 0.  1.
         11   -1    0    0    0    0 -0.00000000000E+00 -0.00000000000E+00 -0.45593999997E+02  0.45594000000E+02  0.51100000000E-03 0. -1.
    9900012    2    1    2    0    0 -0.26175357864E+02  0.92970069375E+01  0.29691464441E+02  0.50528846567E+02  0.29999959624E+02 0.  0.
         12    1    1    2    0    0  0.26175357864E+02 -0.92970069375E+01 -0.29691464441E+02  0.40659153433E+02  0.00000000000E+00 0. -1.
         11    1    3    3    0    0 -0.53869656866E+01  0.93404212801E+01  0.21198043505E+02  0.23782765140E+02  0.51100000000E-03 0. -1.
        -11    1    3    3    0    0  0.53157536480E+00 -0.29425071233E+01  0.36011421742E+01  0.46807206453E+01  0.51100000000E-03 0.  1.
         12    1    3    3    0    0 -0.21319967542E+02  0.28990927807E+01  0.48922787616E+01  0.22065360782E+02  0.00000000000E+00 0. -1.
</event>
<event>
 7    1  0.5329250E-013  0.5052886E+02  0.7816164E-02  0.1300439E+00
        -11   -1    0    0    0    0  0.00000000000E+00  0.00000000000E+00  0.45593999997E+02  0.45594000000E+02  0.51100000000E-03 0.  1.
         11   -1    0    0    0    0 -0.00000000000E+00 -0.00000000000E+00 -0.45593999997E+02  0.45594000000E+02  0.51100000000E-03 0. -1.
    9900012    2    1    2    0    0 -0.25592800338E+02 -0.89010894799E+00  0.31581356336E+02  0.50528858456E+02  0.29999995762E+02 0.  0.
         12    1    1    2    0    0  0.25592800338E+02  0.89010894799E+00 -0.31581356336E+02  0.40659141544E+02  0.00000000000E+00 0. -1.
         11    1    3    3    0    0 -0.20612979795E+02 -0.98327081183E+01  0.25638632591E+02  0.34335354467E+02  0.51100000000E-03 0. -1.
        -11    1    3    3    0    0 -0.14202722414E+01  0.11166485135E+01  0.72727536506E+01  0.74937989742E+01  0.51100000000E-03 0.  1.
         12    1    3    3    0    0 -0.35595483021E+01  0.78259506567E+01 -0.13300299055E+01  0.86997050149E+01  0.00000000000E+00 0. -1.
</event>
<event>
 7    1  0.5329250E-013  0.5052875E+02  0.7816164E-02  0.1300439E+00
        -11   -1    0    0    0    0  0.00000000000E+00  0.00000000000E+00  0.45593999997E+02  0.45594000000E+02  0.51100000000E-03 0. -1.
         11   -1    0    0    0    0 -0.00000000000E+00 -0.00000000000E+00 -0.45593999997E+02  0.45594000000E+02  0.51100000000E-03 0.  1.
    9900012    2    1    2    0    0 -0.27840277980E+02  0.22106665987E+02 -0.19732941213E+02  0.50528748556E+02  0.29999661710E+02 0.  0.
         12    1    1    2    0    0  0.27840277980E+02 -0.22106665987E+02  0.19732941213E+02  0.40659251444E+02  0.00000000000E+00 0. -1.
         11    1    3    3    0    0 -0.23506415952E+02  0.22125111500E+02 -0.14251302895E+02  0.35286991715E+02  0.51100000000E-03 0. -1.
        -11    1    3    3    0    0 -0.75601343986E+01  0.43268564826E+01 -0.24985731704E+01  0.90620189414E+01  0.51100000000E-03 0.  1.
         12    1    3    3    0    0  0.32262723709E+01 -0.43453019953E+01 -0.29830651474E+01  0.61797379002E+01  0.00000000000E+00 0. -1.
</event>
<event>
 7    1  0.5329250E-013  0.5052885E+02  0.7816164E-02  0.1300439E+00
        -11   -1    0    0    0    0  0.00000000000E+00  0.00000000000E+00  0.45593999997E+02  0.45594000000E+02  0.51100000000E-03 0. -1.
         11   -1    0    0    0    0 -0.00000000000E+00 -0.00000000000E+00 -0.45593999997E+02  0.45594000000E+02  0.51100000000E-03 0.  1.
    9900012    2    1    2    0    0 -0.27315585023E+02 -0.28800080788E+02 -0.88079850418E+01  0.50528850488E+02  0.29999971545E+02 0.  0.
         12    1    1    2    0    0  0.27315585023E+02  0.28800080788E+02  0.88079850418E+01  0.40659149512E+02  0.00000000000E+00 0. -1.
         11    1    3    3    0    0 -0.11628361354E+02 -0.10570465393E+02  0.54588060452E+01  0.16635867579E+02  0.51100000000E-03 0. -1.
        -11    1    3    3    0    0 -0.15524549630E+02 -0.20767603719E+02 -0.80081250199E+01  0.27137337232E+02  0.51100000000E-03 0.  1.
        -12    1    3    3    0    0 -0.16267403820E+00  0.25379883243E+01 -0.62586660671E+01  0.67556456773E+01  0.00000000000E+00 0.  1.
</event>
<event>
 7    1  0.5329250E-013  0.5052885E+02  0.7816164E-02  0.1300439E+00
        -11   -1    0    0    0    0  0.00000000000E+00  0.00000000000E+00  0.45593999997E+02  0.45594000000E+02  0.51100000000E-03 0. -1.
         11   -1    0    0    0    0 -0.00000000000E+00 -0.00000000000E+00 -0.45593999997E+02  0.45594000000E+02  0.51100000000E-03 0.  1.
    9900012    2    1    2    0    0  0.66649161505E+01 -0.35536602006E+02 -0.18598250035E+02  0.50528854734E+02  0.29999984449E+02 0.  0.
         12    1    1    2    0    0 -0.66649161505E+01  0.35536602006E+02  0.18598250035E+02  0.40659145266E+02  0.00000000000E+00 0. -1.
         11    1    3    3    0    0  0.52080716142E+01 -0.10513335275E+01  0.29479792675E+01  0.60761743020E+01  0.51100000000E-03 0. -1.
        -11    1    3    3    0    0  0.92740936028E+01 -0.22140083098E+02 -0.10839970208E+02  0.26338129131E+02  0.51100000000E-03 0.  1.
         12    1    3    3    0    0 -0.78172490665E+01 -0.12345185380E+02 -0.10706259095E+02  0.18114551301E+02  0.00000000000E+00 0. -1.
</event>
<event>
 7    1  0.5329250E-013  0.5052887E+02  0.7816164E-02  0.1300439E+00
        -11   -1    0    0    0    0  0.00000000000E+00  0.00000000000E+00  0.45593999997E+02  0.45594000000E+02  0.51100000000E-03 0.  1.
         11   -1    0    0    0    0 -0.00000000000E+00 -0.00000000000E+00 -0.45593999997E+02  0.45594000000E+02  0.51100000000E-03 0. -1.
    9900012    2    1    2    0    0 -0.34864703285E+02  0.11940995857E+02  0.17176440830E+02  0.50528867732E+02  0.30000023959E+02 0.  0.
         12    1    1    2    0    0  0.34864703285E+02 -0.11940995857E+02 -0.17176440830E+02  0.40659132268E+02  0.00000000000E+00 0. -1.
         11    1    3    3    0    0 -0.90692121390E+00  0.68685118567E+01  0.67205736204E+01  0.96522055129E+01  0.51100000000E-03 0. -1.
        -11    1    3    3    0    0 -0.17040018794E+02 -0.62454921659E+01  0.95360891682E+01  0.20501351414E+02  0.51100000000E-03 0.  1.
         12    1    3    3    0    0 -0.16917763277E+02  0.11317976166E+02  0.91977804102E+00  0.20375310806E+02  0.00000000000E+00 0. -1.
</event>
<event>
 7    1  0.5329250E-013  0.5052885E+02  0.7816164E-02  0.1300439E+00
        -11   -1    0    0    0    0  0.00000000000E+00  0.00000000000E+00  0.45593999997E+02  0.45594000000E+02  0.51100000000E-03 0.  1.
         11   -1    0    0    0    0 -0.00000000000E+00 -0.00000000000E+00 -0.45593999997E+02  0.45594000000E+02  0.51100000000E-03 0. -1.
    9900012    2    1    2    0    0  0.30985030789E+02  0.24270533492E+02  0.10199772811E+02  0.50528852267E+02  0.29999976949E+02 0.  0.
         12    1    1    2    0    0 -0.30985030789E+02 -0.24270533492E+02 -0.10199772811E+02  0.40659147733E+02  0.00000000000E+00 0. -1.
         11    1    3    3    0    0 -0.13185834373E+01  0.52801624830E+01 -0.63468433143E+01  0.83606936581E+01  0.51100000000E-03 0. -1.
        -11    1    3    3    0    0  0.74101174757E+01  0.77447528626E+01  0.10682544705E+01  0.10771824626E+02  0.51100000000E-03 0.  1.
         12    1    3    3    0    0  0.24893496751E+02  0.11245618147E+02  0.15478361655E+02  0.31396333982E+02  0.00000000000E+00 0. -1.
</event>
<event>
 7    1  0.5329250E-013  0.5052886E+02  0.7816164E-02  0.1300439E+00
        -11   -1    0    0    0    0  0.00000000000E+00  0.00000000000E+00  0.45593999997E+02  0.45594000000E+02  0.51100000000E-03 0.  1.
         11   -1    0    0    0    0 -0.00000000000E+00 -0.00000000000E+00 -0.45593999997E+02  0.45594000000E+02  0.51100000000E-03 0. -1.
    9900012    2    1    2    0    0  0.12592598670E+02  0.33884459895E+02  0.18612775055E+02  0.50528861311E+02  0.30000004442E+02 0.  0.
         12    1    1    2    0    0 -0.12592598670E+02 -0.33884459895E+02 -0.18612775055E+02  0.40659138689E+02  0.00000000000E+00 0. -1.
         11    1    3    3    0    0  0.12142886956E+02  0.15775689216E+01  0.30680113189E+01  0.12623435390E+02  0.51100000000E-03 0. -1.
        -11    1    3    3    0    0 -0.36620884836E+01  0.60357744403E+01 -0.86564527769E-01  0.70603795106E+01  0.51100000000E-03 0.  1.
        -12    1    3    3    0    0  0.41118001973E+01  0.26271116533E+02  0.15631328264E+02  0.30845046410E+02  0.00000000000E+00 0.  1.
</event>
<event>
 7    1  0.5901857E-013  0.5052886E+02  0.7816164E-02  0.1300439E+00
        -11   -1    0    0    0    0  0.00000000000E+00  0.00000000000E+00  0.45593999997E+02  0.45594000000E+02  0.51100000000E-03 0. -1.
         11   -1    0    0    0    0 -0.00000000000E+00 -0.00000000000E+00 -0.45593999997E+02  0.45594000000E+02  0.51100000000E-03 0.  1.
    9900012    2    1    2    0    0 -0.26023434717E+02 -0.15100713640E+01 -0.31203626302E+02  0.50528858784E+02  0.29999996760E+02 0.  0.
         12    1    1    2    0    0  0.26023434717E+02  0.15100713640E+01  0.31203626302E+02  0.40659141216E+02  0.00000000000E+00 0. -1.
         11    1    3    3    0    0 -0.12808163901E+02  0.11208517559E+02 -0.13616398996E+02  0.21796473345E+02  0.51100000000E-03 0. -1.
        -11    1    3    3    0    0 -0.68440796528E+00 -0.34844414608E+00 -0.91944066237E+01  0.92264262317E+01  0.51100000000E-03 0.  1.
         12    1    3    3    0    0 -0.12530862851E+02 -0.12370144777E+02 -0.83928206822E+01  0.19505959207E+02  0.00000000000E+00 0. -1.
</event>
<event>
 7    1  0.5329250E-013  0.5052889E+02  0.7816164E-02  0.1300439E+00
        -11   -1    0    0    0    0  0.00000000000E+00  0.00000000000E+00  0.45593999997E+02  0.45594000000E+02  0.51100000000E-03 0.  1.
         11   -1    0    0    0    0 -0.00000000000E+00 -0.00000000000E+00 -0.45593999997E+02  0.45594000000E+02  0.51100000000E-03 0. -1.
    9900012    2    1    2    0    0  0.15915815479E+02 -0.30277137337E+02  0.21980552378E+02  0.50528893879E+02  0.30000103434E+02 0.  0.
         12    1    1    2    0    0 -0.15915815479E+02  0.30277137337E+02 -0.21980552378E+02  0.40659106121E+02  0.00000000000E+00 0. -1.
         11    1    3    3    0    0  0.12123139035E+02 -0.25289505152E+02  0.14589351023E+02  0.31612952004E+02  0.51100000000E-03 0. -1.
        -11    1    3    3    0    0  0.21418578749E+01 -0.40227991519E+01  0.12583169896E+02  0.13383072632E+02  0.51100000000E-03 0.  1.
        -12    1    3    3    0    0  0.16508185685E+01 -0.96483303358E+00 -0.51919685408E+01  0.55328692428E+01  0.00000000000E+00 0.  1.
</event>
<event>
 7    1  0.5329250E-013  0.5052893E+02  0.7816164E-02  0.1300439E+00
        -11   -1    0    0    0    0  0.00000000000E+00  0.00000000000E+00  0.45593999997E+02  0.45594000000E+02  0.51100000000E-03 0.  1.
         11   -1    0    0    0    0 -0.00000000000E+00 -0.00000000000E+00 -0.45593999997E+02  0.45594000000E+02  0.51100000000E-03 0. -1.
    9900012    2    1    2    0    0  0.40042744189E+02  0.69633884484E+01  0.11178634950E+01  0.50528932627E+02  0.30000221213E+02 0.  0.
         12    1    1    2    0    0 -0.40042744189E+02 -0.69633884484E+01 -0.11178634950E+01  0.40659067373E+02  0.00000000000E+00 0. -1.
         11    1    3    3    0    0  0.14615443226E+02  0.84437726504E+01 -0.32621673376E+01  0.17191573903E+02  0.51100000000E-03 0. -1.
        -11    1    3    3    0    0  0.27411500266E+02 -0.14348113883E+01  0.85244459155E+01  0.28742219973E+02  0.51100000000E-03 0.  1.
         12    1    3    3    0    0 -0.19841993038E+01 -0.45572813734E-01 -0.41444150830E+01  0.45951387508E+01  0.00000000000E+00 0. -1.
</event>
<event>
 7    1  0.5329250E-013  0.5052887E+02  0.7816164E-02  0.1300439E+00
        -11   -1    0    0    0    0  0.00000000000E+00  0.00000000000E+00  0.45593999997E+02  0.45594000000E+02  0.51100000000E-03 0.  1.
         11   -1    0    0    0    0 -0.00000000000E+00 -0.00000000000E+00 -0.45593999997E+02  0.45594000000E+02  0.51100000000E-03 0. -1.
    9900012    2    1    2    0    0  0.75055134663E+01  0.24881493219E+02  0.31268887185E+02  0.50528871345E+02  0.30000034939E+02 0.  0.
         12    1    1    2    0    0 -0.75055134663E+01 -0.24881493219E+02 -0.31268887185E+02  0.40659128655E+02  0.00000000000E+00 0. -1.
         11    1    3    3    0    0  0.35966978908E+01  0.29550036274E+00  0.12678411468E+01  0.38250460934E+01  0.51100000000E-03 0. -1.
        -11    1    3    3    0    0  0.12362622710E+02  0.24142423907E+02  0.24902765959E+02  0.36821716759E+02  0.51100000000E-03 0.  1.
         12    1    3    3    0    0 -0.84538071349E+01  0.44356894904E+00  0.50982800790E+01  0.98821084921E+01  0.00000000000E+00 0. -1.
</event>
<event>
 7    1  0.5329250E-013  0.5052885E+02  0.7816164E-02  0.1300439E+00
        -11   -1    0    0    0    0  0.00000000000E+00  0.00000000000E+00  0.45593999997E+02  0.45594000000E+02  0.51100000000E-03 0.  1.
         11   -1    0    0    0    0 -0.00000000000E+00 -0.00000000000E+00 -0.45593999997E+02  0.45594000000E+02  0.51100000000E-03 0. -1.
    9900012    2    1    2    0    0  0.26061120245E+02  0.16174464113E+02  0.26690280611E+02  0.50528851498E+02  0.29999974614E+02 0.  0.
         12    1    1    2    0    0 -0.26061120245E+02 -0.16174464113E+02 -0.26690280611E+02  0.40659148502E+02  0.00000000000E+00 0. -1.
         11    1    3    3    0    0  0.32121328536E+01  0.12456919113E+01  0.14214841276E+02  0.14626389116E+02  0.51100000000E-03 0. -1.
        -11    1    3    3    0    0  0.12410427214E+02  0.16833829558E+02  0.14021655917E+02  0.25179423269E+02  0.51100000000E-03 0.  1.
         12    1    3    3    0    0  0.10438560177E+02 -0.19050573570E+01 -0.15462165817E+01  0.10723039113E+02  0.00000000000E+00 0. -1.
</event>
<event>
 7    1  0.5329250E-013  0.5052885E+02  0.7816164E-02  0.1300439E+00
        -11   -1    0    0    0    0  0.00000000000E+00  0.00000000000E+00  0.45593999997E+02  0.45594000000E+02  0.51100000000E-03 0.  1.
         11   -1    0    0    0    0 -0.00000000000E+00 -0.00000000000E+00 -0.45593999997E+02  0.45594000000E+02  0.51100000000E-03 0. -1.
    9900012    2    1    2    0    0  0.25467183518E+02  0.14686333621E+02  0.28087377993E+02  0.50528848089E+02  0.29999964251E+02 0.  0.
         12    1    1    2    0    0 -0.25467183518E+02 -0.14686333621E+02 -0.28087377993E+02  0.40659151911E+02  0.00000000000E+00 0. -1.
         11    1    3    3    0    0 -0.81519771704E+00  0.15098621376E+01  0.86571933231E+01  0.88256006871E+01  0.51100000000E-03 0. -1.
        -11    1    3    3    0    0  0.14388022982E+02  0.18094829905E+02  0.16770352943E+02  0.28560161286E+02  0.51100000000E-03 0.  1.
        -12    1    3    3    0    0  0.11894358254E+02 -0.49183584210E+01  0.26598317265E+01  0.13143086115E+02  0.00000000000E+00 0.  1.
</event>
<event>
 7    1  0.5836808E-013  0.5052886E+02  0.7816164E-02  0.1300439E+00
        -11   -1    0    0    0    0  0.00000000000E+00  0.00000000000E+00  0.45593999997E+02  0.45594000000E+02  0.51100000000E-03 0.  1.
         11   -1    0    0    0    0 -0.00000000000E+00 -0.00000000000E+00 -0.45593999997E+02  0.45594000000E+02  0.51100000000E-03 0. -1.
    9900012    2    1    2    0    0  0.33289023672E+02  0.38179186750E+01  0.23031067411E+02  0.50528859992E+02  0.30000000432E+02 0.  0.
         12    1    1    2    0    0 -0.33289023672E+02 -0.38179186750E+01 -0.23031067411E+02  0.40659140008E+02  0.00000000000E+00 0. -1.
         11    1    3    3    0    0  0.35634980160E+00  0.43574494627E+01 -0.21097562662E+00  0.43770837297E+01  0.51100000000E-03 0. -1.
        -11    1    3    3    0    0  0.17366106689E+02 -0.21597850522E+01  0.24877327609E+02  0.30415912977E+02  0.51100000000E-03 0.  1.
         12    1    3    3    0    0  0.15566567182E+02  0.16202542645E+01 -0.16352845711E+01  0.15735863286E+02  0.00000000000E+00 0. -1.
</event>
<event>
 7    1  0.5329250E-013  0.5052886E+02  0.7816164E-02  0.1300439E+00
        -11   -1    0    0    0    0  0.00000000000E+00  0.00000000000E+00  0.45593999997E+02  0.45594000000E+02  0.51100000000E-03 0.  1.
         11   -1    0    0    0    0 -0.00000000000E+00 -0.00000000000E+00 -0.45593999997E+02  0.45594000000E+02  0.51100000000E-03 0. -1.
    9900012    2    1    2    0    0  0.17220419383E+02 -0.31889394240E+02  0.18430665211E+02  0.50528859222E+02  0.29999998091E+02 0.  0.
         12    1    1    2    0    0 -0.17220419383E+02  0.31889394240E+02 -0.18430665211E+02  0.40659140778E+02  0.00000000000E+00 0. -1.
         11    1    3    3    0    0  0.40153682613E+01  0.13717385758E+01  0.43846033894E+01  0.61016060293E+01  0.51100000000E-03 0.  1.
        -11    1    3    3    0    0  0.19052996125E+02 -0.26186244317E+02  0.77562911024E+01  0.33300091662E+02  0.51100000000E-03 0. -1.
         12    1    3    3    0    0 -0.58479450033E+01 -0.70748884982E+01  0.62897707196E+01  0.11127161531E+02  0.00000000000E+00 0. -1.
</event>
<event>
 7    1  0.5329250E-013  0.5052888E+02  0.7816164E-02  0.1300439E+00
        -11   -1    0    0    0    0  0.00000000000E+00  0.00000000000E+00  0.45593999997E+02  0.45594000000E+02  0.51100000000E-03 0.  1.
         11   -1    0    0    0    0 -0.00000000000E+00 -0.00000000000E+00 -0.45593999997E+02  0.45594000000E+02  0.51100000000E-03 0. -1.
    9900012    2    1    2    0    0 -0.14506129312E+02 -0.95252336767E+01  0.36769638512E+02  0.50528878262E+02  0.30000055965E+02 0.  0.
         12    1    1    2    0    0  0.14506129312E+02  0.95252336767E+01 -0.36769638512E+02  0.40659121738E+02  0.00000000000E+00 0. -1.
         11    1    3    3    0    0 -0.26175044225E+01  0.75463111564E+01  0.68239940511E+01  0.10505476502E+02  0.51100000000E-03 0. -1.
        -11    1    3    3    0    0  0.25839217344E+01 -0.14768825694E+01  0.11455897567E+02  0.11836191236E+02  0.51100000000E-03 0.  1.
         12    1    3    3    0    0 -0.14472546624E+02 -0.15594662264E+02  0.18489746894E+02  0.28187210524E+02  0.00000000000E+00 0. -1.
</event>
<event>
 7    1  0.5329250E-013  0.5052886E+02  0.7816164E-02  0.1300439E+00
        -11   -1    0    0    0    0  0.00000000000E+00  0.00000000000E+00  0.45593999997E+02  0.45594000000E+02  0.51100000000E-03 0.  1.
         11   -1    0    0    0    0 -0.00000000000E+00 -0.00000000000E+00 -0.45593999997E+02  0.45594000000E+02  0.51100000000E-03 0. -1.
    9900012    2    1    2    0    0  0.27884188937E+02  0.15969843942E+02  0.24911877298E+02  0.50528861559E+02  0.30000005195E+02 0.  0.
         12    1    1    2    0    0 -0.27884188937E+02 -0.15969843942E+02 -0.24911877298E+02  0.40659138441E+02  0.00000000000E+00 0. -1.
         11    1    3    3    0    0  0.77362770757E+01  0.17271484315E+02  0.98871388766E+01  0.21352041328E+02  0.51100000000E-03 0. -1.
        -11    1    3    3    0    0 -0.43286914888E+00 -0.30434840402E+01  0.57826563512E+01  0.65489911849E+01  0.51100000000E-03 0.  1.
        -12    1    3    3    0    0  0.20580781010E+02  0.17418436674E+01  0.92420820707E+01  0.22627829046E+02  0.00000000000E+00 0.  1.
</event>
<event>
 7    1  0.5329250E-013  0.5052887E+02  0.7816164E-02  0.1300439E+00
        -11   -1    0    0    0    0  0.00000000000E+00  0.00000000000E+00  0.45593999997E+02  0.45594000000E+02  0.51100000000E-03 0.  1.
         11   -1    0    0    0    0 -0.00000000000E+00 -0.00000000000E+00 -0.45593999997E+02  0.45594000000E+02  0.51100000000E-03 0. -1.
    9900012    2    1    2    0    0  0.32866168375E+02  0.96379953453E+01  0.21910921493E+02  0.50528874842E+02  0.30000045570E+02 0.  0.
         12    1    1    2    0    0 -0.32866168375E+02 -0.96379953453E+01 -0.21910921493E+02  0.40659125158E+02  0.00000000000E+00 0. -1.
         11    1    3    3    0    0  0.14255663657E+02  0.27915128438E+01  0.64111944644E+01  0.15878284069E+02  0.51100000000E-03 0.  1.
        -11    1    3    3    0    0 -0.56189697036E+01 -0.56687859975E+00  0.30659911330E+01  0.64260776345E+01  0.51100000000E-03 0. -1.
         12    1    3    3    0    0  0.24229474422E+02  0.74133611012E+01  0.12433735895E+02  0.28224513138E+02  0.00000000000E+00 0. -1.
</event>
<event>
 7    1  0.5329250E-013  0.5052885E+02  0.7816164E-02  0.1300439E+00
        -11   -1    0    0    0    0  0.00000000000E+00  0.00000000000E+00  0.45593999997E+02  0.45594000000E+02  0.51100000000E-03 0.  1.
         11   -1    0    0    0    0 -0.00000000000E+00 -0.00000000000E+00 -0.45593999997E+02  0.45594000000E+02  0.51100000000E-03 0. -1.
    9900012    2    1    2    0    0  0.19383909622E+02 -0.35663049981E+02 -0.23616367987E+01  0.50528850789E+02  0.29999972458E+02 0.  0.
         12    1    1    2    0    0 -0.19383909622E+02  0.35663049981E+02  0.23616367987E+01  0.40659149211E+02  0.00000000000E+00 0. -1.
         11    1    3    3    0    0  0.56289246979E+01 -0.35496741238E+02 -0.21492050921E+01  0.36004479090E+02  0.51100000000E-03 0.  1.
        -11    1    3    3    0    0  0.22120293140E+01  0.17155177831E+01  0.31610286881E+00  0.28170900296E+01  0.51100000000E-03 0. -1.
        -12    1    3    3    0    0  0.11542955610E+02 -0.18818265264E+01 -0.52853457541E+00  0.11707281669E+02  0.00000000000E+00 0.  1.
</event>
<event>
 7    1  0.5329250E-013  0.5052886E+02  0.7816164E-02  0.1300439E+00
        -11   -1    0    0    0    0  0.00000000000E+00  0.00000000000E+00  0.45593999997E+02  0.45594000000E+02  0.51100000000E-03 0. -1.
         11   -1    0    0    0    0 -0.00000000000E+00 -0.00000000000E+00 -0.45593999997E+02  0.45594000000E+02  0.51100000000E-03 0.  1.
    9900012    2    1    2    0    0 -0.40489424664E+02  0.36874285673E+01  0.41803722851E+00  0.50528863337E+02  0.30000010598E+02 0.  0.
         12    1    1    2    0    0  0.40489424664E+02 -0.36874285673E+01 -0.41803722851E+00  0.40659136663E+02  0.00000000000E+00 0. -1.
         11    1    3    3    0    0 -0.30037456642E+01 -0.44810242093E+01  0.46635710340E+01  0.71309859788E+01  0.51100000000E-03 0. -1.
        -11    1    3    3    0    0 -0.11157088648E+02 -0.59671462467E+01 -0.47378839199E+01  0.13510551644E+02  0.51100000000E-03 0.  1.
         12    1    3    3    0    0 -0.26328590352E+02  0.14135599023E+02  0.49235011438E+00  0.29887325714E+02  0.00000000000E+00 0. -1.
</event>
<event>
 7    1  0.5329250E-013  0.5052886E+02  0.7816164E-02  0.1300439E+00
        -11   -1    0    0    0    0  0.00000000000E+00  0.00000000000E+00  0.45593999997E+02  0.45594000000E+02  0.51100000000E-03 0.  1.
         11   -1    0    0    0    0 -0.00000000000E+00 -0.00000000000E+00 -0.45593999997E+02  0.45594000000E+02  0.51100000000E-03 0. -1.
    9900012    2    1    2    0    0  0.30175388588E+01  0.33769842637E+02  0.22442326605E+02  0.50528857905E+02  0.29999994087E+02 0.  0.
         12    1    1    2    0    0 -0.30175388588E+01 -0.33769842637E+02 -0.22442326605E+02  0.40659142095E+02  0.00000000000E+00 0. -1.
         11    1    3    3    0    0  0.33664002974E+01  0.86624007936E+00  0.89286175607E+01  0.95814004531E+01  0.51100000000E-03 0. -1.
        -11    1    3    3    0    0 -0.82797309331E+00  0.24543500319E+02  0.18902202025E+02  0.30989711018E+02  0.51100000000E-03 0.  1.
        -12    1    3    3    0    0  0.47911165468E+00  0.83601022390E+01 -0.53884929807E+01  0.99577464332E+01  0.00000000000E+00 0.  1.
</event>
<event>
 7    1  0.5329250E-013  0.5052886E+02  0.7816164E-02  0.1300439E+00
        -11   -1    0    0    0    0  0.00000000000E+00  0.00000000000E+00  0.45593999997E+02  0.45594000000E+02  0.51100000000E-03 0. -1.
         11   -1    0    0    0    0 -0.00000000000E+00 -0.00000000000E+00 -0.45593999997E+02  0.45594000000E+02  0.51100000000E-03 0.  1.
    9900012    2    1    2    0    0  0.11215835545E+02  0.24977487205E+02 -0.30058212727E+02  0.50528856055E+02  0.29999988464E+02 0.  0.
         12    1    1    2    0    0 -0.11215835545E+02 -0.24977487205E+02  0.30058212727E+02  0.40659143945E+02  0.00000000000E+00 0. -1.
         11    1    3    3    0    0  0.34243868638E+01  0.19695757189E+02 -0.72538313246E+01  0.21266578140E+02  0.51100000000E-03 0. -1.
        -11    1    3    3    0    0  0.88042694115E+01  0.16362010854E+01 -0.35391395420E+01  0.96290094413E+01  0.51100000000E-03 0.  1.
         12    1    3    3    0    0 -0.10128207302E+01  0.36455289306E+01 -0.19265241860E+02  0.19633268473E+02  0.00000000000E+00 0. -1.
</event>
<event>
 7    1  0.8952469E-013  0.5052886E+02  0.7816164E-02  0.1300439E+00
        -11   -1    0    0    0    0  0.00000000000E+00  0.00000000000E+00  0.45593999997E+02  0.45594000000E+02  0.51100000000E-03 0.  1.
         11   -1    0    0    0    0 -0.00000000000E+00 -0.00000000000E+00 -0.45593999997E+02  0.45594000000E+02  0.51100000000E-03 0. -1.
    9900012    2    1    2    0    0  0.18841900544E+01 -0.39885518288E+02  0.76655688501E+01  0.50528859736E+02  0.29999999653E+02 0.  0.
         12    1    1    2    0    0 -0.18841900544E+01  0.39885518288E+02 -0.76655688501E+01  0.40659140264E+02  0.00000000000E+00 0. -1.
         11    1    3    3    0    0 -0.48889453224E+01 -0.45680535887E+00  0.35863719062E+01  0.60805033683E+01  0.51100000000E-03 0. -1.
        -11    1    3    3    0    0  0.13101061612E+01 -0.11890408431E+02  0.10192226646E+02  0.15715587010E+02  0.51100000000E-03 0.  1.
        -12    1    3    3    0    0  0.54630292156E+01 -0.27538304497E+02 -0.61130297019E+01  0.28732769357E+02  0.00000000000E+00 0.  1.
</event>
<event>
 7    1  0.5329250E-013  0.5052887E+02  0.7816164E-02  0.1300439E+00
        -11   -1    0    0    0    0  0.00000000000E+00  0.00000000000E+00  0.45593999997E+02  0.45594000000E+02  0.51100000000E-03 0.  1.
         11   -1    0    0    0    0 -0.00000000000E+00 -0.00000000000E+00 -0.45593999997E+02  0.45594000000E+02  0.51100000000E-03 0. -1.
    9900012    2    1    2    0    0  0.11957846944E+02 -0.14066259844E+02  0.36225894733E+02  0.50528865494E+02  0.30000017156E+02 0.  0.
         12    1    1    2    0    0 -0.11957846944E+02  0.14066259844E+02 -0.36225894733E+02  0.40659134506E+02  0.00000000000E+00 0. -1.
         11    1    3    3    0    0 -0.55937906727E+01 -0.88130337402E+00  0.24196058039E+01  0.61580583169E+01  0.51100000000E-03 0. -1.
        -11    1    3    3    0    0  0.13504411294E+01 -0.11486654839E+02  0.88275137904E+01  0.14549636786E+02  0.51100000000E-03 0.  1.
         12    1    3    3    0    0  0.16201196488E+02 -0.16983016313E+01  0.24978775139E+02  0.29821170391E+02  0.00000000000E+00 0. -1.
</event>
<event>
 7    1  0.5329250E-013  0.5052886E+02  0.7816164E-02  0.1300439E+00
        -11   -1    0    0    0    0  0.00000000000E+00  0.00000000000E+00  0.45593999997E+02  0.45594000000E+02  0.51100000000E-03 0.  1.
         11   -1    0    0    0    0 -0.00000000000E+00 -0.00000000000E+00 -0.45593999997E+02  0.45594000000E+02  0.51100000000E-03 0. -1.
    9900012    2    1    2    0    0  0.29894493486E+02 -0.14624355122E+01  0.27519925589E+02  0.50528858803E+02  0.29999996818E+02 0.  0.
         12    1    1    2    0    0 -0.29894493486E+02  0.14624355122E+01 -0.27519925589E+02  0.40659141197E+02  0.00000000000E+00 0. -1.
         11    1    3    3    0    0  0.24596626184E+02  0.69600484296E+00  0.13365907196E+02  0.28002248442E+02  0.51100000000E-03 0. -1.
        -11    1    3    3    0    0  0.27730594896E+01 -0.74342618611E+01  0.14645875539E+02  0.16657123969E+02  0.51100000000E-03 0.  1.
        -12    1    3    3    0    0  0.25248078126E+01  0.52758215060E+01 -0.49185714576E+00  0.58694863920E+01  0.00000000000E+00 0.  1.
</event>
<event>
 7    1  0.5329250E-013  0.5052886E+02  0.7816164E-02  0.1300439E+00
        -11   -1    0    0    0    0  0.00000000000E+00  0.00000000000E+00  0.45593999997E+02  0.45594000000E+02  0.51100000000E-03 0.  1.
         11   -1    0    0    0    0 -0.00000000000E+00 -0.00000000000E+00 -0.45593999997E+02  0.45594000000E+02  0.51100000000E-03 0. -1.
    9900012    2    1    2    0    0  0.15956478234E+02  0.37504186465E+01  0.37208749995E+02  0.50528856947E+02  0.29999991175E+02 0.  0.
         12    1    1    2    0    0 -0.15956478234E+02 -0.37504186465E+01 -0.37208749995E+02  0.40659143053E+02  0.00000000000E+00 0. -1.
         11    1    3    3    0    0  0.32248891906E+01 -0.37079826317E+01  0.14845415790E+02  0.15637628201E+02  0.51100000000E-03 0. -1.
        -11    1    3    3    0    0  0.13370975580E+02  0.85754944605E+01  0.26313673714E+02  0.30736485124E+02  0.51100000000E-03 0.  1.
         12    1    3    3    0    0 -0.63938653589E+00 -0.11170931823E+01 -0.39503395098E+01  0.41547436218E+01  0.00000000000E+00 0. -1.
</event>
<event>
 7    1  0.5329250E-013  0.5052886E+02  0.7816164E-02  0.1300439E+00
        -11   -1    0    0    0    0  0.00000000000E+00  0.00000000000E+00  0.45593999997E+02  0.45594000000E+02  0.51100000000E-03 0.  1.
         11   -1    0    0    0    0 -0.00000000000E+00 -0.00000000000E+00 -0.45593999997E+02  0.45594000000E+02  0.51100000000E-03 0. -1.
    9900012    2    1    2    0    0 -0.26718951822E+01 -0.30648361496E+02  0.26583915357E+02  0.50528860290E+02  0.30000001337E+02 0.  0.
         12    1    1    2    0    0  0.26718951822E+01  0.30648361496E+02 -0.26583915357E+02  0.40659139710E+02  0.00000000000E+00 0. -1.
         11    1    3    3    0    0 -0.20964887531E+01  0.28524823468E+00 -0.41192902902E+01  0.46308945576E+01  0.51100000000E-03 0. -1.
        -11    1    3    3    0    0 -0.82058549178E+00 -0.23941635467E+01  0.10825632085E+02  0.11117539743E+02  0.51100000000E-03 0.  1.
        -12    1    3    3    0    0  0.24517906274E+00 -0.28539446184E+02  0.19877573562E+02  0.34780425989E+02  0.00000000000E+00 0.  1.
</event>
<event>
 7    1  0.5329250E-013  0.5052886E+02  0.7816164E-02  0.1300439E+00
        -11   -1    0    0    0    0  0.00000000000E+00  0.00000000000E+00  0.45593999997E+02  0.45594000000E+02  0.51100000000E-03 0. -1.
         11   -1    0    0    0    0 -0.00000000000E+00 -0.00000000000E+00 -0.45593999997E+02  0.45594000000E+02  0.51100000000E-03 0.  1.
    9900012    2    1    2    0    0  0.27544990412E+02 -0.20609354160E+02 -0.21672417351E+02  0.50528860197E+02  0.30000001055E+02 0.  0.
         12    1    1    2    0    0 -0.27544990412E+02  0.20609354160E+02  0.21672417351E+02  0.40659139803E+02  0.00000000000E+00 0. -1.
         11    1    3    3    0    0  0.42217485904E+01 -0.13815973672E+02 -0.27080823393E+01  0.14698231182E+02  0.51100000000E-03 0. -1.
        -11    1    3    3    0    0  0.12796526477E+02 -0.12596460174E+02 -0.14232266862E+02  0.22912427176E+02  0.51100000000E-03 0.  1.
         12    1    3    3    0    0  0.10526715345E+02  0.58030796858E+01 -0.47320681493E+01  0.12918201839E+02  0.00000000000E+00 0. -1.
</event>
<event>
 7    1  0.5329250E-013  0.5052886E+02  0.7816164E-02  0.1300439E+00
        -11   -1    0    0    0    0  0.00000000000E+00  0.00000000000E+00  0.45593999997E+02  0.45594000000E+02  0.51100000000E-03 0.  1.
         11   -1    0    0    0    0 -0.00000000000E+00 -0.00000000000E+00 -0.45593999997E+02  0.45594000000E+02  0.51100000000E-03 0. -1.
    9900012    2    1    2    0    0  0.26852866702E+02  0.20107482674E+02  0.22973429308E+02  0.50528858792E+02  0.29999996784E+02 0.  0.
         12    1    1    2    0    0 -0.26852866702E+02 -0.20107482674E+02 -0.22973429308E+02  0.40659141208E+02  0.00000000000E+00 0. -1.
         11    1    3    3    0    0  0.82286302530E+01  0.12709828650E+02  0.22019612358E+02  0.26722900831E+02  0.51100000000E-03 0. -1.
        -11    1    3    3    0    0  0.11985894735E+01  0.42297857741E+01  0.38690500523E+01  0.58563856592E+01  0.51100000000E-03 0.  1.
         12    1    3    3    0    0  0.17425646976E+02  0.31678682500E+01 -0.29152331027E+01  0.17949572302E+02  0.00000000000E+00 0. -1.
</event>
<event>
 7    1  0.5329250E-013  0.5052888E+02  0.7816164E-02  0.1300439E+00
        -11   -1    0    0    0    0  0.00000000000E+00  0.00000000000E+00  0.45593999997E+02  0.45594000000E+02  0.51100000000E-03 0.  1.
         11   -1    0    0    0    0 -0.00000000000E+00 -0.00000000000E+00 -0.45593999997E+02  0.45594000000E+02  0.51100000000E-03 0. -1.
    9900012    2    1    2    0    0 -0.92996564407E+00 -0.15890388074E+02  0.37413834702E+02  0.50528876837E+02  0.30000051634E+02 0.  0.
         12    1    1    2    0    0  0.92996564407E+00  0.15890388074E+02 -0.37413834702E+02  0.40659123163E+02  0.00000000000E+00 0. -1.
         11    1    3    3    0    0 -0.12356533582E+01  0.67132206558E+00  0.21683898341E+00  0.14228604791E+01  0.51100000000E-03 0. -1.
        -11    1    3    3    0    0  0.10276330276E+02 -0.18939344138E+02  0.28026314410E+02  0.35352171361E+02  0.51100000000E-03 0.  1.
        -12    1    3    3    0    0 -0.99706425615E+01  0.23776339983E+01  0.91706813090E+01  0.13753844997E+02  0.00000000000E+00 0.  1.
</event>
<event>
 7    1  0.5329250E-013  0.5052886E+02  0.7816164E-02  0.1300439E+00
        -11   -1    0    0    0    0  0.00000000000E+00  0.00000000000E+00  0.45593999997E+02  0.45594000000E+02  0.51100000000E-03 0.  1.
         11   -1    0    0    0    0 -0.00000000000E+00 -0.00000000000E+00 -0.45593999997E+02  0.45594000000E+02  0.51100000000E-03 0. -1.
    9900012    2    1    2    0    0 -0.24517782965E+01  0.40471406529E+02 -0.30363754639E+01  0.50528861554E+02  0.30000005180E+02 0.  0.
         12    1    1    2    0    0  0.24517782965E+01 -0.40471406529E+02  0.30363754639E+01  0.40659138446E+02  0.00000000000E+00 0. -1.
         11    1    3    3    0    0  0.26510273159E+01  0.17668867846E+01 -0.22809986005E+01  0.39182635970E+01  0.51100000000E-03 0. -1.
        -11    1    3    3    0    0  0.28084985418E+01  0.37349026255E+02 -0.45543971416E+01  0.37730358597E+02  0.51100000000E-03 0.  1.
        -12    1    3    3    0    0 -0.79113041542E+01  0.13554934889E+01  0.37990202782E+01  0.88802393601E+01  0.00000000000E+00 0.  1.
</event>
<event>
 7    1  0.5329250E-013  0.5052886E+02  0.7816164E-02  0.1300439E+00
        -11   -1    0    0    0    0  0.00000000000E+00  0.00000000000E+00  0.45593999997E+02  0.45594000000E+02  0.51100000000E-03 0.  1.
         11   -1    0    0    0    0 -0.00000000000E+00 -0.00000000000E+00 -0.45593999997E+02  0.45594000000E+02  0.51100000000E-03 0. -1.
    9900012    2    1    2    0    0  0.11953179806E+02 -0.10300715945E+02  0.37472419249E+02  0.50528862517E+02  0.30000008106E+02 0.  0.
         12    1    1    2    0    0 -0.11953179806E+02  0.10300715945E+02 -0.37472419249E+02  0.40659137483E+02  0.00000000000E+00 0. -1.
         11    1    3    3    0    0  0.86153251283E+00  0.41291181935E+01  0.28137764051E+02  0.28452163738E+02  0.51100000000E-03 0. -1.
        -11    1    3    3    0    0  0.80709644168E+00  0.13408205425E-01 -0.12046630862E+01  0.14501027062E+01  0.51100000000E-03 0.  1.
        -12    1    3    3    0    0  0.10284550851E+02 -0.14443242344E+02  0.10539318284E+02  0.20626596072E+02  0.00000000000E+00 0.  1.
</event>
<event>
 7    1  0.5329250E-013  0.5052886E+02  0.7816164E-02  0.1300439E+00
        -11   -1    0    0    0    0  0.00000000000E+00  0.00000000000E+00  0.45593999997E+02  0.45594000000E+02  0.51100000000E-03 0. -1.
         11   -1    0    0    0    0 -0.00000000000E+00 -0.00000000000E+00 -0.45593999997E+02  0.45594000000E+02  0.51100000000E-03 0.  1.
    9900012    2    1    2    0    0  0.40164752624E+02  0.59772610807E+01 -0.20569112622E+01  0.50528857273E+02  0.29999992168E+02 0.  0.
         12    1    1    2    0    0 -0.40164752624E+02 -0.59772610807E+01  0.20569112622E+01  0.40659142727E+02  0.00000000000E+00 0. -1.
         11    1    3    3    0    0  0.26257755539E+02 -0.53244363917E+01  0.60887351812E+01  0.27475298820E+02  0.51100000000E-03 0. -1.
        -11    1    3    3    0    0  0.21703270904E+01 -0.23340017152E+01  0.25586589876E+00  0.31973975832E+01  0.51100000000E-03 0.  1.
        -12    1    3    3    0    0  0.11736669994E+02  0.13635699188E+02 -0.84015123422E+01  0.19856160870E+02  0.00000000000E+00 0.  1.
</event>
<event>
 7    1  0.5329250E-013  0.5052887E+02  0.7816164E-02  0.1300439E+00
        -11   -1    0    0    0    0  0.00000000000E+00  0.00000000000E+00  0.45593999997E+02  0.45594000000E+02  0.51100000000E-03 0. -1.
         11   -1    0    0    0    0 -0.00000000000E+00 -0.00000000000E+00 -0.45593999997E+02  0.45594000000E+02  0.51100000000E-03 0.  1.
    9900012    2    1    2    0    0 -0.81769283960E+01  0.37565709188E+02  0.13233312274E+02  0.50528865497E+02  0.30000017166E+02 0.  0.
         12    1    1    2    0    0  0.81769283960E+01 -0.37565709188E+02 -0.13233312274E+02  0.40659134503E+02  0.00000000000E+00 0. -1.
         11    1    3    3    0    0 -0.14454121371E+02  0.17894913464E+02  0.92177350911E+01  0.24781367858E+02  0.51100000000E-03 0. -1.
        -11    1    3    3    0    0  0.25487129777E+01  0.14742716110E+01 -0.44490571683E+01  0.53351217956E+01  0.51100000000E-03 0.  1.
         12    1    3    3    0    0  0.37284799968E+01  0.18196524113E+02  0.84646343508E+01  0.20412375843E+02  0.00000000000E+00 0. -1.
</event>
<event>
 7    1  0.5653690E-013  0.5052886E+02  0.7816164E-02  0.1300439E+00
        -11   -1    0    0    0    0  0.00000000000E+00  0.00000000000E+00  0.45593999997E+02  0.45594000000E+02  0.51100000000E-03 0.  1.
         11   -1    0    0    0    0 -0.00000000000E+00 -0.00000000000E+00 -0.45593999997E+02  0.45594000000E+02  0.51100000000E-03 0. -1.
    9900012    2    1    2    0    0 -0.38592990894E+02  0.14525296919E+01 -0.12713653260E+02  0.50528858742E+02  0.29999996631E+02 0.  0.
         12    1    1    2    0    0  0.38592990894E+02 -0.14525296919E+01  0.12713653260E+02  0.40659141258E+02  0.00000000000E+00 0. -1.
         11    1    3    3    0    0 -0.88240993211E+01 -0.59414631094E+01 -0.43728938895E+01  0.11501648314E+02  0.51100000000E-03 0. -1.
        -11    1    3    3    0    0 -0.31514331145E+02  0.13996820866E+01 -0.49775079721E+01  0.31935681664E+02  0.51100000000E-03 0.  1.
         12    1    3    3    0    0  0.17454395718E+01  0.59943107146E+01 -0.33632513988E+01  0.70915287642E+01  0.00000000000E+00 0. -1.
</event>
<event>
 7    1  0.5329250E-013  0.5052888E+02  0.7816164E-02  0.1300439E+00
        -11   -1    0    0    0    0  0.00000000000E+00  0.00000000000E+00  0.45593999997E+02  0.45594000000E+02  0.51100000000E-03 0. -1.
         11   -1    0    0    0    0 -0.00000000000E+00 -0.00000000000E+00 -0.45593999997E+02  0.45594000000E+02  0.51100000000E-03 0.  1.
    9900012    2    1    2    0    0  0.31322087806E+02  0.23044077252E+02 -0.11876922459E+02  0.50528880875E+02  0.30000063908E+02 0.  0.
         12    1    1    2    0    0 -0.31322087806E+02 -0.23044077252E+02  0.11876922459E+02  0.40659119125E+02  0.00000000000E+00 0. -1.
         11    1    3    3    0    0  0.31126201929E+02  0.98051944147E+01 -0.59586945496E+01  0.33173608864E+02  0.51100000000E-03 0. -1.
        -11    1    3    3    0    0  0.23183745352E+01  0.95852303140E+01  0.26618037164E+00  0.98652092177E+01  0.51100000000E-03 0.  1.
        -12    1    3    3    0    0 -0.21224886583E+01  0.36536525230E+01 -0.61844082809E+01  0.74900627934E+01  0.00000000000E+00 0.  1.
</event>
<event>
 7    1  0.5329250E-013  0.5052881E+02  0.7816164E-02  0.1300439E+00
        -11   -1    0    0    0    0  0.00000000000E+00  0.00000000000E+00  0.45593999997E+02  0.45594000000E+02  0.51100000000E-03 0.  1.
         11   -1    0    0    0    0 -0.00000000000E+00 -0.00000000000E+00 -0.45593999997E+02  0.45594000000E+02  0.51100000000E-03 0. -1.
    9900012    2    1    2    0    0  0.29718609436E+02 -0.27289051372E+02  0.50281036649E+01  0.50528807951E+02  0.29999842248E+02 0.  0.
         12    1    1    2    0    0 -0.29718609436E+02  0.27289051372E+02 -0.50281036649E+01  0.40659192049E+02  0.00000000000E+00 0. -1.
         11    1    3    3    0    0  0.72533010410E+01 -0.17895300900E+01  0.71589716993E+01  0.10347157580E+02  0.51100000000E-03 0.  1.
        -11    1    3    3    0    0 -0.41892478211E+01 -0.30345821684E+01 -0.12007879297E+01  0.53104028244E+01  0.51100000000E-03 0. -1.
         12    1    3    3    0    0  0.26654556216E+02 -0.22464939114E+02 -0.93008010473E+00  0.34871247547E+02  0.00000000000E+00 0. -1.
</event>
<event>
 7    1  0.5334031E-013  0.5052886E+02  0.7816164E-02  0.1300439E+00
        -11   -1    0    0    0    0  0.00000000000E+00  0.00000000000E+00  0.45593999997E+02  0.45594000000E+02  0.51100000000E-03 0. -1.
         11   -1    0    0    0    0 -0.00000000000E+00 -0.00000000000E+00 -0.45593999997E+02  0.45594000000E+02  0.51100000000E-03 0.  1.
    9900012    2    1    2    0    0 -0.35397602059E+02  0.98808305615E+00 -0.19979968947E+02  0.50528859592E+02  0.29999999214E+02 0.  0.
         12    1    1    2    0    0  0.35397602059E+02 -0.98808305615E+00  0.19979968947E+02  0.40659140408E+02  0.00000000000E+00 0. -1.
         11    1    3    3    0    0  0.49867765736E-01  0.59176896338E+01 -0.43922317657E+00  0.59341768306E+01  0.51100000000E-03 0. -1.
        -11    1    3    3    0    0 -0.13858997923E+01 -0.58315169941E+01 -0.24522552587E+01  0.64761767118E+01  0.51100000000E-03 0.  1.
        -12    1    3    3    0    0 -0.34061570032E+02  0.90191041643E+00 -0.17088490512E+02  0.38118506049E+02  0.00000000000E+00 0.  1.
</event>
<event>
 7    1  0.5329250E-013  0.5052886E+02  0.7816164E-02  0.1300439E+00
        -11   -1    0    0    0    0  0.00000000000E+00  0.00000000000E+00  0.45593999997E+02  0.45594000000E+02  0.51100000000E-03 0.  1.
         11   -1    0    0    0    0 -0.00000000000E+00 -0.00000000000E+00 -0.45593999997E+02  0.45594000000E+02  0.51100000000E-03 0. -1.
    9900012    2    1    2    0    0  0.24364593074E+02 -0.30679470666E+02  0.10876686702E+02  0.50528860442E+02  0.30000001798E+02 0.  0.
         12    1    1    2    0    0 -0.24364593074E+02  0.30679470666E+02 -0.10876686702E+02  0.40659139558E+02  0.00000000000E+00 0. -1.
         11    1    3    3    0    0  0.15797991404E+01 -0.55835893185E+01 -0.14597693500E+01  0.59835743347E+01  0.51100000000E-03 0. -1.
        -11    1    3    3    0    0 -0.39143756418E+01 -0.13329121172E+01  0.73817354487E+01  0.84610288898E+01  0.51100000000E-03 0.  1.
         12    1    3    3    0    0  0.26699169575E+02 -0.23762969231E+02  0.49547206036E+01  0.36084257217E+02  0.00000000000E+00 0. -1.
</event>
<event>
 7    1  0.5329250E-013  0.5052886E+02  0.7816164E-02  0.1300439E+00
        -11   -1    0    0    0    0  0.00000000000E+00  0.00000000000E+00  0.45593999997E+02  0.45594000000E+02  0.51100000000E-03 0.  1.
         11   -1    0    0    0    0 -0.00000000000E+00 -0.00000000000E+00 -0.45593999997E+02  0.45594000000E+02  0.51100000000E-03 0. -1.
    9900012    2    1    2    0    0 -0.10603645814E+01  0.89279912347E+01  0.39652648830E+02  0.50528856381E+02  0.29999989457E+02 0.  0.
         12    1    1    2    0    0  0.10603645814E+01 -0.89279912347E+01 -0.39652648830E+02  0.40659143619E+02  0.00000000000E+00 0. -1.
         11    1    3    3    0    0 -0.21564095450E+01  0.19180869958E+02  0.19217438186E+02  0.27237213609E+02  0.51100000000E-03 0. -1.
        -11    1    3    3    0    0 -0.12156507011E+01 -0.14717711141E+01  0.21445566919E+01  0.28710695752E+01  0.51100000000E-03 0.  1.
         12    1    3    3    0    0  0.23116956647E+01 -0.87811076096E+01  0.18290653952E+02  0.20420573197E+02  0.00000000000E+00 0. -1.
</event>
<event>
 7    1  0.5329250E-013  0.5052885E+02  0.7816164E-02  0.1300439E+00
        -11   -1    0    0    0    0  0.00000000000E+00  0.00000000000E+00  0.45593999997E+02  0.45594000000E+02  0.51100000000E-03 0.  1.
         11   -1    0    0    0    0 -0.00000000000E+00 -0.00000000000E+00 -0.45593999997E+02  0.45594000000E+02  0.51100000000E-03 0. -1.
    9900012    2    1    2    0    0  0.19185917345E+02 -0.28793595825E+02  0.21354069872E+02  0.50528845004E+02  0.29999954874E+02 0.  0.
         12    1    1    2    0    0 -0.19185917345E+02  0.28793595825E+02 -0.21354069872E+02  0.40659154996E+02  0.00000000000E+00 0. -1.
         11    1    3    3    0    0 -0.23578016359E+01 -0.26518058305E+01 -0.11629326126E+01  0.37341284444E+01  0.51100000000E-03 0. -1.
        -11    1    3    3    0    0  0.12913510774E+02 -0.29098574480E+02  0.16401980764E+02  0.35812159535E+02  0.51100000000E-03 0.  1.
         12    1    3    3    0    0  0.86302082061E+01  0.29567844850E+01  0.61150217200E+01  0.10982557025E+02  0.00000000000E+00 0. -1.
</event>
<event>
 7    1  0.5329250E-013  0.5052886E+02  0.7816164E-02  0.1300439E+00
        -11   -1    0    0    0    0  0.00000000000E+00  0.00000000000E+00  0.45593999997E+02  0.45594000000E+02  0.51100000000E-03 0. -1.
         11   -1    0    0    0    0 -0.00000000000E+00 -0.00000000000E+00 -0.45593999997E+02  0.45594000000E+02  0.51100000000E-03 0.  1.
    9900012    2    1    2    0    0 -0.39767047377E+02  0.48422157858E+01  0.69498607309E+01  0.50528859883E+02  0.30000000102E+02 0.  0.
         12    1    1    2    0    0  0.39767047377E+02 -0.48422157858E+01 -0.69498607309E+01  0.40659140117E+02  0.00000000000E+00 0. -1.
         11    1    3    3    0    0 -0.23330036755E+02  0.83241403119E+01 -0.65660440212E+01  0.25626058247E+02  0.51100000000E-03 0. -1.
        -11    1    3    3    0    0 -0.14065393559E+02 -0.45959022320E+00  0.39842120442E+01  0.14626020136E+02  0.51100000000E-03 0.  1.
         12    1    3    3    0    0 -0.23716170634E+01 -0.30223343029E+01  0.95316927079E+01  0.10276781501E+02  0.00000000000E+00 0. -1.
</event>
<event>
 7    1  0.5329250E-013  0.5052886E+02  0.7816164E-02  0.1300439E+00
        -11   -1    0    0    0    0  0.00000000000E+00  0.00000000000E+00  0.45593999997E+02  0.45594000000E+02  0.51100000000E-03 0.  1.
         11   -1    0    0    0    0 -0.00000000000E+00 -0.00000000000E+00 -0.45593999997E+02  0.45594000000E+02  0.51100000000E-03 0. -1.
    9900012    2    1    2    0    0 -0.19763331276E+02 -0.77241856535E+01  0.34683041526E+02  0.50528859864E+02  0.30000000042E+02 0.  0.
         12    1    1    2    0    0  0.19763331276E+02  0.77241856535E+01 -0.34683041526E+02  0.40659140136E+02  0.00000000000E+00 0. -1.
         11    1    3    3    0    0 -0.11800061783E+02 -0.84303612712E+01  0.54022993784E+01  0.15475699922E+02  0.51100000000E-03 0. -1.
        -11    1    3    3    0    0 -0.25469724979E+01  0.58526808317E+01  0.18828285441E+01  0.66547716273E+01  0.51100000000E-03 0.  1.
        -12    1    3    3    0    0 -0.54162969951E+01 -0.51465052141E+01  0.27397913603E+02  0.28398388314E+02  0.00000000000E+00 0.  1.
</event>
<event>
 7    1  0.5329250E-013  0.5052896E+02  0.7816164E-02  0.1300438E+00
        -11   -1    0    0    0    0  0.00000000000E+00  0.00000000000E+00  0.45593999997E+02  0.45594000000E+02  0.51100000000E-03 0.  1.
         11   -1    0    0    0    0 -0.00000000000E+00 -0.00000000000E+00 -0.45593999997E+02  0.45594000000E+02  0.51100000000E-03 0. -1.
    9900012    2    1    2    0    0  0.31677524719E+02  0.22323546892E+02 -0.12302484416E+02  0.50528961141E+02  0.30000307882E+02 0.  0.
         12    1    1    2    0    0 -0.31677524719E+02 -0.22323546892E+02  0.12302484416E+02  0.40659038859E+02  0.00000000000E+00 0. -1.
         11    1    3    3    0    0  0.11150795617E+02 -0.25954682392E+01 -0.40715383979E+01  0.12151301307E+02  0.51100000000E-03 0. -1.
        -11    1    3    3    0    0  0.15786847015E+02  0.18381526320E+02  0.31382443897E+01  0.24432634459E+02  0.51100000000E-03 0.  1.
         12    1    3    3    0    0  0.47398820869E+01  0.65374888113E+01 -0.11369190408E+02  0.13945025374E+02  0.00000000000E+00 0. -1.
</event>
<event>
 7    1  0.5329250E-013  0.5052886E+02  0.7816164E-02  0.1300439E+00
        -11   -1    0    0    0    0  0.00000000000E+00  0.00000000000E+00  0.45593999997E+02  0.45594000000E+02  0.51100000000E-03 0.  1.
         11   -1    0    0    0    0 -0.00000000000E+00 -0.00000000000E+00 -0.45593999997E+02  0.45594000000E+02  0.51100000000E-03 0. -1.
    9900012    2    1    2    0    0 -0.86517847465E+00 -0.40591643036E+02  0.21761336231E+01  0.50528861105E+02  0.30000003815E+02 0.  0.
         12    1    1    2    0    0  0.86517847465E+00  0.40591643036E+02 -0.21761336231E+01  0.40659138895E+02  0.00000000000E+00 0. -1.
         11    1    3    3    0    0 -0.58370566169E+01 -0.18693495317E+02 -0.90167564587E+01  0.21559682150E+02  0.51100000000E-03 0. -1.
        -11    1    3    3    0    0  0.24110209389E+01  0.12165437021E+01  0.36094012939E+01  0.45078574188E+01  0.51100000000E-03 0.  1.
        -12    1    3    3    0    0  0.25608572034E+01 -0.23114691421E+02  0.75834887879E+01  0.24461321536E+02  0.00000000000E+00 0.  1.
</event>
<event>
 7    1  0.5329250E-013  0.5052886E+02  0.7816164E-02  0.1300439E+00
        -11   -1    0    0    0    0  0.00000000000E+00  0.00000000000E+00  0.45593999997E+02  0.45594000000E+02  0.51100000000E-03 0.  1.
         11   -1    0    0    0    0 -0.00000000000E+00 -0.00000000000E+00 -0.45593999997E+02  0.45594000000E+02  0.51100000000E-03 0. -1.
    9900012    2    1    2    0    0  0.34624712731E+02  0.12682346047E+02 -0.17130474829E+02  0.50528858336E+02  0.29999995400E+02 0.  0.
         12    1    1    2    0    0 -0.34624712731E+02 -0.12682346047E+02  0.17130474829E+02  0.40659141664E+02  0.00000000000E+00 0. -1.
         11    1    3    3    0    0  0.20186734417E+02  0.32998291504E+00 -0.22386612453E+02  0.30145871235E+02  0.51100000000E-03 0. -1.
        -11    1    3    3    0    0  0.45345241458E+01  0.62538251011E+01  0.39592507253E+01  0.86803170559E+01  0.51100000000E-03 0.  1.
        -12    1    3    3    0    0  0.99034541675E+01  0.60985380312E+01  0.12968868982E+01  0.11702670045E+02  0.00000000000E+00 0.  1.
</event>
<event>
 7    1  0.5329250E-013  0.5052885E+02  0.7816164E-02  0.1300439E+00
        -11   -1    0    0    0    0  0.00000000000E+00  0.00000000000E+00  0.45593999997E+02  0.45594000000E+02  0.51100000000E-03 0.  1.
         11   -1    0    0    0    0 -0.00000000000E+00 -0.00000000000E+00 -0.45593999997E+02  0.45594000000E+02  0.51100000000E-03 0. -1.
    9900012    2    1    2    0    0  0.81566998596E+01 -0.34683670134E+02  0.19587683754E+02  0.50528854886E+02  0.29999984912E+02 0.  0.
         12    1    1    2    0    0 -0.81566998596E+01  0.34683670134E+02 -0.19587683754E+02  0.40659145114E+02  0.00000000000E+00 0. -1.
         11    1    3    3    0    0 -0.61664471744E+01 -0.14672457939E+01  0.62562505922E-01  0.63389112079E+01  0.51100000000E-03 0. -1.
        -11    1    3    3    0    0 -0.85999627874E+00  0.75067584772E+00  0.34964740289E+01  0.36781025983E+01  0.51100000000E-03 0.  1.
        -12    1    3    3    0    0  0.15183143313E+02 -0.33967100188E+02  0.16028647219E+02  0.40511841080E+02  0.00000000000E+00 0.  1.
</event>
<event>
 7    1  0.5329250E-013  0.5052886E+02  0.7816164E-02  0.1300439E+00
        -11   -1    0    0    0    0  0.00000000000E+00  0.00000000000E+00  0.45593999997E+02  0.45594000000E+02  0.51100000000E-03 0.  1.
         11   -1    0    0    0    0 -0.00000000000E+00 -0.00000000000E+00 -0.45593999997E+02  0.45594000000E+02  0.51100000000E-03 0. -1.
    9900012    2    1    2    0    0 -0.10816374497E+02  0.38572010656E+02 -0.69550001854E+01  0.50528855999E+02  0.29999988294E+02 0.  0.
         12    1    1    2    0    0  0.10816374497E+02 -0.38572010656E+02  0.69550001854E+01  0.40659144001E+02  0.00000000000E+00 0. -1.
         11    1    3    3    0    0  0.18981052335E+01  0.18145519110E+02 -0.12641523000E+01  0.18288268058E+02  0.51100000000E-03 0. -1.
        -11    1    3    3    0    0  0.47777418225E+01  0.93549868991E+01  0.82767830447E+00  0.10536965808E+02  0.51100000000E-03 0.  1.
        -12    1    3    3    0    0 -0.17492221553E+02  0.11071504647E+02 -0.65185261898E+01  0.21703622133E+02  0.00000000000E+00 0.  1.
</event>
<event>
 7    1  0.5329250E-013  0.5052887E+02  0.7816164E-02  0.1300439E+00
        -11   -1    0    0    0    0  0.00000000000E+00  0.00000000000E+00  0.45593999997E+02  0.45594000000E+02  0.51100000000E-03 0. -1.
         11   -1    0    0    0    0 -0.00000000000E+00 -0.00000000000E+00 -0.45593999997E+02  0.45594000000E+02  0.51100000000E-03 0.  1.
    9900012    2    1    2    0    0  0.63295388737E+01  0.38888620625E+02 -0.10038765774E+02  0.50528871938E+02  0.30000036743E+02 0.  0.
         12    1    1    2    0    0 -0.63295388737E+01 -0.38888620625E+02  0.10038765774E+02  0.40659128062E+02  0.00000000000E+00 0. -1.
         11    1    3    3    0    0  0.13662223141E+01 -0.40395938829E+00 -0.42675127827E+01  0.44990457000E+01  0.51100000000E-03 0. -1.
        -11    1    3    3    0    0 -0.42810162429E+01  0.34287534277E+02 -0.75477266125E+01  0.35368492817E+02  0.51100000000E-03 0.  1.
         12    1    3    3    0    0  0.92443328025E+01  0.50050457368E+01  0.17764736215E+01  0.10661333421E+02  0.00000000000E+00 0. -1.
</event>
<event>
 7    1  0.5329250E-013  0.5052886E+02  0.7816164E-02  0.1300439E+00
        -11   -1    0    0    0    0  0.00000000000E+00  0.00000000000E+00  0.45593999997E+02  0.45594000000E+02  0.51100000000E-03 0.  1.
         11   -1    0    0    0    0 -0.00000000000E+00 -0.00000000000E+00 -0.45593999997E+02  0.45594000000E+02  0.51100000000E-03 0. -1.
    9900012    2    1    2    0    0  0.53762057158E+01  0.96256517044E+01  0.39135773558E+02  0.50528861660E+02  0.30000005501E+02 0.  0.
         12    1    1    2    0    0 -0.53762057158E+01 -0.96256517044E+01 -0.39135773558E+02  0.40659138340E+02  0.00000000000E+00 0. -1.
         11    1    3    3    0    0 -0.13015162683E+01  0.49133913542E+01 -0.20297294884E+01  0.54731308456E+01  0.51100000000E-03 0. -1.
        -11    1    3    3    0    0  0.93009106376E+01  0.81427431835E+01  0.20458189085E+02  0.23902901626E+02  0.51100000000E-03 0.  1.
         12    1    3    3    0    0 -0.26231886535E+01 -0.34304828332E+01  0.20707313961E+02  0.21152829188E+02  0.00000000000E+00 0. -1.
</event>
<event>
 7    1  0.5329250E-013  0.5052886E+02  0.7816164E-02  0.1300439E+00
        -11   -1    0    0    0    0  0.00000000000E+00  0.00000000000E+00  0.45593999997E+02  0.45594000000E+02  0.51100000000E-03 0. -1.
         11   -1    0    0    0    0 -0.00000000000E+00 -0.00000000000E+00 -0.45593999997E+02  0.45594000000E+02  0.51100000000E-03 0.  1.
    9900012    2    1    2    0    0 -0.12862284817E+02 -0.22596807450E+02 -0.31258781483E+02  0.50528862067E+02  0.30000006739E+02 0.  0.
         12    1    1    2    0    0  0.12862284817E+02  0.22596807450E+02  0.31258781483E+02  0.40659137933E+02  0.00000000000E+00 0. -1.
         11    1    3    3    0    0 -0.11370476109E+01  0.23411026673E+01 -0.15718051943E+01  0.30404293773E+01  0.51100000000E-03 0. -1.
        -11    1    3    3    0    0  0.45195197243E+01 -0.14538803394E+02 -0.47224076147E+01  0.15940639780E+02  0.51100000000E-03 0.  1.
         12    1    3    3    0    0 -0.16244756930E+02 -0.10399106724E+02 -0.24964568674E+02  0.31547792909E+02  0.00000000000E+00 0. -1.
</event>
<event>
 7    1  0.5526657E-013  0.5052885E+02  0.7816164E-02  0.1300439E+00
        -11   -1    0    0    0    0  0.00000000000E+00  0.00000000000E+00  0.45593999997E+02  0.45594000000E+02  0.51100000000E-03 0. -1.
         11   -1    0    0    0    0 -0.00000000000E+00 -0.00000000000E+00 -0.45593999997E+02  0.45594000000E+02  0.51100000000E-03 0.  1.
    9900012    2    1    2    0    0  0.16485438290E+02  0.28091264161E+02 -0.24336752338E+02  0.50528852049E+02  0.29999976288E+02 0.  0.
         12    1    1    2    0    0 -0.16485438290E+02 -0.28091264161E+02  0.24336752338E+02  0.40659147951E+02  0.00000000000E+00 0. -1.
         11    1    3    3    0    0  0.16408479241E+02  0.13551914530E+02 -0.17265187208E+02  0.27404000949E+02  0.51100000000E-03 0. -1.
        -11    1    3    3    0    0  0.31865305180E+00  0.99884783394E+01 -0.12521497067E+02  0.16020584520E+02  0.51100000000E-03 0.  1.
         12    1    3    3    0    0 -0.24169400283E+00  0.45508712912E+01  0.54499319381E+01  0.71042665793E+01  0.00000000000E+00 0. -1.
</event>
<event>
 7    1  0.5329250E-013  0.5052886E+02  0.7816164E-02  0.1300439E+00
        -11   -1    0    0    0    0  0.00000000000E+00  0.00000000000E+00  0.45593999997E+02  0.45594000000E+02  0.51100000000E-03 0.  1.
         11   -1    0    0    0    0 -0.00000000000E+00 -0.00000000000E+00 -0.45593999997E+02  0.45594000000E+02  0.51100000000E-03 0. -1.
    9900012    2    1    2    0    0  0.29003685922E+02  0.24463292303E+02  0.14611610078E+02  0.50528860603E+02  0.30000002290E+02 0.  0.
         12    1    1    2    0    0 -0.29003685922E+02 -0.24463292303E+02 -0.14611610078E+02  0.40659139397E+02  0.00000000000E+00 0. -1.
         11    1    3    3    0    0  0.32079366874E+01  0.11545017985E+01 -0.13445900144E+01  0.36649222039E+01  0.51100000000E-03 0. -1.
        -11    1    3    3    0    0  0.24775353475E+02  0.23635562324E+02  0.22017238042E+02  0.40708926754E+02  0.51100000000E-03 0.  1.
        -12    1    3    3    0    0  0.10203957597E+01 -0.32677181871E+00 -0.60610379496E+01  0.61550116454E+01  0.00000000000E+00 0.  1.
</event>
<event>
 7    1  0.5329250E-013  0.5052884E+02  0.7816164E-02  0.1300439E+00
        -11   -1    0    0    0    0  0.00000000000E+00  0.00000000000E+00  0.45593999997E+02  0.45594000000E+02  0.51100000000E-03 0.  1.
         11   -1    0    0    0    0 -0.00000000000E+00 -0.00000000000E+00 -0.45593999997E+02  0.45594000000E+02  0.51100000000E-03 0. -1.
    9900012    2    1    2    0    0 -0.50378091090E+01 -0.20236032894E+02  0.34904016690E+02  0.50528844463E+02  0.29999953228E+02 0.  0.
         12    1    1    2    0    0  0.50378091090E+01  0.20236032894E+02 -0.34904016690E+02  0.40659155537E+02  0.00000000000E+00 0. -1.
         11    1    3    3    0    0 -0.30325614032E+01 -0.84987066660E+01 -0.25925275897E+01  0.93885911202E+01  0.51100000000E-03 0. -1.
        -11    1    3    3    0    0 -0.64437859337E+01 -0.36580903089E+01  0.20609682408E+02  0.21901210266E+02  0.51100000000E-03 0.  1.
        -12    1    3    3    0    0  0.44385382280E+01 -0.80792359188E+01  0.16886861872E+02  0.19239043077E+02  0.00000000000E+00 0.  1.
</event>
<event>
 7    1  0.5329250E-013  0.5052886E+02  0.7816164E-02  0.1300439E+00
        -11   -1    0    0    0    0  0.00000000000E+00  0.00000000000E+00  0.45593999997E+02  0.45594000000E+02  0.51100000000E-03 0.  1.
         11   -1    0    0    0    0 -0.00000000000E+00 -0.00000000000E+00 -0.45593999997E+02  0.45594000000E+02  0.51100000000E-03 0. -1.
    9900012    2    1    2    0    0  0.13488460655E+01  0.13677708819E+02  0.38265731899E+02  0.50528863979E+02  0.30000012549E+02 0.  0.
         12    1    1    2    0    0 -0.13488460655E+01 -0.13677708819E+02 -0.38265731899E+02  0.40659136021E+02  0.00000000000E+00 0. -1.
         11    1    3    3    0    0  0.52617314695E+01 -0.25239656196E+01  0.16821997904E+02  0.17805500112E+02  0.51100000000E-03 0. -1.
        -11    1    3    3    0    0 -0.22669913386E+01  0.10165434697E+02  0.23846110290E+02  0.26021381373E+02  0.51100000000E-03 0.  1.
         12    1    3    3    0    0 -0.16458940654E+01  0.60362397411E+01 -0.24023762947E+01  0.67019824938E+01  0.00000000000E+00 0. -1.
</event>
<event>
 7    1  0.5329250E-013  0.5052892E+02  0.7816164E-02  0.1300439E+00
        -11   -1    0    0    0    0  0.00000000000E+00  0.00000000000E+00  0.45593999997E+02  0.45594000000E+02  0.51100000000E-03 0.  1.
         11   -1    0    0    0    0 -0.00000000000E+00 -0.00000000000E+00 -0.45593999997E+02  0.45594000000E+02  0.51100000000E-03 0. -1.
    9900012    2    1    2    0    0  0.37517147770E+02 -0.15083428765E+02 -0.42560871954E+01  0.50528923789E+02  0.30000194349E+02 0.  0.
         12    1    1    2    0    0 -0.37517147770E+02  0.15083428765E+02  0.42560871954E+01  0.40659076211E+02  0.00000000000E+00 0. -1.
         11    1    3    3    0    0  0.24459029034E+02  0.11200517591E+00 -0.61468904660E+01  0.25219851489E+02  0.51100000000E-03 0. -1.
        -11    1    3    3    0    0  0.14385985289E+02 -0.13648250196E+02 -0.29576055205E+01  0.20049407394E+02  0.51100000000E-03 0.  1.
        -12    1    3    3    0    0 -0.13278665537E+01 -0.15471837452E+01  0.48484087911E+01  0.52596649068E+01  0.00000000000E+00 0.  1.
</event>
<event>
 7    1  0.5329250E-013  0.5052885E+02  0.7816164E-02  0.1300439E+00
        -11   -1    0    0    0    0  0.00000000000E+00  0.00000000000E+00  0.45593999997E+02  0.45594000000E+02  0.51100000000E-03 0.  1.
         11   -1    0    0    0    0 -0.00000000000E+00 -0.00000000000E+00 -0.45593999997E+02  0.45594000000E+02  0.51100000000E-03 0. -1.
    9900012    2    1    2    0    0 -0.25320808407E+02 -0.10494591032E+02  0.30031427461E+02  0.50528850788E+02  0.29999972454E+02 0.  0.
         12    1    1    2    0    0  0.25320808407E+02  0.10494591032E+02 -0.30031427461E+02  0.40659149212E+02  0.00000000000E+00 0. -1.
         11    1    3    3    0    0 -0.12442668442E+02  0.32679050011E+01  0.21803205158E+02  0.25315587224E+02  0.51100000000E-03 0. -1.
        -11    1    3    3    0    0 -0.12194223778E+02 -0.27179548490E+01  0.62594247742E+01  0.13973788708E+02  0.51100000000E-03 0.  1.
         12    1    3    3    0    0 -0.68391618688E+00 -0.11044541184E+02  0.19687975295E+01  0.11239474856E+02  0.00000000000E+00 0. -1.
</event>
<event>
 7    1  0.5329250E-013  0.5052886E+02  0.7816164E-02  0.1300439E+00
        -11   -1    0    0    0    0  0.00000000000E+00  0.00000000000E+00  0.45593999997E+02  0.45594000000E+02  0.51100000000E-03 0. -1.
         11   -1    0    0    0    0 -0.00000000000E+00 -0.00000000000E+00 -0.45593999997E+02  0.45594000000E+02  0.51100000000E-03 0.  1.
    9900012    2    1    2    0    0  0.35719544304E+02  0.47832365620E+01 -0.18825525833E+02  0.50528860558E+02  0.30000002153E+02 0.  0.
         12    1    1    2    0    0 -0.35719544304E+02 -0.47832365620E+01  0.18825525833E+02  0.40659139442E+02  0.00000000000E+00 0. -1.
         11    1    3    3    0    0  0.16141976161E+02  0.80798896198E+01 -0.46998833249E+00  0.18057377992E+02  0.51100000000E-03 0. -1.
        -11    1    3    3    0    0  0.94116906475E+01  0.51742682924E+01 -0.15624655038E+02  0.18960032134E+02  0.51100000000E-03 0.  1.
         12    1    3    3    0    0  0.10165877496E+02 -0.84709213503E+01 -0.27308824628E+01  0.13511450433E+02  0.00000000000E+00 0. -1.
</event>
<event>
 7    1  0.5329250E-013  0.5052888E+02  0.7816164E-02  0.1300439E+00
        -11   -1    0    0    0    0  0.00000000000E+00  0.00000000000E+00  0.45593999997E+02  0.45594000000E+02  0.51100000000E-03 0. -1.
         11   -1    0    0    0    0 -0.00000000000E+00 -0.00000000000E+00 -0.45593999997E+02  0.45594000000E+02  0.51100000000E-03 0.  1.
    9900012    2    1    2    0    0  0.61660462206E+01 -0.40111805348E+02 -0.24873923329E+01  0.50528878331E+02  0.30000056174E+02 0.  0.
         12    1    1    2    0    0 -0.61660462206E+01  0.40111805348E+02  0.24873923329E+01  0.40659121669E+02  0.00000000000E+00 0. -1.
         11    1    3    3    0    0 -0.34791802937E+01 -0.35247860749E+01 -0.25009111499E+01  0.55482762396E+01  0.51100000000E-03 0. -1.
        -11    1    3    3    0    0  0.35148562583E+01  0.25013263284E+01  0.30725754756E+01  0.52963731206E+01  0.51100000000E-03 0.  1.
        -12    1    3    3    0    0  0.61303702560E+01 -0.39088345602E+02 -0.30590566586E+01  0.39684228971E+02  0.00000000000E+00 0.  1.
</event>
<event>
 7    1  0.5329250E-013  0.5052886E+02  0.7816164E-02  0.1300439E+00
        -11   -1    0    0    0    0  0.00000000000E+00  0.00000000000E+00  0.45593999997E+02  0.45594000000E+02  0.51100000000E-03 0.  1.
         11   -1    0    0    0    0 -0.00000000000E+00 -0.00000000000E+00 -0.45593999997E+02  0.45594000000E+02  0.51100000000E-03 0. -1.
    9900012    2    1    2    0    0  0.29722150646E+02 -0.42653898836E+01  0.27414697527E+02  0.50528862892E+02  0.30000009247E+02 0.  0.
         12    1    1    2    0    0 -0.29722150646E+02  0.42653898836E+01 -0.27414697527E+02  0.40659137108E+02  0.00000000000E+00 0. -1.
         11    1    3    3    0    0 -0.27670707848E+01 -0.11577739050E+01 -0.98574464717E+00  0.31573428566E+01  0.51100000000E-03 0. -1.
        -11    1    3    3    0    0  0.20597341943E+02 -0.13707587475E+01  0.52695973103E+01  0.21304885138E+02  0.51100000000E-03 0.  1.
         12    1    3    3    0    0  0.11891879488E+02 -0.17368572311E+01  0.23130844864E+02  0.26066634898E+02  0.00000000000E+00 0. -1.
</event>
<event>
 7    1  0.5329250E-013  0.5052886E+02  0.7816164E-02  0.1300439E+00
        -11   -1    0    0    0    0  0.00000000000E+00  0.00000000000E+00  0.45593999997E+02  0.45594000000E+02  0.51100000000E-03 0.  1.
         11   -1    0    0    0    0 -0.00000000000E+00 -0.00000000000E+00 -0.45593999997E+02  0.45594000000E+02  0.51100000000E-03 0. -1.
    9900012    2    1    2    0    0  0.21290305693E+02  0.81107110688E+01  0.33676477533E+02  0.50528857245E+02  0.29999992082E+02 0.  0.
         12    1    1    2    0    0 -0.21290305693E+02 -0.81107110688E+01 -0.33676477533E+02  0.40659142755E+02  0.00000000000E+00 0. -1.
         11    1    3    3    0    0  0.10544839177E+01  0.13701861353E+00 -0.23115307319E+01  0.25443830330E+01  0.51100000000E-03 0. -1.
        -11    1    3    3    0    0  0.80261752511E+01  0.13751587019E+02  0.10305965296E+02  0.18966775046E+02  0.51100000000E-03 0.  1.
        -12    1    3    3    0    0  0.12209646524E+02 -0.57778945633E+01  0.25682042970E+02  0.29017699166E+02  0.00000000000E+00 0.  1.
</event>
<event>
 7    1  0.5329250E-013  0.5052886E+02  0.7816164E-02  0.1300439E+00
        -11   -1    0    0    0    0  0.00000000000E+00  0.00000000000E+00  0.45593999997E+02  0.45594000000E+02  0.51100000000E-03 0.  1.
         11   -1    0    0    0    0 -0.00000000000E+00 -0.00000000000E+00 -0.45593999997E+02  0.45594000000E+02  0.51100000000E-03 0. -1.
    9900012    2    1    2    0    0 -0.11017549645E+02  0.38574408557E+02 -0.66177542445E+01  0.50528855064E+02  0.29999985451E+02 0.  0.
         12    1    1    2    0    0  0.11017549645E+02 -0.38574408557E+02  0.66177542445E+01  0.40659144936E+02  0.00000000000E+00 0. -1.
         11    1    3    3    0    0 -0.32731566725E+01  0.62127569237E+01 -0.96492247773E+01  0.11933961717E+02  0.51100000000E-03 0. -1.
        -11    1    3    3    0    0 -0.13190785137E+02  0.15425800257E+02 -0.11178043116E+01  0.20327361187E+02  0.51100000000E-03 0.  1.
         12    1    3    3    0    0  0.54463921647E+01  0.16935851377E+02  0.41492748443E+01  0.18267532160E+02  0.00000000000E+00 0. -1.
</event>
<event>
 7    1  0.5329250E-013  0.5052885E+02  0.7816164E-02  0.1300439E+00
        -11   -1    0    0    0    0  0.00000000000E+00  0.00000000000E+00  0.45593999997E+02  0.45594000000E+02  0.51100000000E-03 0.  1.
         11   -1    0    0    0    0 -0.00000000000E+00 -0.00000000000E+00 -0.45593999997E+02  0.45594000000E+02  0.51100000000E-03 0. -1.
    9900012    2    1    2    0    0 -0.23550703298E+02 -0.18597518427E+02  0.27434702459E+02  0.50528853225E+02  0.29999979862E+02 0.  0.
         12    1    1    2    0    0  0.23550703298E+02  0.18597518427E+02 -0.27434702459E+02  0.40659146775E+02  0.00000000000E+00 0. -1.
         11    1    3    3    0    0 -0.10973795825E+01 -0.75630403420E-01  0.83199355345E+01  0.83923351616E+01  0.51100000000E-03 0. -1.
        -11    1    3    3    0    0 -0.26440062236E+02 -0.19728168425E+02  0.14857063874E+02  0.36180241399E+02  0.51100000000E-03 0.  1.
         12    1    3    3    0    0  0.39867385205E+01  0.12062804010E+01  0.42577030504E+01  0.59562766644E+01  0.00000000000E+00 0. -1.
</event>
<event>
 7    1  0.5329250E-013  0.5052885E+02  0.7816164E-02  0.1300439E+00
        -11   -1    0    0    0    0  0.00000000000E+00  0.00000000000E+00  0.45593999997E+02  0.45594000000E+02  0.51100000000E-03 0.  1.
         11   -1    0    0    0    0 -0.00000000000E+00 -0.00000000000E+00 -0.45593999997E+02  0.45594000000E+02  0.51100000000E-03 0. -1.
    9900012    2    1    2    0    0 -0.28885630426E+02 -0.25055223634E+02  0.13821106482E+02  0.50528845301E+02  0.29999955778E+02 0.  0.
         12    1    1    2    0    0  0.28885630426E+02  0.25055223634E+02 -0.13821106482E+02  0.40659154699E+02  0.00000000000E+00 0. -1.
         11    1    3    3    0    0 -0.70769370260E+00  0.30167668840E+01 -0.19146329466E+00  0.31045726378E+01  0.51100000000E-03 0. -1.
        -11    1    3    3    0    0  0.32960732166E+01 -0.29496345421E+01 -0.83906265877E+00  0.45020516420E+01  0.51100000000E-03 0.  1.
        -12    1    3    3    0    0 -0.31474009940E+02 -0.25122355976E+02  0.14851632435E+02  0.42922221022E+02  0.00000000000E+00 0.  1.
</event>
<event>
 7    1  0.5329250E-013  0.5052886E+02  0.7816164E-02  0.1300439E+00
        -11   -1    0    0    0    0  0.00000000000E+00  0.00000000000E+00  0.45593999997E+02  0.45594000000E+02  0.51100000000E-03 0.  1.
         11   -1    0    0    0    0 -0.00000000000E+00 -0.00000000000E+00 -0.45593999997E+02  0.45594000000E+02  0.51100000000E-03 0. -1.
    9900012    2    1    2    0    0  0.28379754415E+01 -0.29597477855E+02  0.27732672378E+02  0.50528856905E+02  0.29999991049E+02 0.  0.
         12    1    1    2    0    0 -0.28379754415E+01  0.29597477855E+02 -0.27732672378E+02  0.40659143095E+02  0.00000000000E+00 0. -1.
         11    1    3    3    0    0 -0.29031041662E+01 -0.10125271383E+02 -0.24097540727E+01  0.10805371319E+02  0.51100000000E-03 0. -1.
        -11    1    3    3    0    0 -0.15972187989E+01 -0.16475614854E+02  0.25887336535E+02  0.30727043233E+02  0.51100000000E-03 0.  1.
         12    1    3    3    0    0  0.73382984066E+01 -0.29965916170E+01  0.42550899161E+01  0.89964423533E+01  0.00000000000E+00 0. -1.
</event>
<event>
 7    1  0.5329250E-013  0.5052882E+02  0.7816164E-02  0.1300439E+00
        -11   -1    0    0    0    0  0.00000000000E+00  0.00000000000E+00  0.45593999997E+02  0.45594000000E+02  0.51100000000E-03 0.  1.
         11   -1    0    0    0    0 -0.00000000000E+00 -0.00000000000E+00 -0.45593999997E+02  0.45594000000E+02  0.51100000000E-03 0. -1.
    9900012    2    1    2    0    0  0.51842021180E+01 -0.12641132695E+02  0.38294836199E+02  0.50528823091E+02  0.29999888267E+02 0.  0.
         12    1    1    2    0    0 -0.51842021180E+01  0.12641132695E+02 -0.38294836199E+02  0.40659176909E+02  0.00000000000E+00 0. -1.
         11    1    3    3    0    0 -0.15703856407E+01  0.37073212229E+01  0.20336048933E+02  0.20730779729E+02  0.51100000000E-03 0. -1.
        -11    1    3    3    0    0  0.13095278703E+01 -0.16230774849E+02  0.18104103494E+02  0.24349773695E+02  0.51100000000E-03 0.  1.
         12    1    3    3    0    0  0.54450598884E+01 -0.11767906920E+00 -0.14531622792E+00  0.54482696664E+01  0.00000000000E+00 0. -1.
</event>
<event>
 7    1  0.5329250E-013  0.5052886E+02  0.7816164E-02  0.1300439E+00
        -11   -1    0    0    0    0  0.00000000000E+00  0.00000000000E+00  0.45593999997E+02  0.45594000000E+02  0.51100000000E-03 0.  1.
         11   -1    0    0    0    0 -0.00000000000E+00 -0.00000000000E+00 -0.45593999997E+02  0.45594000000E+02  0.51100000000E-03 0. -1.
    9900012    2    1    2    0    0 -0.31287715026E+02  0.24053471148E+02  0.97813466519E+01  0.50528864149E+02  0.30000013067E+02 0.  0.
         12    1    1    2    0    0  0.31287715026E+02 -0.24053471148E+02 -0.97813466519E+01  0.40659135851E+02  0.00000000000E+00 0. -1.
         11    1    3    3    0    0 -0.49601602769E+01  0.53709100681E+01  0.85166193676E+01  0.11224200223E+02  0.51100000000E-03 0. -1.
        -11    1    3    3    0    0 -0.27916042460E+02  0.20614581346E+02  0.47380312716E+01  0.35024496160E+02  0.51100000000E-03 0.  1.
         12    1    3    3    0    0  0.15884877106E+01 -0.19320202656E+01 -0.34733039872E+01  0.42801677655E+01  0.00000000000E+00 0. -1.
</event>
<event>
 7    1  0.5329250E-013  0.5052885E+02  0.7816164E-02  0.1300439E+00
        -11   -1    0    0    0    0  0.00000000000E+00  0.00000000000E+00  0.45593999997E+02  0.45594000000E+02  0.51100000000E-03 0. -1.
         11   -1    0    0    0    0 -0.00000000000E+00 -0.00000000000E+00 -0.45593999997E+02  0.45594000000E+02  0.51100000000E-03 0.  1.
    9900012    2    1    2    0    0  0.13523284406E+02  0.31358536773E+02 -0.22066476909E+02  0.50528850318E+02  0.29999971027E+02 0.  0.
         12    1    1    2    0    0 -0.13523284406E+02 -0.31358536773E+02  0.22066476909E+02  0.40659149682E+02  0.00000000000E+00 0. -1.
         11    1    3    3    0    0 -0.52652360932E+00  0.59230672926E+01  0.54374400906E+01  0.80576490531E+01  0.51100000000E-03 0. -1.
        -11    1    3    3    0    0  0.59548672621E+01  0.16752176347E+02 -0.76850816906E+01  0.19368952923E+02  0.51100000000E-03 0.  1.
        -12    1    3    3    0    0  0.80949407537E+01  0.86832931328E+01 -0.19818835309E+02  0.23102248342E+02  0.00000000000E+00 0.  1.
</event>
<event>
 7    1  0.5329250E-013  0.5052886E+02  0.7816164E-02  0.1300439E+00
        -11   -1    0    0    0    0  0.00000000000E+00  0.00000000000E+00  0.45593999997E+02  0.45594000000E+02  0.51100000000E-03 0.  1.
         11   -1    0    0    0    0 -0.00000000000E+00 -0.00000000000E+00 -0.45593999997E+02  0.45594000000E+02  0.51100000000E-03 0. -1.
    9900012    2    1    2    0    0 -0.60819621763E+01  0.17702337608E+01  0.40162693511E+02  0.50528856606E+02  0.29999990140E+02 0.  0.
         12    1    1    2    0    0  0.60819621763E+01 -0.17702337608E+01 -0.40162693511E+02  0.40659143394E+02  0.00000000000E+00 0. -1.
         11    1    3    3    0    0 -0.71273397350E+01 -0.88467821917E+01  0.80584551294E+01  0.13928504090E+02  0.51100000000E-03 0. -1.
        -11    1    3    3    0    0  0.43738438312E+01 -0.17892082467E+01  0.90274764780E+01  0.10189558765E+02  0.51100000000E-03 0.  1.
        -12    1    3    3    0    0 -0.33284662724E+01  0.12406224199E+02  0.23076761903E+02  0.26410793751E+02  0.00000000000E+00 0.  1.
</event>
<event>
 7    1  0.5329250E-013  0.5052885E+02  0.7816164E-02  0.1300439E+00
        -11   -1    0    0    0    0  0.00000000000E+00  0.00000000000E+00  0.45593999997E+02  0.45594000000E+02  0.51100000000E-03 0.  1.
         11   -1    0    0    0    0 -0.00000000000E+00 -0.00000000000E+00 -0.45593999997E+02  0.45594000000E+02  0.51100000000E-03 0. -1.
    9900012    2    1    2    0    0 -0.31954087910E+02 -0.25024754126E+02 -0.24216311650E+01  0.50528851575E+02  0.29999974846E+02 0.  0.
         12    1    1    2    0    0  0.31954087910E+02  0.25024754126E+02  0.24216311650E+01  0.40659148425E+02  0.00000000000E+00 0. -1.
         11    1    3    3    0    0  0.21082253114E+00  0.30630557773E+01 -0.23410157816E+01  0.38609729325E+01  0.51100000000E-03 0. -1.
        -11    1    3    3    0    0 -0.72163625075E+01 -0.18636309665E+02  0.27782772326E+00  0.19986623383E+02  0.51100000000E-03 0.  1.
         12    1    3    3    0    0 -0.24948547933E+02 -0.94515002382E+01 -0.35844310665E+00  0.26681255259E+02  0.00000000000E+00 0. -1.
</event>
<event>
 7    1  0.5329250E-013  0.5052885E+02  0.7816164E-02  0.1300439E+00
        -11   -1    0    0    0    0  0.00000000000E+00  0.00000000000E+00  0.45593999997E+02  0.45594000000E+02  0.51100000000E-03 0.  1.
         11   -1    0    0    0    0 -0.00000000000E+00 -0.00000000000E+00 -0.45593999997E+02  0.45594000000E+02  0.51100000000E-03 0. -1.
    9900012    2    1    2    0    0  0.37117589210E+01  0.12586431867E+02  0.38483383430E+02  0.50528853161E+02  0.29999979668E+02 0.  0.
         12    1    1    2    0    0 -0.37117589210E+01 -0.12586431867E+02 -0.38483383430E+02  0.40659146839E+02  0.00000000000E+00 0. -1.
         11    1    3    3    0    0 -0.17701316058E+01 -0.29688711909E+01  0.41248900092E+00  0.34810500552E+01  0.51100000000E-03 0. -1.
        -11    1    3    3    0    0 -0.17469125790E+01  0.12223226642E+02  0.37012756716E+02  0.39017984739E+02  0.51100000000E-03 0.  1.
         12    1    3    3    0    0  0.72288031059E+01  0.33320764156E+01  0.10581377132E+01  0.80298183668E+01  0.00000000000E+00 0. -1.
</event>
<event>
 7    1  0.5329250E-013  0.5052888E+02  0.7816164E-02  0.1300439E+00
        -11   -1    0    0    0    0  0.00000000000E+00  0.00000000000E+00  0.45593999997E+02  0.45594000000E+02  0.51100000000E-03 0.  1.
         11   -1    0    0    0    0 -0.00000000000E+00 -0.00000000000E+00 -0.45593999997E+02  0.45594000000E+02  0.51100000000E-03 0. -1.
    9900012    2    1    2    0    0  0.17944773450E+02  0.16422081595E+02  0.32580125308E+02  0.50528877738E+02  0.30000054371E+02 0.  0.
         12    1    1    2    0    0 -0.17944773450E+02 -0.16422081595E+02 -0.32580125308E+02  0.40659122262E+02  0.00000000000E+00 0. -1.
         11    1    3    3    0    0  0.65213839397E+00 -0.14749370436E+01  0.24805199329E+01  0.29586657746E+01  0.51100000000E-03 0. -1.
        -11    1    3    3    0    0  0.12368767219E+02  0.23159905898E+02  0.30630630007E+02  0.40343563782E+02  0.51100000000E-03 0.  1.
        -12    1    3    3    0    0  0.49238678369E+01 -0.52628872591E+01 -0.53102463224E+00  0.72266481813E+01  0.00000000000E+00 0.  1.
</event>
<event>
 7    1  0.5329250E-013  0.5052886E+02  0.7816164E-02  0.1300439E+00
        -11   -1    0    0    0    0  0.00000000000E+00  0.00000000000E+00  0.45593999997E+02  0.45594000000E+02  0.51100000000E-03 0.  1.
         11   -1    0    0    0    0 -0.00000000000E+00 -0.00000000000E+00 -0.45593999997E+02  0.45594000000E+02  0.51100000000E-03 0. -1.
    9900012    2    1    2    0    0 -0.26327693824E+02  0.13447477713E+02  0.27913861130E+02  0.50528858812E+02  0.29999996844E+02 0.  0.
         12    1    1    2    0    0  0.26327693824E+02 -0.13447477713E+02 -0.27913861130E+02  0.40659141188E+02  0.00000000000E+00 0. -1.
         11    1    3    3    0    0 -0.85861698187E+01 -0.21175482495E+01  0.12432916552E+02  0.15257251948E+02  0.51100000000E-03 0. -1.
        -11    1    3    3    0    0 -0.16602302695E+02  0.16025887045E+01  0.39830736894E+01  0.17148458287E+02  0.51100000000E-03 0.  1.
         12    1    3    3    0    0 -0.11392213106E+01  0.13962437258E+02  0.11497870889E+02  0.18123148578E+02  0.00000000000E+00 0. -1.
</event>
<event>
 7    1  0.5329250E-013  0.5052887E+02  0.7816164E-02  0.1300439E+00
        -11   -1    0    0    0    0  0.00000000000E+00  0.00000000000E+00  0.45593999997E+02  0.45594000000E+02  0.51100000000E-03 0. -1.
         11   -1    0    0    0    0 -0.00000000000E+00 -0.00000000000E+00 -0.45593999997E+02  0.45594000000E+02  0.51100000000E-03 0.  1.
    9900012    2    1    2    0    0  0.17253855657E+02 -0.36806465463E+02 -0.86811028265E+00  0.50528867565E+02  0.30000023450E+02 0.  0.
         12    1    1    2    0    0 -0.17253855657E+02  0.36806465463E+02  0.86811028265E+00  0.40659132435E+02  0.00000000000E+00 0. -1.
         11    1    3    3    0    0  0.94765907338E+00 -0.10914014244E+02 -0.19161083749E+01  0.11121386433E+02  0.51100000000E-03 0. -1.
        -11    1    3    3    0    0  0.12476729360E+02 -0.12393640526E+02 -0.11143506432E+02  0.20819434114E+02  0.51100000000E-03 0.  1.
         12    1    3    3    0    0  0.38294672244E+01 -0.13498810693E+02  0.12191504524E+02  0.18588047017E+02  0.00000000000E+00 0. -1.
</event>
<event>
 7    1  0.5329250E-013  0.5052886E+02  0.7816164E-02  0.1300439E+00
        -11   -1    0    0    0    0  0.00000000000E+00  0.00000000000E+00  0.45593999997E+02  0.45594000000E+02  0.51100000000E-03 0.  1.
         11   -1    0    0    0    0 -0.00000000000E+00 -0.00000000000E+00 -0.45593999997E+02  0.45594000000E+02  0.51100000000E-03 0. -1.
    9900012    2    1    2    0    0 -0.12296543816E+02  0.28072385047E+02  0.26718941429E+02  0.50528860521E+02  0.30000002041E+02 0.  0.
         12    1    1    2    0    0  0.12296543816E+02 -0.28072385047E+02 -0.26718941429E+02  0.40659139479E+02  0.00000000000E+00 0. -1.
         11    1    3    3    0    0 -0.12099859066E+02  0.57234990898E+01  0.52369892008E-01  0.13385356705E+02  0.51100000000E-03 0. -1.
        -11    1    3    3    0    0 -0.57659630944E+01  0.82136428915E+01  0.14724083498E+02  0.17818779281E+02  0.51100000000E-03 0.  1.
        -12    1    3    3    0    0  0.55692783441E+01  0.14135243065E+02  0.11942488039E+02  0.19324724535E+02  0.00000000000E+00 0.  1.
</event>
<event>
 7    1  0.5329250E-013  0.5052886E+02  0.7816164E-02  0.1300439E+00
        -11   -1    0    0    0    0  0.00000000000E+00  0.00000000000E+00  0.45593999997E+02  0.45594000000E+02  0.51100000000E-03 0. -1.
         11   -1    0    0    0    0 -0.00000000000E+00 -0.00000000000E+00 -0.45593999997E+02  0.45594000000E+02  0.51100000000E-03 0.  1.
    9900012    2    1    2    0    0 -0.33917453499E+02  0.19860127609E+02 -0.10408990861E+02  0.50528863128E+02  0.30000009962E+02 0.  0.
         12    1    1    2    0    0  0.33917453499E+02 -0.19860127609E+02  0.10408990861E+02  0.40659136872E+02  0.00000000000E+00 0. -1.
         11    1    3    3    0    0 -0.41917090841E+01  0.12233796313E+01 -0.80744255949E+01  0.91795115184E+01  0.51100000000E-03 0. -1.
        -11    1    3    3    0    0 -0.17687817126E+02  0.15319256040E+02 -0.11292390702E+02  0.25981850749E+02  0.51100000000E-03 0.  1.
         12    1    3    3    0    0 -0.12037927288E+02  0.33174919374E+01  0.89578254356E+01  0.15367500860E+02  0.00000000000E+00 0. -1.
</event>
<event>
 7    1  0.5329250E-013  0.5052886E+02  0.7816164E-02  0.1300439E+00
        -11   -1    0    0    0    0  0.00000000000E+00  0.00000000000E+00  0.45593999997E+02  0.45594000000E+02  0.51100000000E-03 0.  1.
         11   -1    0    0    0    0 -0.00000000000E+00 -0.00000000000E+00 -0.45593999997E+02  0.45594000000E+02  0.51100000000E-03 0. -1.
    9900012    2    1    2    0    0 -0.28803989604E+02  0.21974554623E+02  0.18455749734E+02  0.50528861221E+02  0.30000004168E+02 0.  0.
         12    1    1    2    0    0  0.28803989604E+02 -0.21974554623E+02 -0.18455749734E+02  0.40659138779E+02  0.00000000000E+00 0. -1.
         11    1    3    3    0    0 -0.84074349484E+00  0.29761889212E+00  0.32829195636E+01  0.34019094273E+01  0.51100000000E-03 0. -1.
        -11    1    3    3    0    0 -0.33366760945E+02  0.20236246823E+02  0.13133977905E+02  0.41174601362E+02  0.51100000000E-03 0.  1.
        -12    1    3    3    0    0  0.54035148354E+01  0.14406889077E+01  0.20388522654E+01  0.59523504320E+01  0.00000000000E+00 0.  1.
</event>
<event>
 7    1  0.5329250E-013  0.5052886E+02  0.7816164E-02  0.1300439E+00
        -11   -1    0    0    0    0  0.00000000000E+00  0.00000000000E+00  0.45593999997E+02  0.45594000000E+02  0.51100000000E-03 0.  1.
         11   -1    0    0    0    0 -0.00000000000E+00 -0.00000000000E+00 -0.45593999997E+02  0.45594000000E+02  0.51100000000E-03 0. -1.
    9900012    2    1    2    0    0 -0.79446586840E+01  0.24090182123E+02  0.31775957022E+02  0.50528856858E+02  0.29999990906E+02 0.  0.
         12    1    1    2    0    0  0.79446586840E+01 -0.24090182123E+02 -0.31775957022E+02  0.40659143142E+02  0.00000000000E+00 0. -1.
         11    1    3    3    0    0 -0.98437958142E+01  0.16680554954E+02  0.22221419534E+02  0.29477664697E+02  0.51100000000E-03 0. -1.
        -11    1    3    3    0    0  0.29088807993E+01  0.98285009501E+01  0.13105392696E+02  0.16637678216E+02  0.51100000000E-03 0.  1.
         12    1    3    3    0    0 -0.10097436691E+01 -0.24188737805E+01 -0.35508552079E+01  0.44135139459E+01  0.00000000000E+00 0. -1.
</event>
<event>
 7    1  0.5329250E-013  0.5052886E+02  0.7816164E-02  0.1300439E+00
        -11   -1    0    0    0    0  0.00000000000E+00  0.00000000000E+00  0.45593999997E+02  0.45594000000E+02  0.51100000000E-03 0. -1.
         11   -1    0    0    0    0 -0.00000000000E+00 -0.00000000000E+00 -0.45593999997E+02  0.45594000000E+02  0.51100000000E-03 0.  1.
    9900012    2    1    2    0    0  0.30758930547E+02 -0.11406671845E+02 -0.24019612039E+02  0.50528859164E+02  0.29999997916E+02 0.  0.
         12    1    1    2    0    0 -0.30758930547E+02  0.11406671845E+02  0.24019612039E+02  0.40659140836E+02  0.00000000000E+00 0. -1.
         11    1    3    3    0    0  0.10562376752E+02 -0.16747600536E+01 -0.17975215657E+02  0.20915950900E+02  0.51100000000E-03 0. -1.
        -11    1    3    3    0    0  0.45600311983E+01 -0.58392851267E+01 -0.10540320442E+02  0.12883690876E+02  0.51100000000E-03 0.  1.
         12    1    3    3    0    0  0.15636522597E+02 -0.38926266644E+01  0.44959240593E+01  0.16729217388E+02  0.00000000000E+00 0. -1.
</event>
<event>
 7    1  0.5329250E-013  0.5052886E+02  0.7816164E-02  0.1300439E+00
        -11   -1    0    0    0    0  0.00000000000E+00  0.00000000000E+00  0.45593999997E+02  0.45594000000E+02  0.51100000000E-03 0.  1.
         11   -1    0    0    0    0 -0.00000000000E+00 -0.00000000000E+00 -0.45593999997E+02  0.45594000000E+02  0.51100000000E-03 0. -1.
    9900012    2    1    2    0    0 -0.21690419021E+02 -0.33005052316E+02 -0.96622081186E+01  0.50528855624E+02  0.29999987155E+02 0.  0.
         12    1    1    2    0    0  0.21690419021E+02  0.33005052316E+02  0.96622081186E+01  0.40659144376E+02  0.00000000000E+00 0. -1.
         11    1    3    3    0    0 -0.43203996288E+01 -0.11189722112E+02  0.67183963858E+01  0.13748184759E+02  0.51100000000E-03 0.  1.
        -11    1    3    3    0    0 -0.85276206145E+01 -0.20775837427E+02 -0.62865524166E+01  0.23321159398E+02  0.51100000000E-03 0. -1.
         12    1    3    3    0    0 -0.88423987777E+01 -0.10394927765E+01 -0.10094052088E+02  0.13459511467E+02  0.00000000000E+00 0. -1.
</event>
<event>
 7    1  0.5329250E-013  0.5052886E+02  0.7816164E-02  0.1300439E+00
        -11   -1    0    0    0    0  0.00000000000E+00  0.00000000000E+00  0.45593999997E+02  0.45594000000E+02  0.51100000000E-03 0.  1.
         11   -1    0    0    0    0 -0.00000000000E+00 -0.00000000000E+00 -0.45593999997E+02  0.45594000000E+02  0.51100000000E-03 0. -1.
    9900012    2    1    2    0    0 -0.23488725312E+02  0.19995656897E+02  0.26488092080E+02  0.50528861623E+02  0.30000005388E+02 0.  0.
         12    1    1    2    0    0  0.23488725312E+02 -0.19995656897E+02 -0.26488092080E+02  0.40659138377E+02  0.00000000000E+00 0. -1.
         11    1    3    3    0    0 -0.15806479728E+02  0.11308178203E+02  0.45873655783E+01  0.19969066550E+02  0.51100000000E-03 0. -1.
        -11    1    3    3    0    0  0.34443531236E+01  0.81278385613E+01  0.45261178394E+01  0.99202354345E+01  0.51100000000E-03 0.  1.
         12    1    3    3    0    0 -0.11126598708E+02  0.55964013240E+00  0.17374608663E+02  0.20639559638E+02  0.00000000000E+00 0. -1.
</event>
<event>
 7    1  0.5329250E-013  0.5052883E+02  0.7816164E-02  0.1300439E+00
        -11   -1    0    0    0    0  0.00000000000E+00  0.00000000000E+00  0.45593999997E+02  0.45594000000E+02  0.51100000000E-03 0. -1.
         11   -1    0    0    0    0 -0.00000000000E+00 -0.00000000000E+00 -0.45593999997E+02  0.45594000000E+02  0.51100000000E-03 0.  1.
    9900012    2    1    2    0    0  0.71913390261E+01  0.51515032034E+01 -0.39685195123E+02  0.50528830626E+02  0.29999911170E+02 0.  0.
         12    1    1    2    0    0 -0.71913390261E+01 -0.51515032034E+01  0.39685195123E+02  0.40659169374E+02  0.00000000000E+00 0. -1.
         11    1    3    3    0    0  0.66424300950E+01  0.42371070463E+01 -0.29785828710E+02  0.30810234434E+02  0.51100000000E-03 0. -1.
        -11    1    3    3    0    0  0.38643886044E+01 -0.67478188073E+01 -0.80000791970E+01  0.11156514929E+02  0.51100000000E-03 0.  1.
         12    1    3    3    0    0 -0.33154796733E+01  0.76622149644E+01 -0.18992872164E+01  0.85620812631E+01  0.00000000000E+00 0. -1.
</event>
<event>
 7    1  0.5329250E-013  0.5052886E+02  0.7816164E-02  0.1300439E+00
        -11   -1    0    0    0    0  0.00000000000E+00  0.00000000000E+00  0.45593999997E+02  0.45594000000E+02  0.51100000000E-03 0.  1.
         11   -1    0    0    0    0 -0.00000000000E+00 -0.00000000000E+00 -0.45593999997E+02  0.45594000000E+02  0.51100000000E-03 0. -1.
    9900012    2    1    2    0    0  0.10000991423E+01 -0.38377502426E+02  0.13391532743E+02  0.50528855395E+02  0.29999986460E+02 0.  0.
         12    1    1    2    0    0 -0.10000991423E+01  0.38377502426E+02 -0.13391532743E+02  0.40659144605E+02  0.00000000000E+00 0. -1.
         11    1    3    3    0    0 -0.58263026857E+00  0.28465052109E+01  0.10550696914E+01  0.30911522545E+01  0.51100000000E-03 0.  1.
        -11    1    3    3    0    0 -0.74744099030E+01 -0.18711287420E+02  0.11406520456E+02  0.23153569692E+02  0.51100000000E-03 0. -1.
        -12    1    3    3    0    0  0.90571393138E+01 -0.22512720217E+02  0.92994259558E+00  0.24284133449E+02  0.00000000000E+00 0.  1.
</event>
<event>
 7    1  0.5329250E-013  0.5052886E+02  0.7816164E-02  0.1300439E+00
        -11   -1    0    0    0    0  0.00000000000E+00  0.00000000000E+00  0.45593999997E+02  0.45594000000E+02  0.51100000000E-03 0.  1.
         11   -1    0    0    0    0 -0.00000000000E+00 -0.00000000000E+00 -0.45593999997E+02  0.45594000000E+02  0.51100000000E-03 0. -1.
    9900012    2    1    2    0    0 -0.26858206015E+02 -0.29881179195E+02  0.62383714916E+01  0.50528863520E+02  0.30000011155E+02 0.  0.
         12    1    1    2    0    0  0.26858206015E+02  0.29881179195E+02 -0.62383714916E+01  0.40659136480E+02  0.00000000000E+00 0. -1.
         11    1    3    3    0    0 -0.19215740486E+02 -0.91500386344E+01  0.67606388690E+01  0.22331012686E+02  0.51100000000E-03 0. -1.
        -11    1    3    3    0    0 -0.27581546532E+01 -0.19847022828E+02  0.51214377420E+01  0.20681896844E+02  0.51100000000E-03 0.  1.
         12    1    3    3    0    0 -0.48843108765E+01 -0.88411773225E+00 -0.56437051194E+01  0.75159539899E+01  0.00000000000E+00 0. -1.
</event>
<event>
 7    1  0.5329250E-013  0.5052888E+02  0.7816164E-02  0.1300439E+00
        -11   -1    0    0    0    0  0.00000000000E+00  0.00000000000E+00  0.45593999997E+02  0.45594000000E+02  0.51100000000E-03 0. -1.
         11   -1    0    0    0    0 -0.00000000000E+00 -0.00000000000E+00 -0.45593999997E+02  0.45594000000E+02  0.51100000000E-03 0.  1.
    9900012    2    1    2    0    0  0.28890502906E+02 -0.17756659783E+02  0.22432200597E+02  0.50528883575E+02  0.30000072116E+02 0.  0.
         12    1    1    2    0    0 -0.28890502906E+02  0.17756659783E+02 -0.22432200597E+02  0.40659116425E+02  0.00000000000E+00 0. -1.
         11    1    3    3    0    0  0.86176254237E+01  0.25754899577E-01  0.48794588601E+01  0.99031939437E+01  0.51100000000E-03 0. -1.
        -11    1    3    3    0    0 -0.33997924924E+01  0.32412326417E+01  0.66904441131E+00  0.47446600210E+01  0.51100000000E-03 0.  1.
        -12    1    3    3    0    0  0.23672669975E+02 -0.21023647325E+02  0.16883697325E+02  0.35881029611E+02  0.00000000000E+00 0.  1.
</event>
<event>
 7    1  0.5329250E-013  0.5052886E+02  0.7816164E-02  0.1300439E+00
        -11   -1    0    0    0    0  0.00000000000E+00  0.00000000000E+00  0.45593999997E+02  0.45594000000E+02  0.51100000000E-03 0.  1.
         11   -1    0    0    0    0 -0.00000000000E+00 -0.00000000000E+00 -0.45593999997E+02  0.45594000000E+02  0.51100000000E-03 0. -1.
    9900012    2    1    2    0    0 -0.62743273405E+01 -0.40149716388E+02 -0.13411007003E+01  0.50528862519E+02  0.30000008114E+02 0.  0.
         12    1    1    2    0    0  0.62743273405E+01  0.40149716388E+02  0.13411007003E+01  0.40659137481E+02  0.00000000000E+00 0. -1.
         11    1    3    3    0    0  0.57802847565E+01 -0.19727733548E+02 -0.65843492931E+00  0.20567661502E+02  0.51100000000E-03 0. -1.
        -11    1    3    3    0    0 -0.38475734467E+01 -0.18459270019E+02 -0.62347729167E+01  0.19860031839E+02  0.51100000000E-03 0.  1.
         12    1    3    3    0    0 -0.82070386503E+01 -0.19627128205E+01  0.55521071457E+01  0.10101169179E+02  0.00000000000E+00 0. -1.
</event>
<event>
 7    1  0.5329250E-013  0.5052885E+02  0.7816164E-02  0.1300439E+00
        -11   -1    0    0    0    0  0.00000000000E+00  0.00000000000E+00  0.45593999997E+02  0.45594000000E+02  0.51100000000E-03 0.  1.
         11   -1    0    0    0    0 -0.00000000000E+00 -0.00000000000E+00 -0.45593999997E+02  0.45594000000E+02  0.51100000000E-03 0. -1.
    9900012    2    1    2    0    0 -0.69190297308E+01  0.25338972569E+02  0.31035940772E+02  0.50528854376E+02  0.29999983361E+02 0.  0.
         12    1    1    2    0    0  0.69190297308E+01 -0.25338972569E+02 -0.31035940772E+02  0.40659145624E+02  0.00000000000E+00 0. -1.
         11    1    3    3    0    0 -0.13382946224E+01 -0.12044832175E+01  0.16453711108E+02  0.16551931060E+02  0.51100000000E-03 0. -1.
        -11    1    3    3    0    0 -0.82705874632E+01  0.72263443929E+01  0.34093609694E+01  0.11499844032E+02  0.51100000000E-03 0.  1.
        -12    1    3    3    0    0  0.26898523548E+01  0.19317111393E+02  0.11172868695E+02  0.22477079284E+02  0.00000000000E+00 0.  1.
</event>
<event>
 7    1  0.5329250E-013  0.5052883E+02  0.7816164E-02  0.1300439E+00
        -11   -1    0    0    0    0  0.00000000000E+00  0.00000000000E+00  0.45593999997E+02  0.45594000000E+02  0.51100000000E-03 0.  1.
         11   -1    0    0    0    0 -0.00000000000E+00 -0.00000000000E+00 -0.45593999997E+02  0.45594000000E+02  0.51100000000E-03 0. -1.
    9900012    2    1    2    0    0 -0.72397991943E+01 -0.91710914682E+01  0.38944118984E+02  0.50528831113E+02  0.29999912652E+02 0.  0.
         12    1    1    2    0    0  0.72397991943E+01  0.91710914682E+01 -0.38944118984E+02  0.40659168887E+02  0.00000000000E+00 0. -1.
         11    1    3    3    0    0 -0.33934254364E+01 -0.12248512882E+02  0.47198611538E+01  0.13557967900E+02  0.51100000000E-03 0. -1.
        -11    1    3    3    0    0 -0.66426449546E+00  0.59759381145E+01  0.62698270217E+01  0.86869911253E+01  0.51100000000E-03 0.  1.
        -12    1    3    3    0    0 -0.31821092624E+01 -0.28985167005E+01  0.27954430809E+02  0.28283872088E+02  0.00000000000E+00 0.  1.
</event>
<event>
 7    1  0.5329250E-013  0.5052887E+02  0.7816164E-02  0.1300439E+00
        -11   -1    0    0    0    0  0.00000000000E+00  0.00000000000E+00  0.45593999997E+02  0.45594000000E+02  0.51100000000E-03 0. -1.
         11   -1    0    0    0    0 -0.00000000000E+00 -0.00000000000E+00 -0.45593999997E+02  0.45594000000E+02  0.51100000000E-03 0.  1.
    9900012    2    1    2    0    0  0.33055244051E+01 -0.38408599585E+02 -0.12923551729E+02  0.50528865688E+02  0.30000017746E+02 0.  0.
         12    1    1    2    0    0 -0.33055244051E+01  0.38408599585E+02  0.12923551729E+02  0.40659134312E+02  0.00000000000E+00 0. -1.
         11    1    3    3    0    0  0.23517986437E+01 -0.87752214407E+01 -0.10927307910E+01  0.91503840923E+01  0.51100000000E-03 0. -1.
        -11    1    3    3    0    0 -0.10655826066E+02 -0.15677029997E+02  0.12592854924E+01  0.18997412953E+02  0.51100000000E-03 0.  1.
         12    1    3    3    0    0  0.11609551827E+02 -0.13956348147E+02 -0.13090106431E+02  0.22381068643E+02  0.00000000000E+00 0. -1.
</event>
<event>
 7    1  0.5329250E-013  0.5052886E+02  0.7816164E-02  0.1300439E+00
        -11   -1    0    0    0    0  0.00000000000E+00  0.00000000000E+00  0.45593999997E+02  0.45594000000E+02  0.51100000000E-03 0. -1.
         11   -1    0    0    0    0 -0.00000000000E+00 -0.00000000000E+00 -0.45593999997E+02  0.45594000000E+02  0.51100000000E-03 0.  1.
    9900012    2    1    2    0    0  0.26301591053E+02  0.13058207598E+02 -0.28122506176E+02  0.50528857963E+02  0.29999994263E+02 0.  0.
         12    1    1    2    0    0 -0.26301591053E+02 -0.13058207598E+02  0.28122506176E+02  0.40659142037E+02  0.00000000000E+00 0. -1.
         11    1    3    3    0    0  0.17241977162E+02  0.55958937895E+01 -0.13388446341E+02  0.22535534151E+02  0.51100000000E-03 0. -1.
        -11    1    3    3    0    0  0.70235426935E+01  0.80498579876E+01 -0.19802095931E+02  0.22500074869E+02  0.51100000000E-03 0.  1.
         12    1    3    3    0    0  0.20360711968E+01 -0.58754417884E+00  0.50680360959E+01  0.54932489430E+01  0.00000000000E+00 0. -1.
</event>
<event>
 7    1  0.5329250E-013  0.5052886E+02  0.7816164E-02  0.1300439E+00
        -11   -1    0    0    0    0  0.00000000000E+00  0.00000000000E+00  0.45593999997E+02  0.45594000000E+02  0.51100000000E-03 0. -1.
         11   -1    0    0    0    0 -0.00000000000E+00 -0.00000000000E+00 -0.45593999997E+02  0.45594000000E+02  0.51100000000E-03 0.  1.
    9900012    2    1    2    0    0 -0.28798477055E+02 -0.17861992162E+02  0.22466918957E+02  0.50528862133E+02  0.30000006939E+02 0.  0.
         12    1    1    2    0    0  0.28798477055E+02  0.17861992162E+02 -0.22466918957E+02  0.40659137867E+02  0.00000000000E+00 0. -1.
         11    1    3    3    0    0 -0.93006999683E+00  0.10405420351E+01  0.12396584438E+02  0.12474897351E+02  0.51100000000E-03 0. -1.
        -11    1    3    3    0    0 -0.13864247320E+02 -0.49513801598E+01  0.10823127101E+02  0.18272208398E+02  0.51100000000E-03 0.  1.
        -12    1    3    3    0    0 -0.14004159738E+02 -0.13951154037E+02 -0.75279258240E+00  0.19781756383E+02  0.00000000000E+00 0.  1.
</event>
<event>
 7    1  0.5329250E-013  0.5052886E+02  0.7816164E-02  0.1300439E+00
        -11   -1    0    0    0    0  0.00000000000E+00  0.00000000000E+00  0.45593999997E+02  0.45594000000E+02  0.51100000000E-03 0.  1.
         11   -1    0    0    0    0 -0.00000000000E+00 -0.00000000000E+00 -0.45593999997E+02  0.45594000000E+02  0.51100000000E-03 0. -1.
    9900012    2    1    2    0    0  0.86504567934E+01  0.29243342159E+02  0.26891668233E+02  0.50528864695E+02  0.30000014728E+02 0.  0.
         12    1    1    2    0    0 -0.86504567934E+01 -0.29243342159E+02 -0.26891668233E+02  0.40659135305E+02  0.00000000000E+00 0. -1.
         11    1    3    3    0    0  0.67043501615E+01 -0.14571000876E+01  0.84989007908E+00  0.69133034912E+01  0.51100000000E-03 0. -1.
        -11    1    3    3    0    0 -0.50155824567E+01  0.34295188109E+01  0.14653022542E+01  0.62501822062E+01  0.51100000000E-03 0.  1.
        -12    1    3    3    0    0  0.69616890886E+01  0.27270923435E+02  0.24576475900E+02  0.37365378998E+02  0.00000000000E+00 0.  1.
</event>
<event>
 7    1  0.5329250E-013  0.5052887E+02  0.7816164E-02  0.1300439E+00
        -11   -1    0    0    0    0  0.00000000000E+00  0.00000000000E+00  0.45593999997E+02  0.45594000000E+02  0.51100000000E-03 0.  1.
         11   -1    0    0    0    0 -0.00000000000E+00 -0.00000000000E+00 -0.45593999997E+02  0.45594000000E+02  0.51100000000E-03 0. -1.
    9900012    2    1    2    0    0 -0.17073584013E+02  0.24296860418E+02  0.27772657321E+02  0.50528865825E+02  0.30000018162E+02 0.  0.
         12    1    1    2    0    0  0.17073584013E+02 -0.24296860418E+02 -0.27772657321E+02  0.40659134175E+02  0.00000000000E+00 0. -1.
         11    1    3    3    0    0  0.31915030715E+01  0.77482374965E+00  0.54059929151E+01  0.63254093431E+01  0.51100000000E-03 0. -1.
        -11    1    3    3    0    0 -0.85259538982E+01  0.14425724770E+02  0.23991326652E+02  0.29263922837E+02  0.51100000000E-03 0.  1.
         12    1    3    3    0    0 -0.11739133186E+02  0.90963118980E+01 -0.16246622467E+01  0.14939533645E+02  0.00000000000E+00 0. -1.
</event>
<event>
 7    1  0.5329250E-013  0.5052885E+02  0.7816164E-02  0.1300439E+00
        -11   -1    0    0    0    0  0.00000000000E+00  0.00000000000E+00  0.45593999997E+02  0.45594000000E+02  0.51100000000E-03 0. -1.
         11   -1    0    0    0    0 -0.00000000000E+00 -0.00000000000E+00 -0.45593999997E+02  0.45594000000E+02  0.51100000000E-03 0.  1.
    9900012    2    1    2    0    0  0.31414681537E+02 -0.17999055340E+02  0.18501845886E+02  0.50528849610E+02  0.29999968876E+02 0.  0.
         12    1    1    2    0    0 -0.31414681537E+02  0.17999055340E+02 -0.18501845886E+02  0.40659150390E+02  0.00000000000E+00 0. -1.
         11    1    3    3    0    0  0.19418067916E+02 -0.10961169950E+02  0.13779707854E+02  0.26212381751E+02  0.51100000000E-03 0. -1.
        -11    1    3    3    0    0  0.11882672716E+02 -0.11677950349E+02  0.81493440179E+01  0.18546812217E+02  0.51100000000E-03 0.  1.
         12    1    3    3    0    0  0.11394090542E+00  0.46400649591E+01 -0.34272059865E+01  0.57696556421E+01  0.00000000000E+00 0. -1.
</event>
<event>
 7    1  0.5329250E-013  0.5052886E+02  0.7816164E-02  0.1300439E+00
        -11   -1    0    0    0    0  0.00000000000E+00  0.00000000000E+00  0.45593999997E+02  0.45594000000E+02  0.51100000000E-03 0.  1.
         11   -1    0    0    0    0 -0.00000000000E+00 -0.00000000000E+00 -0.45593999997E+02  0.45594000000E+02  0.51100000000E-03 0. -1.
    9900012    2    1    2    0    0 -0.29426163228E+02  0.27677257500E+02  0.46082865055E+01  0.50528856261E+02  0.29999989091E+02 0.  0.
         12    1    1    2    0    0  0.29426163228E+02 -0.27677257500E+02 -0.46082865055E+01  0.40659143739E+02  0.00000000000E+00 0. -1.
         11    1    3    3    0    0 -0.40802218234E+01 -0.32158758862E+01 -0.34021361918E+01  0.62100401587E+01  0.51100000000E-03 0. -1.
        -11    1    3    3    0    0 -0.91255437869E+01  0.90890337116E+01 -0.54582876590E+01  0.13988530575E+02  0.51100000000E-03 0.  1.
        -12    1    3    3    0    0 -0.16220397617E+02  0.21804099675E+02  0.13468710356E+02  0.30330285527E+02  0.00000000000E+00 0.  1.
</event>
<event>
 7    1  0.5329250E-013  0.5052885E+02  0.7816164E-02  0.1300439E+00
        -11   -1    0    0    0    0  0.00000000000E+00  0.00000000000E+00  0.45593999997E+02  0.45594000000E+02  0.51100000000E-03 0.  1.
         11   -1    0    0    0    0 -0.00000000000E+00 -0.00000000000E+00 -0.45593999997E+02  0.45594000000E+02  0.51100000000E-03 0. -1.
    9900012    2    1    2    0    0 -0.14722407703E+02 -0.25333539267E+02  0.28189163669E+02  0.50528850369E+02  0.29999971183E+02 0.  0.
         12    1    1    2    0    0  0.14722407703E+02  0.25333539267E+02 -0.28189163669E+02  0.40659149631E+02  0.00000000000E+00 0. -1.
         11    1    3    3    0    0  0.67912179947E+01 -0.77504898528E+01  0.11764369604E+02  0.15639409427E+02  0.51100000000E-03 0. -1.
        -11    1    3    3    0    0 -0.38647547202E+01 -0.95476316738E+01  0.10267011955E+02  0.14543216094E+02  0.51100000000E-03 0.  1.
        -12    1    3    3    0    0 -0.17648870977E+02 -0.80354177399E+01  0.61577821106E+01  0.20346224848E+02  0.00000000000E+00 0.  1.
</event>
<event>
 7    1  0.5329250E-013  0.5052886E+02  0.7816164E-02  0.1300439E+00
        -11   -1    0    0    0    0  0.00000000000E+00  0.00000000000E+00  0.45593999997E+02  0.45594000000E+02  0.51100000000E-03 0. -1.
         11   -1    0    0    0    0 -0.00000000000E+00 -0.00000000000E+00 -0.45593999997E+02  0.45594000000E+02  0.51100000000E-03 0.  1.
    9900012    2    1    2    0    0  0.32878477866E+02 -0.89970157124E+01 -0.22163593265E+02  0.50528862467E+02  0.30000007955E+02 0.  0.
         12    1    1    2    0    0 -0.32878477866E+02  0.89970157124E+01  0.22163593265E+02  0.40659137533E+02  0.00000000000E+00 0. -1.
         11    1    3    3    0    0  0.89338137901E+01 -0.18586691882E+01 -0.98695732214E+01  0.13441583085E+02  0.51100000000E-03 0.  1.
        -11    1    3    3    0    0  0.75300455528E+01 -0.77478315864E+01  0.61155743746E+01  0.12414939811E+02  0.51100000000E-03 0. -1.
         12    1    3    3    0    0  0.16414618523E+02  0.60948506227E+00 -0.18409594418E+02  0.24672339572E+02  0.00000000000E+00 0. -1.
</event>
<event>
 7    1  0.5329250E-013  0.5052886E+02  0.7816164E-02  0.1300439E+00
        -11   -1    0    0    0    0  0.00000000000E+00  0.00000000000E+00  0.45593999997E+02  0.45594000000E+02  0.51100000000E-03 0. -1.
         11   -1    0    0    0    0 -0.00000000000E+00 -0.00000000000E+00 -0.45593999997E+02  0.45594000000E+02  0.51100000000E-03 0.  1.
    9900012    2    1    2    0    0  0.33945550540E+02 -0.45509833707E+01 -0.21912419912E+02  0.50528855917E+02  0.29999988047E+02 0.  0.
         12    1    1    2    0    0 -0.33945550540E+02  0.45509833707E+01  0.21912419912E+02  0.40659144083E+02  0.00000000000E+00 0. -1.
         11    1    3    3    0    0  0.16648173055E+02  0.59327531026E+01 -0.18163618110E+02  0.25343169663E+02  0.51100000000E-03 0. -1.
        -11    1    3    3    0    0  0.14663243948E+02 -0.14161747233E+01 -0.52207594527E+01  0.15629222740E+02  0.51100000000E-03 0.  1.
         12    1    3    3    0    0  0.26341335368E+01 -0.90675617500E+01  0.14719576508E+01  0.95564635146E+01  0.00000000000E+00 0. -1.
</event>
<event>
 7    1  0.5329250E-013  0.5052886E+02  0.7816164E-02  0.1300439E+00
        -11   -1    0    0    0    0  0.00000000000E+00  0.00000000000E+00  0.45593999997E+02  0.45594000000E+02  0.51100000000E-03 0.  1.
         11   -1    0    0    0    0 -0.00000000000E+00 -0.00000000000E+00 -0.45593999997E+02  0.45594000000E+02  0.51100000000E-03 0. -1.
    9900012    2    1    2    0    0  0.82618213550E+01  0.19937160415E+02  0.34458930358E+02  0.50528856638E+02  0.29999990236E+02 0.  0.
         12    1    1    2    0    0 -0.82618213550E+01 -0.19937160415E+02 -0.34458930358E+02  0.40659143362E+02  0.00000000000E+00 0. -1.
         11    1    3    3    0    0  0.20111225766E+01  0.11597277639E+02 -0.12679396440E+01  0.11838459944E+02  0.51100000000E-03 0.  1.
        -11    1    3    3    0    0  0.16004382441E+01 -0.24367945172E+01  0.48608662660E+01  0.56681029639E+01  0.51100000000E-03 0. -1.
        -12    1    3    3    0    0  0.46502605343E+01  0.10776677294E+02  0.30866003736E+02  0.33022293730E+02  0.00000000000E+00 0.  1.
</event>
<event>
 7    1  0.5329250E-013  0.5052885E+02  0.7816164E-02  0.1300439E+00
        -11   -1    0    0    0    0  0.00000000000E+00  0.00000000000E+00  0.45593999997E+02  0.45594000000E+02  0.51100000000E-03 0.  1.
         11   -1    0    0    0    0 -0.00000000000E+00 -0.00000000000E+00 -0.45593999997E+02  0.45594000000E+02  0.51100000000E-03 0. -1.
    9900012    2    1    2    0    0 -0.26582568040E+02  0.81650855030E+01  0.29662511308E+02  0.50528854387E+02  0.29999983395E+02 0.  0.
         12    1    1    2    0    0  0.26582568040E+02 -0.81650855030E+01 -0.29662511308E+02  0.40659145613E+02  0.00000000000E+00 0. -1.
         11    1    3    3    0    0 -0.42764691611E+01  0.54828092651E+01  0.54521581881E+01  0.88360293737E+01  0.51100000000E-03 0. -1.
        -11    1    3    3    0    0 -0.66465610356E+01  0.94099703453E+01  0.21559211081E+02  0.24444301958E+02  0.51100000000E-03 0.  1.
        -12    1    3    3    0    0 -0.15659537844E+02 -0.67276941074E+01  0.26511420384E+01  0.17248523055E+02  0.00000000000E+00 0.  1.
</event>
<event>
 7    1  0.5329250E-013  0.5052887E+02  0.7816164E-02  0.1300439E+00
        -11   -1    0    0    0    0  0.00000000000E+00  0.00000000000E+00  0.45593999997E+02  0.45594000000E+02  0.51100000000E-03 0.  1.
         11   -1    0    0    0    0 -0.00000000000E+00 -0.00000000000E+00 -0.45593999997E+02  0.45594000000E+02  0.51100000000E-03 0. -1.
    9900012    2    1    2    0    0  0.26891486935E+02 -0.96523290236E+01  0.28928284600E+02  0.50528866032E+02  0.30000018791E+02 0.  0.
         12    1    1    2    0    0 -0.26891486935E+02  0.96523290236E+01 -0.28928284600E+02  0.40659133968E+02  0.00000000000E+00 0. -1.
         11    1    3    3    0    0  0.10433117407E+01 -0.58283357863E+01  0.13189642524E+02  0.14457685417E+02  0.51100000000E-03 0. -1.
        -11    1    3    3    0    0  0.14768913296E+02 -0.88046750941E+00  0.19067220622E+02  0.24134102956E+02  0.51100000000E-03 0.  1.
         12    1    3    3    0    0  0.11079261898E+02 -0.29435257278E+01 -0.33285785464E+01  0.11937077659E+02  0.00000000000E+00 0. -1.
</event>
<event>
 7    1  0.5329250E-013  0.5052885E+02  0.7816164E-02  0.1300439E+00
        -11   -1    0    0    0    0  0.00000000000E+00  0.00000000000E+00  0.45593999997E+02  0.45594000000E+02  0.51100000000E-03 0.  1.
         11   -1    0    0    0    0 -0.00000000000E+00 -0.00000000000E+00 -0.45593999997E+02  0.45594000000E+02  0.51100000000E-03 0. -1.
    9900012    2    1    2    0    0 -0.59683251323E+01 -0.39086415544E+02 -0.94761846032E+01  0.50528845316E+02  0.29999955824E+02 0.  0.
         12    1    1    2    0    0  0.59683251323E+01  0.39086415544E+02  0.94761846032E+01  0.40659154684E+02  0.00000000000E+00 0. -1.
         11    1    3    3    0    0  0.35434188656E+01 -0.25573951462E+01  0.24092411708E+01  0.49900431332E+01  0.51100000000E-03 0. -1.
        -11    1    3    3    0    0  0.55584732171E+00  0.28019089699E+01  0.86515305449E+00  0.29846524403E+01  0.51100000000E-03 0.  1.
        -12    1    3    3    0    0 -0.10067591320E+02 -0.39330929367E+02 -0.12750578828E+02  0.42554149743E+02  0.00000000000E+00 0.  1.
</event>
<event>
 7    1  0.5329250E-013  0.5052885E+02  0.7816164E-02  0.1300439E+00
        -11   -1    0    0    0    0  0.00000000000E+00  0.00000000000E+00  0.45593999997E+02  0.45594000000E+02  0.51100000000E-03 0.  1.
         11   -1    0    0    0    0 -0.00000000000E+00 -0.00000000000E+00 -0.45593999997E+02  0.45594000000E+02  0.51100000000E-03 0. -1.
    9900012    2    1    2    0    0  0.25154141401E+02  0.31430952304E+02  0.57035565309E+01  0.50528854049E+02  0.29999982368E+02 0.  0.
         12    1    1    2    0    0 -0.25154141401E+02 -0.31430952304E+02 -0.57035565309E+01  0.40659145951E+02  0.00000000000E+00 0. -1.
         11    1    3    3    0    0  0.12451914302E+02  0.26050071710E+02 -0.79773295939E+01  0.29954869280E+02  0.51100000000E-03 0. -1.
        -11    1    3    3    0    0  0.13511997409E+01 -0.11396928862E+01  0.19318057055E+00  0.17781899810E+01  0.51100000000E-03 0.  1.
        -12    1    3    3    0    0  0.11351027358E+02  0.65205734798E+01  0.13487705554E+02  0.18795794788E+02  0.00000000000E+00 0.  1.
</event>
<event>
 7    1  0.5329250E-013  0.5052886E+02  0.7816164E-02  0.1300439E+00
        -11   -1    0    0    0    0  0.00000000000E+00  0.00000000000E+00  0.45593999997E+02  0.45594000000E+02  0.51100000000E-03 0. -1.
         11   -1    0    0    0    0 -0.00000000000E+00 -0.00000000000E+00 -0.45593999997E+02  0.45594000000E+02  0.51100000000E-03 0.  1.
    9900012    2    1    2    0    0 -0.68249774701E+01  0.31219354019E+02 -0.25138364408E+02  0.50528858987E+02  0.29999997376E+02 0.  0.
         12    1    1    2    0    0  0.68249774701E+01 -0.31219354019E+02  0.25138364408E+02  0.40659141013E+02  0.00000000000E+00 0. -1.
         11    1    3    3    0    0  0.36265990581E+01  0.39867325090E+00 -0.10643791112E+01  0.38005347312E+01  0.51100000000E-03 0. -1.
        -11    1    3    3    0    0  0.38343576750E+01  0.15232990841E+02 -0.19597260617E+02  0.25115710874E+02  0.51100000000E-03 0.  1.
         12    1    3    3    0    0 -0.14285934203E+02  0.15587689927E+02 -0.44767246795E+01  0.21612613382E+02  0.00000000000E+00 0. -1.
</event>
<event>
 7    1  0.5329250E-013  0.5052886E+02  0.7816164E-02  0.1300439E+00
        -11   -1    0    0    0    0  0.00000000000E+00  0.00000000000E+00  0.45593999997E+02  0.45594000000E+02  0.51100000000E-03 0.  1.
         11   -1    0    0    0    0 -0.00000000000E+00 -0.00000000000E+00 -0.45593999997E+02  0.45594000000E+02  0.51100000000E-03 0. -1.
    9900012    2    1    2    0    0 -0.33241441899E+02  0.23192005684E+02  0.32097987855E+01  0.50528863322E+02  0.30000010554E+02 0.  0.
         12    1    1    2    0    0  0.33241441899E+02 -0.23192005684E+02 -0.32097987855E+01  0.40659136678E+02  0.00000000000E+00 0. -1.
         11    1    3    3    0    0 -0.11193018968E+02  0.14088212077E+02 -0.17264641452E+00  0.17994199070E+02  0.51100000000E-03 0. -1.
        -11    1    3    3    0    0 -0.14324707619E+02  0.10082874599E+02  0.11759365198E+02  0.21098442565E+02  0.51100000000E-03 0.  1.
         12    1    3    3    0    0 -0.77237153124E+01 -0.97908099225E+00 -0.83769199982E+01  0.11436221687E+02  0.00000000000E+00 0. -1.
</event>
<event>
 7    1  0.5329250E-013  0.5052885E+02  0.7816164E-02  0.1300439E+00
        -11   -1    0    0    0    0  0.00000000000E+00  0.00000000000E+00  0.45593999997E+02  0.45594000000E+02  0.51100000000E-03 0.  1.
         11   -1    0    0    0    0 -0.00000000000E+00 -0.00000000000E+00 -0.45593999997E+02  0.45594000000E+02  0.51100000000E-03 0. -1.
    9900012    2    1    2    0    0  0.12052276218E+02 -0.35992601057E+02  0.14575389714E+02  0.50528847547E+02  0.29999962604E+02 0.  0.
         12    1    1    2    0    0 -0.12052276218E+02  0.35992601057E+02 -0.14575389714E+02  0.40659152453E+02  0.00000000000E+00 0. -1.
         11    1    3    3    0    0 -0.62956435834E+00  0.13013172605E+01 -0.81173564472E+00  0.16579182464E+01  0.51100000000E-03 0. -1.
        -11    1    3    3    0    0  0.15762595730E+02 -0.97251241261E+01  0.79164832140E+01  0.20142198742E+02  0.51100000000E-03 0.  1.
         12    1    3    3    0    0 -0.30807551531E+01 -0.27568794191E+02  0.74706421444E+01  0.28728730559E+02  0.00000000000E+00 0. -1.
</event>
<event>
 7    1  0.5329250E-013  0.5052886E+02  0.7816164E-02  0.1300439E+00
        -11   -1    0    0    0    0  0.00000000000E+00  0.00000000000E+00  0.45593999997E+02  0.45594000000E+02  0.51100000000E-03 0. -1.
         11   -1    0    0    0    0 -0.00000000000E+00 -0.00000000000E+00 -0.45593999997E+02  0.45594000000E+02  0.51100000000E-03 0.  1.
    9900012    2    1    2    0    0  0.29355032370E+02  0.80002294785E+01 -0.26971167841E+02  0.50528862136E+02  0.30000006949E+02 0.  0.
         12    1    1    2    0    0 -0.29355032370E+02 -0.80002294785E+01  0.26971167841E+02  0.40659137864E+02  0.00000000000E+00 0. -1.
         11    1    3    3    0    0  0.23983706484E+02  0.59229524227E+01 -0.10326804591E+02  0.26775780762E+02  0.51100000000E-03 0.  1.
        -11    1    3    3    0    0  0.78535746186E+01 -0.49880510184E+01 -0.76181659631E+01  0.12024796886E+02  0.51100000000E-03 0. -1.
        -12    1    3    3    0    0 -0.24822487327E+01  0.70653280742E+01 -0.90261972870E+01  0.11728284488E+02  0.00000000000E+00 0.  1.
</event>
<event>
 7    1  0.5329250E-013  0.5052885E+02  0.7816164E-02  0.1300439E+00
        -11   -1    0    0    0    0  0.00000000000E+00  0.00000000000E+00  0.45593999997E+02  0.45594000000E+02  0.51100000000E-03 0.  1.
         11   -1    0    0    0    0 -0.00000000000E+00 -0.00000000000E+00 -0.45593999997E+02  0.45594000000E+02  0.51100000000E-03 0. -1.
    9900012    2    1    2    0    0  0.39205632756E+02 -0.26466262050E+01  0.10444135559E+02  0.50528852964E+02  0.29999979071E+02 0.  0.
         12    1    1    2    0    0 -0.39205632756E+02  0.26466262050E+01 -0.10444135559E+02  0.40659147036E+02  0.00000000000E+00 0. -1.
         11    1    3    3    0    0 -0.24480698002E+01  0.97354560981E+00 -0.20303305961E+01  0.33261207722E+01  0.51100000000E-03 0. -1.
        -11    1    3    3    0    0  0.22489999061E+02 -0.68303913458E+01 -0.10513290327E+01  0.23527847260E+02  0.51100000000E-03 0.  1.
        -12    1    3    3    0    0  0.19163703496E+02  0.32102195310E+01  0.13525795187E+02  0.23674884932E+02  0.00000000000E+00 0.  1.
</event>
<event>
 7    1  0.5329250E-013  0.5052886E+02  0.7816164E-02  0.1300439E+00
        -11   -1    0    0    0    0  0.00000000000E+00  0.00000000000E+00  0.45593999997E+02  0.45594000000E+02  0.51100000000E-03 0. -1.
         11   -1    0    0    0    0 -0.00000000000E+00 -0.00000000000E+00 -0.45593999997E+02  0.45594000000E+02  0.51100000000E-03 0.  1.
    9900012    2    1    2    0    0 -0.18344338242E+02  0.36179863889E+02 -0.27691702247E+01  0.50528860803E+02  0.30000002896E+02 0.  0.
         12    1    1    2    0    0  0.18344338242E+02 -0.36179863889E+02  0.27691702247E+01  0.40659139197E+02  0.00000000000E+00 0. -1.
         11    1    3    3    0    0  0.97313324402E+00  0.40605381491E+01 -0.58004709296E+01  0.71470568514E+01  0.51100000000E-03 0. -1.
        -11    1    3    3    0    0 -0.14593271839E+02  0.34876011031E+02  0.26579396285E+01  0.37899398039E+02  0.51100000000E-03 0.  1.
         12    1    3    3    0    0 -0.47241996471E+01 -0.27566852910E+01  0.37336107641E+00  0.54824059128E+01  0.00000000000E+00 0. -1.
</event>
<event>
 7    1  0.5329250E-013  0.5052884E+02  0.7816164E-02  0.1300439E+00
        -11   -1    0    0    0    0  0.00000000000E+00  0.00000000000E+00  0.45593999997E+02  0.45594000000E+02  0.51100000000E-03 0.  1.
         11   -1    0    0    0    0 -0.00000000000E+00 -0.00000000000E+00 -0.45593999997E+02  0.45594000000E+02  0.51100000000E-03 0. -1.
    9900012    2    1    2    0    0  0.40248503214E+02 -0.47509789619E+01  0.32639633192E+01  0.50528840286E+02  0.29999940534E+02 0.  0.
         12    1    1    2    0    0 -0.40248503214E+02  0.47509789619E+01 -0.32639633192E+01  0.40659159714E+02  0.00000000000E+00 0. -1.
         11    1    3    3    0    0  0.31081048217E+02 -0.50034210210E+01 -0.35640539152E+01  0.31682302012E+02  0.51100000000E-03 0. -1.
        -11    1    3    3    0    0  0.21539089329E+01 -0.27000327626E+01 -0.42063251253E+01  0.54426713966E+01  0.51100000000E-03 0.  1.
        -12    1    3    3    0    0  0.70135460639E+01  0.29524748216E+01  0.11034342360E+02  0.13403866878E+02  0.00000000000E+00 0.  1.
</event>
<event>
 7    1  0.5329250E-013  0.5052886E+02  0.7816164E-02  0.1300439E+00
        -11   -1    0    0    0    0  0.00000000000E+00  0.00000000000E+00  0.45593999997E+02  0.45594000000E+02  0.51100000000E-03 0. -1.
         11   -1    0    0    0    0 -0.00000000000E+00 -0.00000000000E+00 -0.45593999997E+02  0.45594000000E+02  0.51100000000E-03 0.  1.
    9900012    2    1    2    0    0 -0.15653066276E+02  0.14503609814E+02 -0.34609135043E+02  0.50528863143E+02  0.30000010011E+02 0.  0.
         12    1    1    2    0    0  0.15653066276E+02 -0.14503609814E+02  0.34609135043E+02  0.40659136857E+02  0.00000000000E+00 0. -1.
         11    1    3    3    0    0 -0.14670948349E+01  0.11866945659E+02 -0.18627610715E+02  0.22135145081E+02  0.51100000000E-03 0. -1.
        -11    1    3    3    0    0 -0.61867876245E+01  0.53024448221E+01  0.21246244094E+01  0.84205873515E+01  0.51100000000E-03 0.  1.
        -12    1    3    3    0    0 -0.79991838164E+01 -0.26657806671E+01 -0.18106148738E+02  0.19973130711E+02  0.00000000000E+00 0.  1.
</event>
<event>
 7    1  0.5329250E-013  0.5052885E+02  0.7816164E-02  0.1300439E+00
        -11   -1    0    0    0    0  0.00000000000E+00  0.00000000000E+00  0.45593999997E+02  0.45594000000E+02  0.51100000000E-03 0. -1.
         11   -1    0    0    0    0 -0.00000000000E+00 -0.00000000000E+00 -0.45593999997E+02  0.45594000000E+02  0.51100000000E-03 0.  1.
    9900012    2    1    2    0    0 -0.30127342160E+02 -0.25332254818E+02 -0.10187556298E+02  0.50528853635E+02  0.29999981110E+02 0.  0.
         12    1    1    2    0    0  0.30127342160E+02  0.25332254818E+02  0.10187556298E+02  0.40659146365E+02  0.00000000000E+00 0. -1.
         11    1    3    3    0    0 -0.73186208329E+01 -0.12974144968E+02 -0.44776241331E+01  0.15554413094E+02  0.51100000000E-03 0.  1.
        -11    1    3    3    0    0 -0.25173432989E+02 -0.14718183562E+02 -0.87630300974E+01  0.30448601817E+02  0.51100000000E-03 0. -1.
         12    1    3    3    0    0  0.23647116621E+01  0.23600737129E+01  0.30530979326E+01  0.45258387246E+01  0.00000000000E+00 0. -1.
</event>
<event>
 7    1  0.5329250E-013  0.5052885E+02  0.7816164E-02  0.1300439E+00
        -11   -1    0    0    0    0  0.00000000000E+00  0.00000000000E+00  0.45593999997E+02  0.45594000000E+02  0.51100000000E-03 0. -1.
         11   -1    0    0    0    0 -0.00000000000E+00 -0.00000000000E+00 -0.45593999997E+02  0.45594000000E+02  0.51100000000E-03 0.  1.
    9900012    2    1    2    0    0  0.37234061182E+02  0.21464806040E+01  0.16192082987E+02  0.50528852904E+02  0.29999978887E+02 0.  0.
         12    1    1    2    0    0 -0.37234061182E+02 -0.21464806040E+01 -0.16192082987E+02  0.40659147096E+02  0.00000000000E+00 0. -1.
         11    1    3    3    0    0  0.42784105073E+01 -0.29718680396E+00  0.14289150951E+02  0.14918879034E+02  0.51100000000E-03 0. -1.
        -11    1    3    3    0    0  0.25283022499E+02 -0.23644031742E+00  0.67206603766E+01  0.26162079559E+02  0.51100000000E-03 0.  1.
        -12    1    3    3    0    0  0.76726281765E+01  0.26801077254E+01 -0.48177283405E+01  0.94478943112E+01  0.00000000000E+00 0.  1.
</event>
<event>
 7    1  0.5329250E-013  0.5052884E+02  0.7816164E-02  0.1300439E+00
        -11   -1    0    0    0    0  0.00000000000E+00  0.00000000000E+00  0.45593999997E+02  0.45594000000E+02  0.51100000000E-03 0.  1.
         11   -1    0    0    0    0 -0.00000000000E+00 -0.00000000000E+00 -0.45593999997E+02  0.45594000000E+02  0.51100000000E-03 0. -1.
    9900012    2    1    2    0    0  0.86304240647E+01 -0.11783194585E+02  0.37945211454E+02  0.50528844002E+02  0.29999951829E+02 0.  0.
         12    1    1    2    0    0 -0.86304240647E+01  0.11783194585E+02 -0.37945211454E+02  0.40659155998E+02  0.00000000000E+00 0. -1.
         11    1    3    3    0    0  0.11915404532E+01 -0.17047660629E+01 -0.10981583632E+01  0.23520093606E+01  0.51100000000E-03 0. -1.
        -11    1    3    3    0    0 -0.93367863032E+01 -0.18524397993E+01  0.14082240228E+02  0.16997546934E+02  0.51100000000E-03 0.  1.
        -12    1    3    3    0    0  0.16775669915E+02 -0.82259887225E+01  0.24961129590E+02  0.31179287707E+02  0.00000000000E+00 0.  1.
</event>
<event>
 7    1  0.5329250E-013  0.5052885E+02  0.7816164E-02  0.1300439E+00
        -11   -1    0    0    0    0  0.00000000000E+00  0.00000000000E+00  0.45593999997E+02  0.45594000000E+02  0.51100000000E-03 0.  1.
         11   -1    0    0    0    0 -0.00000000000E+00 -0.00000000000E+00 -0.45593999997E+02  0.45594000000E+02  0.51100000000E-03 0. -1.
    9900012    2    1    2    0    0  0.70478425993E+01  0.36615879917E+02  0.16210244784E+02  0.50528846254E+02  0.29999958674E+02 0.  0.
         12    1    1    2    0    0 -0.70478425993E+01 -0.36615879917E+02 -0.16210244784E+02  0.40659153746E+02  0.00000000000E+00 0. -1.
         11    1    3    3    0    0  0.11375861540E+01  0.14834751866E+02  0.11196920295E+02  0.18620821398E+02  0.51100000000E-03 0. -1.
        -11    1    3    3    0    0 -0.12414399371E+00  0.24741044498E+02  0.32073587965E+01  0.24948383621E+02  0.51100000000E-03 0.  1.
         12    1    3    3    0    0  0.60344004390E+01 -0.29599164475E+01  0.18059656922E+01  0.69596412347E+01  0.00000000000E+00 0. -1.
</event>
<event>
 7    1  0.5329250E-013  0.5052885E+02  0.7816164E-02  0.1300439E+00
        -11   -1    0    0    0    0  0.00000000000E+00  0.00000000000E+00  0.45593999997E+02  0.45594000000E+02  0.51100000000E-03 0.  1.
         11   -1    0    0    0    0 -0.00000000000E+00 -0.00000000000E+00 -0.45593999997E+02  0.45594000000E+02  0.51100000000E-03 0. -1.
    9900012    2    1    2    0    0 -0.14514747382E+02 -0.11344344367E+02  0.36246305626E+02  0.50528847129E+02  0.29999961333E+02 0.  0.
         12    1    1    2    0    0  0.14514747382E+02  0.11344344367E+02 -0.36246305626E+02  0.40659152871E+02  0.00000000000E+00 0. -1.
         11    1    3    3    0    0 -0.31056142107E+01 -0.10450078823E+02  0.10141110884E+02  0.14889295391E+02  0.51100000000E-03 0. -1.
        -11    1    3    3    0    0 -0.15355756636E+02 -0.70916295986E+01  0.18014663370E+02  0.24710697457E+02  0.51100000000E-03 0.  1.
         12    1    3    3    0    0  0.39466234651E+01  0.61973640545E+01  0.80905313721E+01  0.10928854280E+02  0.00000000000E+00 0. -1.
</event>
<event>
 7    1  0.5329250E-013  0.5052886E+02  0.7816164E-02  0.1300439E+00
        -11   -1    0    0    0    0  0.00000000000E+00  0.00000000000E+00  0.45593999997E+02  0.45594000000E+02  0.51100000000E-03 0.  1.
         11   -1    0    0    0    0 -0.00000000000E+00 -0.00000000000E+00 -0.45593999997E+02  0.45594000000E+02  0.51100000000E-03 0. -1.
    9900012    2    1    2    0    0 -0.47751439427E+01  0.50658054001E+01  0.40058721134E+02  0.50528861754E+02  0.30000005788E+02 0.  0.
         12    1    1    2    0    0  0.47751439427E+01 -0.50658054001E+01 -0.40058721134E+02  0.40659138246E+02  0.00000000000E+00 0. -1.
         11    1    3    3    0    0 -0.20328756620E+01 -0.37634527830E+01  0.21263360778E+01  0.47767630969E+01  0.51100000000E-03 0. -1.
        -11    1    3    3    0    0  0.78737149913E+01  0.16591724656E+01  0.29099651624E+02  0.30191687033E+02  0.51100000000E-03 0.  1.
         12    1    3    3    0    0 -0.10615983272E+02  0.71700857175E+01  0.88327334320E+01  0.15560411624E+02  0.00000000000E+00 0. -1.
</event>
<event>
 7    1  0.5329250E-013  0.5052885E+02  0.7816164E-02  0.1300439E+00
        -11   -1    0    0    0    0  0.00000000000E+00  0.00000000000E+00  0.45593999997E+02  0.45594000000E+02  0.51100000000E-03 0.  1.
         11   -1    0    0    0    0 -0.00000000000E+00 -0.00000000000E+00 -0.45593999997E+02  0.45594000000E+02  0.51100000000E-03 0. -1.
    9900012    2    1    2    0    0 -0.14116947750E+02  0.33677619457E+02  0.17880060581E+02  0.50528845650E+02  0.29999956837E+02 0.  0.
         12    1    1    2    0    0  0.14116947750E+02 -0.33677619457E+02 -0.17880060581E+02  0.40659154350E+02  0.00000000000E+00 0. -1.
         11    1    3    3    0    0  0.16199262509E+01  0.15353021657E+02  0.98631268943E+01  0.18319953806E+02  0.51100000000E-03 0.  1.
        -11    1    3    3    0    0 -0.69411796868E+01  0.18741747977E+02  0.11121764101E+02  0.22871963835E+02  0.51100000000E-03 0. -1.
         12    1    3    3    0    0 -0.87956943142E+01 -0.41715017703E+00 -0.31048304140E+01  0.93369280087E+01  0.00000000000E+00 0. -1.
</event>
<event>
 7    1  0.5329250E-013  0.5052886E+02  0.7816164E-02  0.1300439E+00
        -11   -1    0    0    0    0  0.00000000000E+00  0.00000000000E+00  0.45593999997E+02  0.45594000000E+02  0.51100000000E-03 0.  1.
         11   -1    0    0    0    0 -0.00000000000E+00 -0.00000000000E+00 -0.45593999997E+02  0.45594000000E+02  0.51100000000E-03 0. -1.
    9900012    2    1    2    0    0  0.58837883526E+01  0.34511847793E+02  0.20675557782E+02  0.50528864580E+02  0.30000014377E+02 0.  0.
         12    1    1    2    0    0 -0.58837883526E+01 -0.34511847793E+02 -0.20675557782E+02  0.40659135420E+02  0.00000000000E+00 0. -1.
         11    1    3    3    0    0 -0.26013250380E+01 -0.24156249269E+01 -0.96944885480E+00  0.36799411794E+01  0.51100000000E-03 0. -1.
        -11    1    3    3    0    0 -0.18969460422E+00  0.80644110655E+01  0.13336264850E+02  0.15586105039E+02  0.51100000000E-03 0.  1.
         12    1    3    3    0    0  0.86748079949E+01  0.28863061655E+02  0.83087417876E+01  0.31262818362E+02  0.00000000000E+00 0. -1.
</event>
<event>
 7    1  0.5329250E-013  0.5052886E+02  0.7816164E-02  0.1300439E+00
        -11   -1    0    0    0    0  0.00000000000E+00  0.00000000000E+00  0.45593999997E+02  0.45594000000E+02  0.51100000000E-03 0.  1.
         11   -1    0    0    0    0 -0.00000000000E+00 -0.00000000000E+00 -0.45593999997E+02  0.45594000000E+02  0.51100000000E-03 0. -1.
    9900012    2    1    2    0    0  0.27699654006E+02  0.24427830762E+02  0.17005166296E+02  0.50528862915E+02  0.30000009316E+02 0.  0.
         12    1    1    2    0    0 -0.27699654006E+02 -0.24427830762E+02 -0.17005166296E+02  0.40659137085E+02  0.00000000000E+00 0. -1.
         11    1    3    3    0    0  0.11558147631E+02  0.16139596044E+02  0.11645441709E+02  0.23015074407E+02  0.51100000000E-03 0.  1.
        -11    1    3    3    0    0  0.14795307867E+02  0.11359168121E+02  0.10478449709E+02  0.21394619507E+02  0.51100000000E-03 0. -1.
         12    1    3    3    0    0  0.13461985073E+01 -0.30709334029E+01 -0.51187251217E+01  0.61191690005E+01  0.00000000000E+00 0. -1.
</event>
<event>
 7    1  0.5329250E-013  0.5052887E+02  0.7816164E-02  0.1300439E+00
        -11   -1    0    0    0    0  0.00000000000E+00  0.00000000000E+00  0.45593999997E+02  0.45594000000E+02  0.51100000000E-03 0.  1.
         11   -1    0    0    0    0 -0.00000000000E+00 -0.00000000000E+00 -0.45593999997E+02  0.45594000000E+02  0.51100000000E-03 0. -1.
    9900012    2    1    2    0    0 -0.23370638282E+02 -0.19395563020E+02  0.27033127395E+02  0.50528873407E+02  0.30000041208E+02 0.  0.
         12    1    1    2    0    0  0.23370638282E+02  0.19395563020E+02 -0.27033127395E+02  0.40659126593E+02  0.00000000000E+00 0. -1.
         11    1    3    3    0    0 -0.93796427888E+00 -0.42997448614E+01  0.13041066783E+02  0.13763611661E+02  0.51100000000E-03 0. -1.
        -11    1    3    3    0    0  0.24170941150E+00 -0.10726411506E+02  0.27157259509E+01  0.11067497230E+02  0.51100000000E-03 0.  1.
         12    1    3    3    0    0 -0.22674383415E+02 -0.43694066525E+01  0.11276334661E+02  0.25697764516E+02  0.00000000000E+00 0. -1.
</event>
<event>
 7    1  0.5329250E-013  0.5052886E+02  0.7816164E-02  0.1300439E+00
        -11   -1    0    0    0    0  0.00000000000E+00  0.00000000000E+00  0.45593999997E+02  0.45594000000E+02  0.51100000000E-03 0.  1.
         11   -1    0    0    0    0 -0.00000000000E+00 -0.00000000000E+00 -0.45593999997E+02  0.45594000000E+02  0.51100000000E-03 0. -1.
    9900012    2    1    2    0    0  0.16707093872E+02  0.21695830321E+02  0.30055447988E+02  0.50528855977E+02  0.29999988226E+02 0.  0.
         12    1    1    2    0    0 -0.16707093872E+02 -0.21695830321E+02 -0.30055447988E+02  0.40659144023E+02  0.00000000000E+00 0. -1.
         11    1    3    3    0    0  0.44997560392E+01  0.13945443507E+02  0.15792037824E+02  0.21543250867E+02  0.51100000000E-03 0. -1.
        -11    1    3    3    0    0  0.15155303341E+02  0.34072893919E+01  0.17031502920E+02  0.23051354241E+02  0.51100000000E-03 0.  1.
         12    1    3    3    0    0 -0.29479655087E+01  0.43430974214E+01 -0.27680927566E+01  0.59342508677E+01  0.00000000000E+00 0. -1.
</event>
<event>
 7    1  0.5329250E-013  0.5052887E+02  0.7816164E-02  0.1300439E+00
        -11   -1    0    0    0    0  0.00000000000E+00  0.00000000000E+00  0.45593999997E+02  0.45594000000E+02  0.51100000000E-03 0. -1.
         11   -1    0    0    0    0 -0.00000000000E+00 -0.00000000000E+00 -0.45593999997E+02  0.45594000000E+02  0.51100000000E-03 0.  1.
    9900012    2    1    2    0    0 -0.64169010891E+01  0.39977333447E+02  0.37150102218E+01  0.50528866831E+02  0.30000021219E+02 0.  0.
         12    1    1    2    0    0  0.64169010891E+01 -0.39977333447E+02 -0.37150102218E+01  0.40659133169E+02  0.00000000000E+00 0. -1.
         11    1    3    3    0    0  0.67567012280E+01  0.51902057889E+01  0.29983901014E+01  0.90322528240E+01  0.51100000000E-03 0. -1.
        -11    1    3    3    0    0 -0.12931360988E+02  0.22974745135E+02  0.80808166329E+01  0.27574600790E+02  0.51100000000E-03 0.  1.
        -12    1    3    3    0    0 -0.24224132909E+00  0.11812382523E+02 -0.73641965125E+01  0.13922013217E+02  0.00000000000E+00 0.  1.
</event>
<event>
 7    1  0.5329250E-013  0.5052887E+02  0.7816164E-02  0.1300439E+00
        -11   -1    0    0    0    0  0.00000000000E+00  0.00000000000E+00  0.45593999997E+02  0.45594000000E+02  0.51100000000E-03 0.  1.
         11   -1    0    0    0    0 -0.00000000000E+00 -0.00000000000E+00 -0.45593999997E+02  0.45594000000E+02  0.51100000000E-03 0. -1.
    9900012    2    1    2    0    0 -0.19753648276E+02 -0.34080054577E+02  0.10075112504E+02  0.50528872708E+02  0.30000039083E+02 0.  0.
         12    1    1    2    0    0  0.19753648276E+02  0.34080054577E+02 -0.10075112504E+02  0.40659127292E+02  0.00000000000E+00 0. -1.
         11    1    3    3    0    0  0.31561731744E+01 -0.88200437225E+01  0.85349282208E+01  0.12672789763E+02  0.51100000000E-03 0. -1.
        -11    1    3    3    0    0 -0.10837389857E+01  0.10105662519E+01 -0.30536188888E+01  0.33941601196E+01  0.51100000000E-03 0.  1.
        -12    1    3    3    0    0 -0.21826082465E+02 -0.26270577106E+02  0.45938031716E+01  0.34461922826E+02  0.00000000000E+00 0.  1.
</event>
<event>
 7    1  0.5329250E-013  0.5052887E+02  0.7816164E-02  0.1300439E+00
        -11   -1    0    0    0    0  0.00000000000E+00  0.00000000000E+00  0.45593999997E+02  0.45594000000E+02  0.51100000000E-03 0.  1.
         11   -1    0    0    0    0 -0.00000000000E+00 -0.00000000000E+00 -0.45593999997E+02  0.45594000000E+02  0.51100000000E-03 0. -1.
    9900012    2    1    2    0    0  0.32005411293E+02 -0.46864166420E+01  0.24634455443E+02  0.50528865135E+02  0.30000016065E+02 0.  0.
         12    1    1    2    0    0 -0.32005411293E+02  0.46864166420E+01 -0.24634455443E+02  0.40659134865E+02  0.00000000000E+00 0. -1.
         11    1    3    3    0    0  0.84276395018E+01 -0.95523670493E+01  0.62046666511E+01  0.14169358219E+02  0.51100000000E-03 0. -1.
        -11    1    3    3    0    0  0.21646305465E+02 -0.39600029311E+01  0.10698926257E+02  0.24468575496E+02  0.51100000000E-03 0.  1.
        -12    1    3    3    0    0  0.19314663258E+01  0.88259533384E+01  0.77308625353E+01  0.11890931420E+02  0.00000000000E+00 0.  1.
</event>
<event>
 7    1  0.5329250E-013  0.5052885E+02  0.7816164E-02  0.1300439E+00
        -11   -1    0    0    0    0  0.00000000000E+00  0.00000000000E+00  0.45593999997E+02  0.45594000000E+02  0.51100000000E-03 0. -1.
         11   -1    0    0    0    0 -0.00000000000E+00 -0.00000000000E+00 -0.45593999997E+02  0.45594000000E+02  0.51100000000E-03 0.  1.
    9900012    2    1    2    0    0  0.38758100807E+02 -0.12023450241E+02  0.25322609543E+01  0.50528854911E+02  0.29999984987E+02 0.  0.
         12    1    1    2    0    0 -0.38758100807E+02  0.12023450241E+02 -0.25322609543E+01  0.40659145089E+02  0.00000000000E+00 0. -1.
         11    1    3    3    0    0  0.36946551583E+01  0.18483375586E+01  0.76542927623E+01  0.86979897920E+01  0.51100000000E-03 0. -1.
        -11    1    3    3    0    0  0.22925591218E+02 -0.17143760961E+02 -0.11603532058E+01  0.28650265137E+02  0.51100000000E-03 0.  1.
         12    1    3    3    0    0  0.12137854430E+02  0.32719731609E+01 -0.39616786022E+01  0.13180599982E+02  0.00000000000E+00 0. -1.
</event>
<event>
 7    1  0.5329250E-013  0.5052886E+02  0.7816164E-02  0.1300439E+00
        -11   -1    0    0    0    0  0.00000000000E+00  0.00000000000E+00  0.45593999997E+02  0.45594000000E+02  0.51100000000E-03 0.  1.
         11   -1    0    0    0    0 -0.00000000000E+00 -0.00000000000E+00 -0.45593999997E+02  0.45594000000E+02  0.51100000000E-03 0. -1.
    9900012    2    1    2    0    0  0.17141953148E+02 -0.30207900722E+02  0.21137686522E+02  0.50528860619E+02  0.30000002336E+02 0.  0.
         12    1    1    2    0    0 -0.17141953148E+02  0.30207900722E+02 -0.21137686522E+02  0.40659139381E+02  0.00000000000E+00 0. -1.
         11    1    3    3    0    0  0.41062995136E+01  0.16702358029E+01  0.50402803041E+01  0.67123624111E+01  0.51100000000E-03 0. -1.
        -11    1    3    3    0    0  0.15953274890E+02 -0.15650896985E+02  0.15722158916E+02  0.27324784306E+02  0.51100000000E-03 0.  1.
         12    1    3    3    0    0 -0.29176212553E+01 -0.16227239540E+02  0.37524730219E+00  0.16491713902E+02  0.00000000000E+00 0. -1.
</event>
<event>
 7    1  0.5329250E-013  0.5052886E+02  0.7816164E-02  0.1300439E+00
        -11   -1    0    0    0    0  0.00000000000E+00  0.00000000000E+00  0.45593999997E+02  0.45594000000E+02  0.51100000000E-03 0. -1.
         11   -1    0    0    0    0 -0.00000000000E+00 -0.00000000000E+00 -0.45593999997E+02  0.45594000000E+02  0.51100000000E-03 0.  1.
    9900012    2    1    2    0    0  0.14132653856E+02  0.86085305508E+01 -0.37139294592E+02  0.50528857042E+02  0.29999991465E+02 0.  0.
         12    1    1    2    0    0 -0.14132653856E+02 -0.86085305508E+01  0.37139294592E+02  0.40659142958E+02  0.00000000000E+00 0. -1.
         11    1    3    3    0    0 -0.25472377288E+01  0.13237942573E+01  0.35688868182E+01  0.45801533452E+01  0.51100000000E-03 0. -1.
        -11    1    3    3    0    0  0.37637753825E+01 -0.29018713164E+01 -0.73075455376E+01  0.87170570901E+01  0.51100000000E-03 0.  1.
        -12    1    3    3    0    0  0.12916116203E+02  0.10186607610E+02 -0.33400635873E+02  0.37231646607E+02  0.00000000000E+00 0.  1.
</event>
<event>
 7    1  0.5329250E-013  0.5052886E+02  0.7816164E-02  0.1300439E+00
        -11   -1    0    0    0    0  0.00000000000E+00  0.00000000000E+00  0.45593999997E+02  0.45594000000E+02  0.51100000000E-03 0.  1.
         11   -1    0    0    0    0 -0.00000000000E+00 -0.00000000000E+00 -0.45593999997E+02  0.45594000000E+02  0.51100000000E-03 0. -1.
    9900012    2    1    2    0    0 -0.98844881721E+01 -0.34553626976E+02 -0.19013410094E+02  0.50528855801E+02  0.29999987692E+02 0.  0.
         12    1    1    2    0    0  0.98844881721E+01  0.34553626976E+02  0.19013410094E+02  0.40659144199E+02  0.00000000000E+00 0. -1.
         11    1    3    3    0    0 -0.48392637542E+01 -0.56276891542E+01 -0.12811182503E+02  0.14805936521E+02  0.51100000000E-03 0. -1.
        -11    1    3    3    0    0 -0.16042367714E+00 -0.30110702553E+02 -0.59273644135E+01  0.30688984883E+02  0.51100000000E-03 0.  1.
         12    1    3    3    0    0 -0.48848007407E+01  0.11847647313E+01 -0.27486317828E+00  0.50339343969E+01  0.00000000000E+00 0. -1.
</event>
<event>
 7    1  0.5329250E-013  0.5052885E+02  0.7816164E-02  0.1300439E+00
        -11   -1    0    0    0    0  0.00000000000E+00  0.00000000000E+00  0.45593999997E+02  0.45594000000E+02  0.51100000000E-03 0.  1.
         11   -1    0    0    0    0 -0.00000000000E+00 -0.00000000000E+00 -0.45593999997E+02  0.45594000000E+02  0.51100000000E-03 0. -1.
    9900012    2    1    2    0    0  0.20768335887E+02  0.24114859343E+02  0.25304467097E+02  0.50528852545E+02  0.29999977797E+02 0.  0.
         12    1    1    2    0    0 -0.20768335887E+02 -0.24114859343E+02 -0.25304467097E+02  0.40659147455E+02  0.00000000000E+00 0. -1.
         11    1    3    3    0    0  0.24775786024E+00 -0.11256464026E+01 -0.34625789209E+01  0.36493721139E+01  0.51100000000E-03 0. -1.
        -11    1    3    3    0    0  0.42423431832E+01  0.36759109154E+00  0.12038797263E+02  0.12769700024E+02  0.51100000000E-03 0.  1.
        -12    1    3    3    0    0  0.16278234844E+02  0.24872914655E+02  0.16728248754E+02  0.34109780407E+02  0.00000000000E+00 0.  1.
</event>
<event>
 7    1  0.5329250E-013  0.5052887E+02  0.7816164E-02  0.1300439E+00
        -11   -1    0    0    0    0  0.00000000000E+00  0.00000000000E+00  0.45593999997E+02  0.45594000000E+02  0.51100000000E-03 0.  1.
         11   -1    0    0    0    0 -0.00000000000E+00 -0.00000000000E+00 -0.45593999997E+02  0.45594000000E+02  0.51100000000E-03 0. -1.
    9900012    2    1    2    0    0  0.18807682257E+02  0.24094902018E+02  0.26811781420E+02  0.50528870176E+02  0.30000031386E+02 0.  0.
         12    1    1    2    0    0 -0.18807682257E+02 -0.24094902018E+02 -0.26811781420E+02  0.40659129824E+02  0.00000000000E+00 0. -1.
         11    1    3    3    0    0 -0.57994460485E+01  0.30911756560E+01  0.88878030173E+01  0.11053595982E+02  0.51100000000E-03 0. -1.
        -11    1    3    3    0    0  0.98220170925E+01  0.16025217234E+02  0.13861387750E+02  0.23354179022E+02  0.51100000000E-03 0.  1.
        -12    1    3    3    0    0  0.14785111213E+02  0.49785091288E+01  0.40625906525E+01  0.16121095172E+02  0.00000000000E+00 0.  1.
</event>
<event>
 7    1  0.5329250E-013  0.5052886E+02  0.7816164E-02  0.1300439E+00
        -11   -1    0    0    0    0  0.00000000000E+00  0.00000000000E+00  0.45593999997E+02  0.45594000000E+02  0.51100000000E-03 0.  1.
         11   -1    0    0    0    0 -0.00000000000E+00 -0.00000000000E+00 -0.45593999997E+02  0.45594000000E+02  0.51100000000E-03 0. -1.
    9900012    2    1    2    0    0 -0.29906561639E+02 -0.27352398184E+02 -0.32572888762E+01  0.50528855317E+02  0.29999986223E+02 0.  0.
         12    1    1    2    0    0  0.29906561639E+02  0.27352398184E+02  0.32572888762E+01  0.40659144683E+02  0.00000000000E+00 0. -1.
         11    1    3    3    0    0 -0.50084379268E+01 -0.50761254018E+01 -0.25931815206E+01  0.75878910259E+01  0.51100000000E-03 0. -1.
        -11    1    3    3    0    0 -0.23944181669E+02 -0.25700789707E+02 -0.68673898977E+01  0.35791276474E+02  0.51100000000E-03 0.  1.
        -12    1    3    3    0    0 -0.95394204280E+00  0.34245169245E+01  0.62032825421E+01  0.71496878173E+01  0.00000000000E+00 0.  1.
</event>
<event>
 7    1  0.5329250E-013  0.5052886E+02  0.7816164E-02  0.1300439E+00
        -11   -1    0    0    0    0  0.00000000000E+00  0.00000000000E+00  0.45593999997E+02  0.45594000000E+02  0.51100000000E-03 0. -1.
         11   -1    0    0    0    0 -0.00000000000E+00 -0.00000000000E+00 -0.45593999997E+02  0.45594000000E+02  0.51100000000E-03 0.  1.
    9900012    2    1    2    0    0  0.27708385277E+02 -0.12582898728E+02 -0.26964455223E+02  0.50528858340E+02  0.29999995410E+02 0.  0.
         12    1    1    2    0    0 -0.27708385277E+02  0.12582898728E+02  0.26964455223E+02  0.40659141660E+02  0.00000000000E+00 0. -1.
         11    1    3    3    0    0  0.11210200919E+02 -0.91575994477E+01  0.13435298819E+01  0.14537376142E+02  0.51100000000E-03 0. -1.
        -11    1    3    3    0    0  0.10442645915E+02  0.59309403909E+00 -0.50313639882E+01  0.11606689369E+02  0.51100000000E-03 0.  1.
         12    1    3    3    0    0  0.60555384426E+01 -0.40183933193E+01 -0.23276621117E+02  0.24384792829E+02  0.00000000000E+00 0. -1.
</event>
<event>
 7    1  0.5329250E-013  0.5052884E+02  0.7816164E-02  0.1300439E+00
        -11   -1    0    0    0    0  0.00000000000E+00  0.00000000000E+00  0.45593999997E+02  0.45594000000E+02  0.51100000000E-03 0. -1.
         11   -1    0    0    0    0 -0.00000000000E+00 -0.00000000000E+00 -0.45593999997E+02  0.45594000000E+02  0.51100000000E-03 0.  1.
    9900012    2    1    2    0    0 -0.73730863035E+01 -0.14930601429E+02 -0.37092881462E+02  0.50528842165E+02  0.29999946245E+02 0.  0.
         12    1    1    2    0    0  0.73730863035E+01  0.14930601429E+02  0.37092881462E+02  0.40659157835E+02  0.00000000000E+00 0. -1.
         11    1    3    3    0    0  0.42317230016E+01  0.15401825786E+01 -0.27607869750E+01  0.52821952747E+01  0.51100000000E-03 0. -1.
        -11    1    3    3    0    0 -0.12063199019E+02 -0.72826687145E+01 -0.57474829154E+01  0.15218133733E+02  0.51100000000E-03 0.  1.
        -12    1    3    3    0    0  0.45838971409E+00 -0.91881152928E+01 -0.28584611572E+02  0.30028513158E+02  0.00000000000E+00 0.  1.
</event>
<event>
 7    1  0.5329250E-013  0.5052886E+02  0.7816164E-02  0.1300439E+00
        -11   -1    0    0    0    0  0.00000000000E+00  0.00000000000E+00  0.45593999997E+02  0.45594000000E+02  0.51100000000E-03 0. -1.
         11   -1    0    0    0    0 -0.00000000000E+00 -0.00000000000E+00 -0.45593999997E+02  0.45594000000E+02  0.51100000000E-03 0.  1.
    9900012    2    1    2    0    0 -0.33434542892E+02 -0.19690652314E+02 -0.12148045582E+02  0.50528862547E+02  0.30000008197E+02 0.  0.
         12    1    1    2    0    0  0.33434542892E+02  0.19690652314E+02  0.12148045582E+02  0.40659137453E+02  0.00000000000E+00 0. -1.
         11    1    3    3    0    0 -0.13240677172E+02 -0.62609811006E+01  0.54470641979E+01  0.15626449531E+02  0.51100000000E-03 0. -1.
        -11    1    3    3    0    0 -0.26515460536E+01  0.38951556819E+01 -0.17739006099E+00  0.47153368656E+01  0.51100000000E-03 0.  1.
        -12    1    3    3    0    0 -0.17542319667E+02 -0.17324826896E+02 -0.17417719719E+02  0.30187076150E+02  0.00000000000E+00 0.  1.
</event>
<event>
 7    1  0.5329250E-013  0.5052886E+02  0.7816164E-02  0.1300439E+00
        -11   -1    0    0    0    0  0.00000000000E+00  0.00000000000E+00  0.45593999997E+02  0.45594000000E+02  0.51100000000E-03 0.  1.
         11   -1    0    0    0    0 -0.00000000000E+00 -0.00000000000E+00 -0.45593999997E+02  0.45594000000E+02  0.51100000000E-03 0. -1.
    9900012    2    1    2    0    0 -0.35553090024E+02 -0.11035040767E+01  0.19695828433E+02  0.50528860939E+02  0.30000003310E+02 0.  0.
         12    1    1    2    0    0  0.35553090024E+02  0.11035040767E+01 -0.19695828433E+02  0.40659139061E+02  0.00000000000E+00 0. -1.
         11    1    3    3    0    0  0.56549691981E+00 -0.92140785958E+00 -0.40009668276E+01  0.41444559386E+01  0.51100000000E-03 0. -1.
        -11    1    3    3    0    0 -0.16180661524E+02 -0.83515057315E+01  0.12643418754E+02  0.22167938411E+02  0.51100000000E-03 0.  1.
         12    1    3    3    0    0 -0.19937925420E+02  0.81694095144E+01  0.11053376507E+02  0.24216466589E+02  0.00000000000E+00 0. -1.
</event>
<event>
 7    1  0.5329250E-013  0.5052886E+02  0.7816164E-02  0.1300439E+00
        -11   -1    0    0    0    0  0.00000000000E+00  0.00000000000E+00  0.45593999997E+02  0.45594000000E+02  0.51100000000E-03 0.  1.
         11   -1    0    0    0    0 -0.00000000000E+00 -0.00000000000E+00 -0.45593999997E+02  0.45594000000E+02  0.51100000000E-03 0. -1.
    9900012    2    1    2    0    0  0.32363900441E+02 -0.66943582705E+01  0.23683936881E+02  0.50528863873E+02  0.30000012228E+02 0.  0.
         12    1    1    2    0    0 -0.32363900441E+02  0.66943582705E+01 -0.23683936881E+02  0.40659136127E+02  0.00000000000E+00 0. -1.
         11    1    3    3    0    0  0.17717263461E+02 -0.40089062781E+01  0.18936625255E+01  0.18263589792E+02  0.51100000000E-03 0. -1.
        -11    1    3    3    0    0  0.93956527707E+01 -0.95445041868E+01  0.69376985211E+01  0.15083352154E+02  0.51100000000E-03 0.  1.
         12    1    3    3    0    0  0.52509842093E+01  0.68590521944E+01  0.14852575835E+02  0.17181921927E+02  0.00000000000E+00 0. -1.
</event>
<event>
 7    1  0.5329250E-013  0.5052886E+02  0.7816164E-02  0.1300439E+00
        -11   -1    0    0    0    0  0.00000000000E+00  0.00000000000E+00  0.45593999997E+02  0.45594000000E+02  0.51100000000E-03 0.  1.
         11   -1    0    0    0    0 -0.00000000000E+00 -0.00000000000E+00 -0.45593999997E+02  0.45594000000E+02  0.51100000000E-03 0. -1.
    9900012    2    1    2    0    0  0.29555989738E+01 -0.41600005163E+01  0.40337631546E+02  0.50528859720E+02  0.29999999605E+02 0.  0.
         12    1    1    2    0    0 -0.29555989738E+01  0.41600005163E+01 -0.40337631546E+02  0.40659140280E+02  0.00000000000E+00 0. -1.
         11    1    3    3    0    0  0.20307367322E+01 -0.10539452715E+02  0.20006242093E+02  0.22703604960E+02  0.51100000000E-03 0. -1.
        -11    1    3    3    0    0  0.43538664524E+01 -0.27653343315E+01  0.16578804151E+02  0.17362602754E+02  0.51100000000E-03 0.  1.
         12    1    3    3    0    0 -0.34290042109E+01  0.91447865304E+01  0.37525853015E+01  0.10462652006E+02  0.00000000000E+00 0. -1.
</event>
<event>
 7    1  0.5329250E-013  0.5052886E+02  0.7816164E-02  0.1300439E+00
        -11   -1    0    0    0    0  0.00000000000E+00  0.00000000000E+00  0.45593999997E+02  0.45594000000E+02  0.51100000000E-03 0. -1.
         11   -1    0    0    0    0 -0.00000000000E+00 -0.00000000000E+00 -0.45593999997E+02  0.45594000000E+02  0.51100000000E-03 0.  1.
    9900012    2    1    2    0    0  0.33922586333E+02 -0.20381154998E+02 -0.93291257915E+01  0.50528856740E+02  0.29999990548E+02 0.  0.
         12    1    1    2    0    0 -0.33922586333E+02  0.20381154998E+02  0.93291257915E+01  0.40659143260E+02  0.00000000000E+00 0. -1.
         11    1    3    3    0    0  0.77429495042E+01 -0.65731902500E+01  0.62680048804E+01  0.11935157415E+02  0.51100000000E-03 0. -1.
        -11    1    3    3    0    0  0.21416892599E+02 -0.17976310635E+02 -0.88168057042E+01  0.29318374711E+02  0.51100000000E-03 0.  1.
        -12    1    3    3    0    0  0.47627442294E+01  0.41683458863E+01 -0.67803249676E+01  0.92753246137E+01  0.00000000000E+00 0.  1.
</event>
<event>
 7    1  0.5329250E-013  0.5052885E+02  0.7816164E-02  0.1300439E+00
        -11   -1    0    0    0    0  0.00000000000E+00  0.00000000000E+00  0.45593999997E+02  0.45594000000E+02  0.51100000000E-03 0.  1.
         11   -1    0    0    0    0 -0.00000000000E+00 -0.00000000000E+00 -0.45593999997E+02  0.45594000000E+02  0.51100000000E-03 0. -1.
    9900012    2    1    2    0    0 -0.33789647434E+01 -0.18547433321E+02  0.36024177864E+02  0.50528854949E+02  0.29999985103E+02 0.  0.
         12    1    1    2    0    0  0.33789647434E+01  0.18547433321E+02 -0.36024177864E+02  0.40659145051E+02  0.00000000000E+00 0. -1.
         11    1    3    3    0    0  0.44584993115E+01  0.68699217341E+01  0.68866000758E+01  0.10700434646E+02  0.51100000000E-03 0. -1.
        -11    1    3    3    0    0 -0.35061452725E+00 -0.97421014340E+01  0.11433189730E+02  0.15024955859E+02  0.51100000000E-03 0.  1.
        -12    1    3    3    0    0 -0.74868495276E+01 -0.15675253621E+02  0.17704388058E+02  0.24803464444E+02  0.00000000000E+00 0.  1.
</event>
<event>
 7    1  0.5329250E-013  0.5052885E+02  0.7816164E-02  0.1300439E+00
        -11   -1    0    0    0    0  0.00000000000E+00  0.00000000000E+00  0.45593999997E+02  0.45594000000E+02  0.51100000000E-03 0.  1.
         11   -1    0    0    0    0 -0.00000000000E+00 -0.00000000000E+00 -0.45593999997E+02  0.45594000000E+02  0.51100000000E-03 0. -1.
    9900012    2    1    2    0    0 -0.15832907503E+02 -0.37329451997E+02  0.29995387149E+01  0.50528853687E+02  0.29999981266E+02 0.  0.
         12    1    1    2    0    0  0.15832907503E+02  0.37329451997E+02 -0.29995387149E+01  0.40659146313E+02  0.00000000000E+00 0. -1.
         11    1    3    3    0    0 -0.94505856610E+01 -0.20301268644E+02  0.67514556459E+01  0.23388827066E+02  0.51100000000E-03 0. -1.
        -11    1    3    3    0    0 -0.55127268567E+01 -0.12605135448E+02 -0.11662077541E+02  0.18035621694E+02  0.51100000000E-03 0.  1.
         12    1    3    3    0    0 -0.86959498536E+00 -0.44230479051E+01  0.79101606097E+01  0.91044049273E+01  0.00000000000E+00 0. -1.
</event>
<event>
 7    1  0.5329250E-013  0.5052886E+02  0.7816164E-02  0.1300439E+00
        -11   -1    0    0    0    0  0.00000000000E+00  0.00000000000E+00  0.45593999997E+02  0.45594000000E+02  0.51100000000E-03 0.  1.
         11   -1    0    0    0    0 -0.00000000000E+00 -0.00000000000E+00 -0.45593999997E+02  0.45594000000E+02  0.51100000000E-03 0. -1.
    9900012    2    1    2    0    0 -0.51453248653E+01  0.38807087880E+02 -0.10986424769E+02  0.50528856294E+02  0.29999989192E+02 0.  0.
         12    1    1    2    0    0  0.51453248653E+01 -0.38807087880E+02  0.10986424769E+02  0.40659143706E+02  0.00000000000E+00 0. -1.
         11    1    3    3    0    0 -0.14030206215E+02  0.23659926477E+02 -0.78348146733E+01  0.28601103625E+02  0.51100000000E-03 0. -1.
        -11    1    3    3    0    0 -0.77586886829E+00  0.90903745243E+01  0.21187975328E+01  0.93662257468E+01  0.51100000000E-03 0.  1.
         12    1    3    3    0    0  0.96607502178E+01  0.60567868783E+01 -0.52704076289E+01  0.12561526923E+02  0.00000000000E+00 0. -1.
</event>
<event>
 7    1  0.5329250E-013  0.5052886E+02  0.7816164E-02  0.1300439E+00
        -11   -1    0    0    0    0  0.00000000000E+00  0.00000000000E+00  0.45593999997E+02  0.45594000000E+02  0.51100000000E-03 0. -1.
         11   -1    0    0    0    0 -0.00000000000E+00 -0.00000000000E+00 -0.45593999997E+02  0.45594000000E+02  0.51100000000E-03 0.  1.
    9900012    2    1    2    0    0  0.21216901267E+02  0.28624205145E+02 -0.19587330396E+02  0.50528861647E+02  0.30000005463E+02 0.  0.
         12    1    1    2    0    0 -0.21216901267E+02 -0.28624205145E+02  0.19587330396E+02  0.40659138353E+02  0.00000000000E+00 0. -1.
         11    1    3    3    0    0  0.16447404259E+02  0.15003408701E+01 -0.10834914100E+02  0.19752556629E+02  0.51100000000E-03 0. -1.
        -11    1    3    3    0    0  0.75855186011E+01  0.14458190708E+02 -0.66617128436E+01  0.17633995272E+02  0.51100000000E-03 0.  1.
        -12    1    3    3    0    0 -0.28160215933E+01  0.12665673567E+02 -0.20907034522E+01  0.13142309745E+02  0.00000000000E+00 0.  1.
</event>
<event>
 7    1  0.5329250E-013  0.5052886E+02  0.7816164E-02  0.1300439E+00
        -11   -1    0    0    0    0  0.00000000000E+00  0.00000000000E+00  0.45593999997E+02  0.45594000000E+02  0.51100000000E-03 0.  1.
         11   -1    0    0    0    0 -0.00000000000E+00 -0.00000000000E+00 -0.45593999997E+02  0.45594000000E+02  0.51100000000E-03 0. -1.
    9900012    2    1    2    0    0 -0.87308689386E+01 -0.31751309426E+02  0.23849363489E+02  0.50528857590E+02  0.29999993131E+02 0.  0.
         12    1    1    2    0    0  0.87308689386E+01  0.31751309426E+02 -0.23849363489E+02  0.40659142410E+02  0.00000000000E+00 0. -1.
         11    1    3    3    0    0 -0.22044172599E+01 -0.14684145952E+02 -0.17615107371E+01  0.14952809707E+02  0.51100000000E-03 0. -1.
        -11    1    3    3    0    0 -0.52511092803E+01 -0.16199354589E+02  0.97149409565E+01  0.19605440975E+02  0.51100000000E-03 0.  1.
         12    1    3    3    0    0 -0.12753423983E+01 -0.86780888419E+00  0.15895933270E+02  0.15970606908E+02  0.00000000000E+00 0. -1.
</event>
<event>
 7    1  0.5329250E-013  0.5052892E+02  0.7816164E-02  0.1300439E+00
        -11   -1    0    0    0    0  0.00000000000E+00  0.00000000000E+00  0.45593999997E+02  0.45594000000E+02  0.51100000000E-03 0.  1.
         11   -1    0    0    0    0 -0.00000000000E+00 -0.00000000000E+00 -0.45593999997E+02  0.45594000000E+02  0.51100000000E-03 0. -1.
    9900012    2    1    2    0    0  0.75160318579E+01 -0.17465283520E+02  0.35939311564E+02  0.50528917632E+02  0.30000175632E+02 0.  0.
         12    1    1    2    0    0 -0.75160318579E+01  0.17465283520E+02 -0.35939311564E+02  0.40659082368E+02  0.00000000000E+00 0. -1.
         11    1    3    3    0    0 -0.28163446295E+01  0.60448315555E+01  0.32493807461E+01  0.74182384096E+01  0.51100000000E-03 0. -1.
        -11    1    3    3    0    0  0.67075519615E+01 -0.47442516636E+01  0.14821355408E+02  0.16946142734E+02  0.51100000000E-03 0.  1.
        -12    1    3    3    0    0  0.36248245260E+01 -0.18765863412E+02  0.17868575410E+02  0.26164536488E+02  0.00000000000E+00 0.  1.
</event>
<event>
 7    1  0.5329250E-013  0.5052886E+02  0.7816164E-02  0.1300439E+00
        -11   -1    0    0    0    0  0.00000000000E+00  0.00000000000E+00  0.45593999997E+02  0.45594000000E+02  0.51100000000E-03 0.  1.
         11   -1    0    0    0    0 -0.00000000000E+00 -0.00000000000E+00 -0.45593999997E+02  0.45594000000E+02  0.51100000000E-03 0. -1.
    9900012    2    1    2    0    0  0.29294811399E+01 -0.10770709498E+02  0.39097006480E+02  0.50528856397E+02  0.29999989504E+02 0.  0.
         12    1    1    2    0    0 -0.29294811399E+01  0.10770709498E+02 -0.39097006480E+02  0.40659143603E+02  0.00000000000E+00 0. -1.
         11    1    3    3    0    0  0.78082981698E+01 -0.69908806823E+01  0.14088132389E+02  0.17558969431E+02  0.51100000000E-03 0. -1.
        -11    1    3    3    0    0  0.26009180850E+01  0.21422178660E+01  0.22967867886E+02  0.23213720679E+02  0.51100000000E-03 0.  1.
        -12    1    3    3    0    0 -0.74797351149E+01 -0.59220466815E+01  0.20410062053E+01  0.97561662868E+01  0.00000000000E+00 0.  1.
</event>
<event>
 7    1  0.5329250E-013  0.5052887E+02  0.7816164E-02  0.1300439E+00
        -11   -1    0    0    0    0  0.00000000000E+00  0.00000000000E+00  0.45593999997E+02  0.45594000000E+02  0.51100000000E-03 0.  1.
         11   -1    0    0    0    0 -0.00000000000E+00 -0.00000000000E+00 -0.45593999997E+02  0.45594000000E+02  0.51100000000E-03 0. -1.
    9900012    2    1    2    0    0 -0.17707840239E+01 -0.15913723342E+02  0.37373553652E+02  0.50528870899E+02  0.30000033586E+02 0.  0.
         12    1    1    2    0    0  0.17707840239E+01  0.15913723342E+02 -0.37373553652E+02  0.40659129101E+02  0.00000000000E+00 0. -1.
         11    1    3    3    0    0 -0.29836599821E+01 -0.10646145007E+02  0.26573869418E+02  0.28782167509E+02  0.51100000000E-03 0.  1.
        -11    1    3    3    0    0 -0.24026131530E+01 -0.11173092662E+02  0.91203503694E+01  0.14621605272E+02  0.51100000000E-03 0. -1.
         12    1    3    3    0    0  0.36154891112E+01  0.59055143269E+01  0.16793338644E+01  0.71250981191E+01  0.00000000000E+00 0. -1.
</event>
<event>
 7    1  0.5329250E-013  0.5052886E+02  0.7816164E-02  0.1300439E+00
        -11   -1    0    0    0    0  0.00000000000E+00  0.00000000000E+00  0.45593999997E+02  0.45594000000E+02  0.51100000000E-03 0.  1.
         11   -1    0    0    0    0 -0.00000000000E+00 -0.00000000000E+00 -0.45593999997E+02  0.45594000000E+02  0.51100000000E-03 0. -1.
    9900012    2    1    2    0    0 -0.10385545996E+02  0.13786593774E+02  0.36813529484E+02  0.50528859741E+02  0.29999999668E+02 0.  0.
         12    1    1    2    0    0  0.10385545996E+02 -0.13786593774E+02 -0.36813529484E+02  0.40659140259E+02  0.00000000000E+00 0. -1.
         11    1    3    3    0    0 -0.65109692066E+00  0.18679549739E+01  0.17342199814E+00  0.19857639425E+01  0.51100000000E-03 0. -1.
        -11    1    3    3    0    0 -0.14593188466E+02  0.18049195107E+02  0.22188426547E+02  0.32110136507E+02  0.51100000000E-03 0.  1.
        -12    1    3    3    0    0  0.48587393912E+01 -0.61305563066E+01  0.14451680939E+02  0.16432959291E+02  0.00000000000E+00 0.  1.
</event>
<event>
 7    1  0.5329250E-013  0.5052886E+02  0.7816164E-02  0.1300439E+00
        -11   -1    0    0    0    0  0.00000000000E+00  0.00000000000E+00  0.45593999997E+02  0.45594000000E+02  0.51100000000E-03 0.  1.
         11   -1    0    0    0    0 -0.00000000000E+00 -0.00000000000E+00 -0.45593999997E+02  0.45594000000E+02  0.51100000000E-03 0. -1.
    9900012    2    1    2    0    0  0.19795468383E+02  0.35495923501E+02  0.11594097104E+01  0.50528863455E+02  0.30000010958E+02 0.  0.
         12    1    1    2    0    0 -0.19795468383E+02 -0.35495923501E+02 -0.11594097104E+01  0.40659136545E+02  0.00000000000E+00 0. -1.
         11    1    3    3    0    0 -0.48147989351E+01 -0.15089417756E+01 -0.43481630468E+00  0.50644110761E+01  0.51100000000E-03 0. -1.
        -11    1    3    3    0    0  0.17437178113E+02  0.17946338713E+02 -0.18462654981E+00  0.25023196058E+02  0.51100000000E-03 0.  1.
        -12    1    3    3    0    0  0.71730892059E+01  0.19058526563E+02  0.17788525649E+01  0.20441256321E+02  0.00000000000E+00 0.  1.
</event>
<event>
 7    1  0.5329250E-013  0.5052885E+02  0.7816164E-02  0.1300439E+00
        -11   -1    0    0    0    0  0.00000000000E+00  0.00000000000E+00  0.45593999997E+02  0.45594000000E+02  0.51100000000E-03 0. -1.
         11   -1    0    0    0    0 -0.00000000000E+00 -0.00000000000E+00 -0.45593999997E+02  0.45594000000E+02  0.51100000000E-03 0.  1.
    9900012    2    1    2    0    0 -0.20202729720E+02 -0.34442603033E+02  0.76630928813E+01  0.50528853621E+02  0.29999981065E+02 0.  0.
         12    1    1    2    0    0  0.20202729720E+02  0.34442603033E+02 -0.76630928813E+01  0.40659146379E+02  0.00000000000E+00 0. -1.
         11    1    3    3    0    0  0.16861476444E+01 -0.67509361108E+01  0.45574420284E+01  0.83179631133E+01  0.51100000000E-03 0. -1.
        -11    1    3    3    0    0 -0.14819903346E+02 -0.30475482046E+02 -0.29033683354E+00  0.33889066627E+02  0.51100000000E-03 0.  1.
         12    1    3    3    0    0 -0.70689740185E+01  0.27838151247E+01  0.33959876865E+01  0.83218238800E+01  0.00000000000E+00 0. -1.
</event>
<event>
 7    1  0.5329250E-013  0.5052888E+02  0.7816164E-02  0.1300439E+00
        -11   -1    0    0    0    0  0.00000000000E+00  0.00000000000E+00  0.45593999997E+02  0.45594000000E+02  0.51100000000E-03 0.  1.
         11   -1    0    0    0    0 -0.00000000000E+00 -0.00000000000E+00 -0.45593999997E+02  0.45594000000E+02  0.51100000000E-03 0. -1.
    9900012    2    1    2    0    0 -0.34684781069E+02 -0.17592220093E+02  0.11859326480E+02  0.50528882079E+02  0.30000067566E+02 0.  0.
         12    1    1    2    0    0  0.34684781069E+02  0.17592220093E+02 -0.11859326480E+02  0.40659117921E+02  0.00000000000E+00 0. -1.
         11    1    3    3    0    0  0.33795408667E+01 -0.37908969439E+01  0.27431262568E+01  0.57720826424E+01  0.51100000000E-03 0. -1.
        -11    1    3    3    0    0 -0.11111036501E+02 -0.11101758733E+02 -0.12418273420E+01  0.15755834300E+02  0.51100000000E-03 0.  1.
        -12    1    3    3    0    0 -0.26953285435E+02 -0.26995644158E+01  0.10358027566E+02  0.29000965136E+02  0.00000000000E+00 0.  1.
</event>
<event>
 7    1  0.5329250E-013  0.5052886E+02  0.7816164E-02  0.1300439E+00
        -11   -1    0    0    0    0  0.00000000000E+00  0.00000000000E+00  0.45593999997E+02  0.45594000000E+02  0.51100000000E-03 0.  1.
         11   -1    0    0    0    0 -0.00000000000E+00 -0.00000000000E+00 -0.45593999997E+02  0.45594000000E+02  0.51100000000E-03 0. -1.
    9900012    2    1    2    0    0  0.11917119301E+01  0.39860982944E+02 -0.79276240369E+01  0.50528863740E+02  0.30000011823E+02 0.  0.
         12    1    1    2    0    0 -0.11917119301E+01 -0.39860982944E+02  0.79276240369E+01  0.40659136260E+02  0.00000000000E+00 0. -1.
         11    1    3    3    0    0  0.41796803082E+01  0.17058715808E+02  0.36065543795E+01  0.17929772649E+02  0.51100000000E-03 0. -1.
        -11    1    3    3    0    0  0.23423174626E+01 -0.22702077832E+01  0.17786066772E+01  0.37153379991E+01  0.51100000000E-03 0.  1.
         12    1    3    3    0    0 -0.53302858406E+01  0.25072474919E+02 -0.13312785094E+02  0.28883753091E+02  0.00000000000E+00 0. -1.
</event>
<event>
 7    1  0.5329250E-013  0.5052884E+02  0.7816164E-02  0.1300439E+00
        -11   -1    0    0    0    0  0.00000000000E+00  0.00000000000E+00  0.45593999997E+02  0.45594000000E+02  0.51100000000E-03 0. -1.
         11   -1    0    0    0    0 -0.00000000000E+00 -0.00000000000E+00 -0.45593999997E+02  0.45594000000E+02  0.51100000000E-03 0.  1.
    9900012    2    1    2    0    0 -0.22651973467E+02  0.18828583323E+02 -0.28027478983E+02  0.50528843220E+02  0.29999949451E+02 0.  0.
         12    1    1    2    0    0  0.22651973467E+02 -0.18828583323E+02  0.28027478983E+02  0.40659156780E+02  0.00000000000E+00 0. -1.
         11    1    3    3    0    0 -0.75383738657E+01 -0.40328977290E+01 -0.82718012238E+01  0.11895967400E+02  0.51100000000E-03 0. -1.
        -11    1    3    3    0    0 -0.34769063552E+01  0.16703717574E+02 -0.18866850359E+02  0.25437395726E+02  0.51100000000E-03 0.  1.
         12    1    3    3    0    0 -0.11636693246E+02  0.61577634783E+01 -0.88882740036E+00  0.13195480094E+02  0.00000000000E+00 0. -1.
</event>
<event>
 7    1  0.5329250E-013  0.5052888E+02  0.7816164E-02  0.1300439E+00
        -11   -1    0    0    0    0  0.00000000000E+00  0.00000000000E+00  0.45593999997E+02  0.45594000000E+02  0.51100000000E-03 0.  1.
         11   -1    0    0    0    0 -0.00000000000E+00 -0.00000000000E+00 -0.45593999997E+02  0.45594000000E+02  0.51100000000E-03 0. -1.
    9900012    2    1    2    0    0 -0.36202828202E+02 -0.18450009877E+02 -0.14548258157E+01  0.50528878607E+02  0.30000057015E+02 0.  0.
         12    1    1    2    0    0  0.36202828202E+02  0.18450009877E+02  0.14548258157E+01  0.40659121393E+02  0.00000000000E+00 0. -1.
         11    1    3    3    0    0 -0.14928873706E+02 -0.44550947138E+00 -0.25750588641E+01  0.15155879296E+02  0.51100000000E-03 0. -1.
        -11    1    3    3    0    0 -0.15978193135E+02 -0.30384821781E+01  0.79348043680E+01  0.18096854711E+02  0.51100000000E-03 0.  1.
         12    1    3    3    0    0 -0.52957613605E+01 -0.14966018227E+02 -0.68145713196E+01  0.17276144600E+02  0.00000000000E+00 0. -1.
</event>
<event>
 7    1  0.5329250E-013  0.5052887E+02  0.7816164E-02  0.1300439E+00
        -11   -1    0    0    0    0  0.00000000000E+00  0.00000000000E+00  0.45593999997E+02  0.45594000000E+02  0.51100000000E-03 0.  1.
         11   -1    0    0    0    0 -0.00000000000E+00 -0.00000000000E+00 -0.45593999997E+02  0.45594000000E+02  0.51100000000E-03 0. -1.
    9900012    2    1    2    0    0  0.70010880923E+01 -0.14883179191E+02  0.37183875488E+02  0.50528869985E+02  0.30000030805E+02 0.  0.
         12    1    1    2    0    0 -0.70010880923E+01  0.14883179191E+02 -0.37183875488E+02  0.40659130015E+02  0.00000000000E+00 0. -1.
         11    1    3    3    0    0 -0.24099708120E+01 -0.89399883284E+01  0.80421006542E+01  0.12264042312E+02  0.51100000000E-03 0. -1.
        -11    1    3    3    0    0 -0.46764107777E+01  0.36966593692E+01  0.21670165815E+01  0.63427178227E+01  0.51100000000E-03 0.  1.
        -12    1    3    3    0    0  0.14087469682E+02 -0.96398502319E+01  0.26974758252E+02  0.31922109850E+02  0.00000000000E+00 0.  1.
</event>
<event>
 7    1  0.5329250E-013  0.5052887E+02  0.7816164E-02  0.1300439E+00
        -11   -1    0    0    0    0  0.00000000000E+00  0.00000000000E+00  0.45593999997E+02  0.45594000000E+02  0.51100000000E-03 0. -1.
         11   -1    0    0    0    0 -0.00000000000E+00 -0.00000000000E+00 -0.45593999997E+02  0.45594000000E+02  0.51100000000E-03 0.  1.
    9900012    2    1    2    0    0  0.22366936327E+02  0.19947422391E+02 -0.27476989831E+02  0.50528874691E+02  0.30000045111E+02 0.  0.
         12    1    1    2    0    0 -0.22366936327E+02 -0.19947422391E+02  0.27476989831E+02  0.40659125309E+02  0.00000000000E+00 0. -1.
         11    1    3    3    0    0  0.36311257571E+01  0.11163818073E+01 -0.13006836280E+02  0.13550246230E+02  0.51100000000E-03 0. -1.
        -11    1    3    3    0    0  0.17148448977E+02  0.17736109399E+02 -0.19593322369E+02  0.31504557776E+02  0.51100000000E-03 0.  1.
         12    1    3    3    0    0  0.15873615927E+01  0.10949311844E+01  0.51231688183E+01  0.54740706851E+01  0.00000000000E+00 0. -1.
</event>
<event>
 7    1  0.5329250E-013  0.5052886E+02  0.7816164E-02  0.1300439E+00
        -11   -1    0    0    0    0  0.00000000000E+00  0.00000000000E+00  0.45593999997E+02  0.45594000000E+02  0.51100000000E-03 0.  1.
         11   -1    0    0    0    0 -0.00000000000E+00 -0.00000000000E+00 -0.45593999997E+02  0.45594000000E+02  0.51100000000E-03 0. -1.
    9900012    2    1    2    0    0  0.17815283279E+02 -0.28265161880E+02  0.23170279700E+02  0.50528861349E+02  0.30000004558E+02 0.  0.
         12    1    1    2    0    0 -0.17815283279E+02  0.28265161880E+02 -0.23170279700E+02  0.40659138651E+02  0.00000000000E+00 0. -1.
         11    1    3    3    0    0 -0.32471533950E+01 -0.89509853275E+00  0.27415062857E+01  0.43429325955E+01  0.51100000000E-03 0. -1.
        -11    1    3    3    0    0  0.23408584956E+02 -0.20233792834E+02  0.22657656614E+02  0.38350197204E+02  0.51100000000E-03 0.  1.
         12    1    3    3    0    0 -0.23461482818E+01 -0.71362705134E+01 -0.22288831997E+01  0.78357315497E+01  0.00000000000E+00 0. -1.
</event>
<event>
 7    1  0.5329250E-013  0.5052886E+02  0.7816164E-02  0.1300439E+00
        -11   -1    0    0    0    0  0.00000000000E+00  0.00000000000E+00  0.45593999997E+02  0.45594000000E+02  0.51100000000E-03 0.  1.
         11   -1    0    0    0    0 -0.00000000000E+00 -0.00000000000E+00 -0.45593999997E+02  0.45594000000E+02  0.51100000000E-03 0. -1.
    9900012    2    1    2    0    0 -0.11962798413E+00 -0.73308292977E+01  0.39992627647E+02  0.50528860373E+02  0.30000001591E+02 0.  0.
         12    1    1    2    0    0  0.11962798413E+00  0.73308292977E+01 -0.39992627647E+02  0.40659139627E+02  0.00000000000E+00 0. -1.
         11    1    3    3    0    0  0.30091334039E+01 -0.56006890483E+01  0.34070896406E+02  0.34659033222E+02  0.51100000000E-03 0. -1.
        -11    1    3    3    0    0 -0.47265552280E+01  0.22049606643E+01  0.91520263209E+01  0.10533838896E+02  0.51100000000E-03 0.  1.
         12    1    3    3    0    0  0.15977938399E+01 -0.39351009138E+01 -0.32302950802E+01  0.53359882554E+01  0.00000000000E+00 0. -1.
</event>
<event>
 7    1  0.5329250E-013  0.5052887E+02  0.7816164E-02  0.1300439E+00
        -11   -1    0    0    0    0  0.00000000000E+00  0.00000000000E+00  0.45593999997E+02  0.45594000000E+02  0.51100000000E-03 0.  1.
         11   -1    0    0    0    0 -0.00000000000E+00 -0.00000000000E+00 -0.45593999997E+02  0.45594000000E+02  0.51100000000E-03 0. -1.
    9900012    2    1    2    0    0  0.31418346037E+02 -0.12276764470E+02  0.22700959058E+02  0.50528868729E+02  0.30000026989E+02 0.  0.
         12    1    1    2    0    0 -0.31418346037E+02  0.12276764470E+02 -0.22700959058E+02  0.40659131271E+02  0.00000000000E+00 0. -1.
         11    1    3    3    0    0 -0.71375328190E+00 -0.31709956472E+01  0.10565219305E+02  0.11053891458E+02  0.51100000000E-03 0. -1.
        -11    1    3    3    0    0  0.28859926581E+00 -0.73358557296E+00 -0.30974336006E+01  0.31961746668E+01  0.51100000000E-03 0.  1.
        -12    1    3    3    0    0  0.31843500053E+02 -0.83721832496E+01  0.15233173353E+02  0.36278802604E+02  0.00000000000E+00 0.  1.
</event>
<event>
 7    1  0.5329250E-013  0.5052886E+02  0.7816164E-02  0.1300439E+00
        -11   -1    0    0    0    0  0.00000000000E+00  0.00000000000E+00  0.45593999997E+02  0.45594000000E+02  0.51100000000E-03 0.  1.
         11   -1    0    0    0    0 -0.00000000000E+00 -0.00000000000E+00 -0.45593999997E+02  0.45594000000E+02  0.51100000000E-03 0. -1.
    9900012    2    1    2    0    0 -0.19952899083E+02 -0.28897630329E+02  0.20493278887E+02  0.50528859576E+02  0.29999999168E+02 0.  0.
         12    1    1    2    0    0  0.19952899083E+02  0.28897630329E+02 -0.20493278887E+02  0.40659140424E+02  0.00000000000E+00 0. -1.
         11    1    3    3    0    0 -0.37674229945E+01 -0.39123332211E+01  0.15105147530E+02  0.16051956561E+02  0.51100000000E-03 0. -1.
        -11    1    3    3    0    0  0.21226052927E+00 -0.11498524255E+02  0.65109957262E+01  0.13215679331E+02  0.51100000000E-03 0.  1.
        -12    1    3    3    0    0 -0.16397736618E+02 -0.13486772853E+02 -0.11228643693E+01  0.21261223685E+02  0.00000000000E+00 0.  1.
</event>
<event>
 7    1  0.5329250E-013  0.5052894E+02  0.7816164E-02  0.1300439E+00
        -11   -1    0    0    0    0  0.00000000000E+00  0.00000000000E+00  0.45593999997E+02  0.45594000000E+02  0.51100000000E-03 0.  1.
         11   -1    0    0    0    0 -0.00000000000E+00 -0.00000000000E+00 -0.45593999997E+02  0.45594000000E+02  0.51100000000E-03 0. -1.
    9900012    2    1    2    0    0  0.23875973975E+02 -0.25159198172E+02  0.21215834895E+02  0.50528941523E+02  0.30000248252E+02 0.  0.
         12    1    1    2    0    0 -0.23875973975E+02  0.25159198172E+02 -0.21215834895E+02  0.40659058477E+02  0.00000000000E+00 0. -1.
         11    1    3    3    0    0  0.15347212026E+02 -0.71045528257E+01  0.13020719757E+01  0.16961927352E+02  0.51100000000E-03 0. -1.
        -11    1    3    3    0    0  0.72814177349E+01 -0.34866483742E+01 -0.90834005461E+00  0.81240902895E+01  0.51100000000E-03 0.  1.
        -12    1    3    3    0    0  0.12473442149E+01 -0.14567996972E+02  0.20822102974E+02  0.25442923881E+02  0.00000000000E+00 0.  1.
</event>
<event>
 7    1  0.5329250E-013  0.5052886E+02  0.7816164E-02  0.1300439E+00
        -11   -1    0    0    0    0  0.00000000000E+00  0.00000000000E+00  0.45593999997E+02  0.45594000000E+02  0.51100000000E-03 0.  1.
         11   -1    0    0    0    0 -0.00000000000E+00 -0.00000000000E+00 -0.45593999997E+02  0.45594000000E+02  0.51100000000E-03 0. -1.
    9900012    2    1    2    0    0  0.39377878026E+02 -0.30272398331E+00  0.10122072713E+02  0.50528864794E+02  0.30000015029E+02 0.  0.
         12    1    1    2    0    0 -0.39377878026E+02  0.30272398331E+00 -0.10122072713E+02  0.40659135206E+02  0.00000000000E+00 0. -1.
         11    1    3    3    0    0  0.10312858845E+02 -0.67464567502E+01  0.82202861020E+01  0.14813603211E+02  0.51100000000E-03 0. -1.
        -11    1    3    3    0    0  0.26521686606E+02 -0.17784273970E+01  0.39373698149E+01  0.26871277338E+02  0.51100000000E-03 0.  1.
         12    1    3    3    0    0  0.25433325746E+01  0.82221601639E+01 -0.20355832040E+01  0.88439842450E+01  0.00000000000E+00 0. -1.
</event>
<event>
 7    1  0.5329250E-013  0.5052885E+02  0.7816164E-02  0.1300439E+00
        -11   -1    0    0    0    0  0.00000000000E+00  0.00000000000E+00  0.45593999997E+02  0.45594000000E+02  0.51100000000E-03 0.  1.
         11   -1    0    0    0    0 -0.00000000000E+00 -0.00000000000E+00 -0.45593999997E+02  0.45594000000E+02  0.51100000000E-03 0. -1.
    9900012    2    1    2    0    0 -0.35882964365E+02  0.12770431340E+02  0.14230076236E+02  0.50528854437E+02  0.29999983547E+02 0.  0.
         12    1    1    2    0    0  0.35882964365E+02 -0.12770431340E+02 -0.14230076236E+02  0.40659145563E+02  0.00000000000E+00 0. -1.
         11    1    3    3    0    0 -0.88784406000E+01  0.10676083699E+02 -0.24892261844E+01  0.14106796869E+02  0.51100000000E-03 0. -1.
        -11    1    3    3    0    0 -0.18380202282E+02  0.96983471654E+01  0.95411572847E+01  0.22867519679E+02  0.51100000000E-03 0.  1.
         12    1    3    3    0    0 -0.86243214831E+01 -0.76039995244E+01  0.71781451357E+01  0.13554537890E+02  0.00000000000E+00 0. -1.
</event>
<event>
 7    1  0.5329250E-013  0.5052884E+02  0.7816164E-02  0.1300439E+00
        -11   -1    0    0    0    0  0.00000000000E+00  0.00000000000E+00  0.45593999997E+02  0.45594000000E+02  0.51100000000E-03 0.  1.
         11   -1    0    0    0    0 -0.00000000000E+00 -0.00000000000E+00 -0.45593999997E+02  0.45594000000E+02  0.51100000000E-03 0. -1.
    9900012    2    1    2    0    0  0.21550656136E+02  0.25728144062E+02  0.22952109481E+02  0.50528837362E+02  0.29999931646E+02 0.  0.
         12    1    1    2    0    0 -0.21550656136E+02 -0.25728144062E+02 -0.22952109481E+02  0.40659162638E+02  0.00000000000E+00 0. -1.
         11    1    3    3    0    0  0.11988673347E+02  0.14953668957E+02  0.23101627687E+02  0.30017090232E+02  0.51100000000E-03 0. -1.
        -11    1    3    3    0    0  0.35207127451E+01  0.11265668364E+02  0.47450040167E+01  0.12721075635E+02  0.51100000000E-03 0.  1.
        -12    1    3    3    0    0  0.60412700438E+01 -0.49119325920E+00 -0.48945222231E+01  0.77906714956E+01  0.00000000000E+00 0.  1.
</event>
<event>
 7    1  0.5329250E-013  0.5052885E+02  0.7816164E-02  0.1300439E+00
        -11   -1    0    0    0    0  0.00000000000E+00  0.00000000000E+00  0.45593999997E+02  0.45594000000E+02  0.51100000000E-03 0.  1.
         11   -1    0    0    0    0 -0.00000000000E+00 -0.00000000000E+00 -0.45593999997E+02  0.45594000000E+02  0.51100000000E-03 0. -1.
    9900012    2    1    2    0    0  0.13093817890E+02  0.19292911773E+02  0.33309181982E+02  0.50528854462E+02  0.29999983622E+02 0.  0.
         12    1    1    2    0    0 -0.13093817890E+02 -0.19292911773E+02 -0.33309181982E+02  0.40659145538E+02  0.00000000000E+00 0. -1.
         11    1    3    3    0    0 -0.17953505752E+01 -0.23176137845E+01  0.62415001916E+01  0.68957191245E+01  0.51100000000E-03 0.  1.
        -11    1    3    3    0    0  0.27409750824E+01  0.96374420305E+00 -0.36586123698E+01  0.46719580504E+01  0.51100000000E-03 0. -1.
        -12    1    3    3    0    0  0.12148193383E+02  0.20646781354E+02  0.30726294160E+02  0.38961177287E+02  0.00000000000E+00 0.  1.
</event>
<event>
 7    1  0.5329250E-013  0.5052886E+02  0.7816164E-02  0.1300439E+00
        -11   -1    0    0    0    0  0.00000000000E+00  0.00000000000E+00  0.45593999997E+02  0.45594000000E+02  0.51100000000E-03 0. -1.
         11   -1    0    0    0    0 -0.00000000000E+00 -0.00000000000E+00 -0.45593999997E+02  0.45594000000E+02  0.51100000000E-03 0.  1.
    9900012    2    1    2    0    0 -0.27832970649E+02  0.18707533869E+02 -0.22989548341E+02  0.50528863123E+02  0.30000009950E+02 0.  0.
         12    1    1    2    0    0  0.27832970649E+02 -0.18707533869E+02  0.22989548341E+02  0.40659136877E+02  0.00000000000E+00 0. -1.
         11    1    3    3    0    0 -0.84054877556E+01  0.89986582022E+01  0.52020357016E+01  0.13367469826E+02  0.51100000000E-03 0. -1.
        -11    1    3    3    0    0 -0.20208266616E+01  0.59715938424E+01 -0.59156434111E+01  0.86451437607E+01  0.51100000000E-03 0.  1.
         12    1    3    3    0    0 -0.17406656232E+02  0.37372818248E+01 -0.22275940632E+02  0.28516249537E+02  0.00000000000E+00 0. -1.
</event>
<event>
 7    1  0.5329250E-013  0.5052882E+02  0.7816164E-02  0.1300439E+00
        -11   -1    0    0    0    0  0.00000000000E+00  0.00000000000E+00  0.45593999997E+02  0.45594000000E+02  0.51100000000E-03 0.  1.
         11   -1    0    0    0    0 -0.00000000000E+00 -0.00000000000E+00 -0.45593999997E+02  0.45594000000E+02  0.51100000000E-03 0. -1.
    9900012    2    1    2    0    0 -0.20197016497E+02  0.33676415997E+02  0.10542707568E+02  0.50528817118E+02  0.29999870110E+02 0.  0.
         12    1    1    2    0    0  0.20197016497E+02 -0.33676415997E+02 -0.10542707568E+02  0.40659182882E+02  0.00000000000E+00 0. -1.
         11    1    3    3    0    0 -0.15922722798E+01  0.82075647174E+01 -0.65424640484E+01  0.10616180372E+02  0.51100000000E-03 0. -1.
        -11    1    3    3    0    0 -0.18803471206E+01 -0.24937892349E+01  0.17228306378E-02  0.31232504336E+01  0.51100000000E-03 0.  1.
         12    1    3    3    0    0 -0.16724397097E+02  0.27962640514E+02  0.17083448786E+02  0.36789386312E+02  0.00000000000E+00 0. -1.
</event>
<event>
 7    1  0.5329250E-013  0.5052887E+02  0.7816164E-02  0.1300439E+00
        -11   -1    0    0    0    0  0.00000000000E+00  0.00000000000E+00  0.45593999997E+02  0.45594000000E+02  0.51100000000E-03 0.  1.
         11   -1    0    0    0    0 -0.00000000000E+00 -0.00000000000E+00 -0.45593999997E+02  0.45594000000E+02  0.51100000000E-03 0. -1.
    9900012    2    1    2    0    0  0.40295617989E+02 -0.34278330157E+01  0.42044842387E+01  0.50528873644E+02  0.30000041930E+02 0.  0.
         12    1    1    2    0    0 -0.40295617989E+02  0.34278330157E+01 -0.42044842387E+01  0.40659126356E+02  0.00000000000E+00 0. -1.
         11    1    3    3    0    0  0.23525168265E+02  0.63576269891E+00  0.14680047392E+02  0.27737006468E+02  0.51100000000E-03 0.  1.
        -11    1    3    3    0    0  0.15499125710E+01 -0.45813304094E+01 -0.12848092827E+01  0.50041535200E+01  0.51100000000E-03 0. -1.
        -12    1    3    3    0    0  0.15220537153E+02  0.51773469474E+00 -0.91907538701E+01  0.17787713657E+02  0.00000000000E+00 0.  1.
</event>
<event>
 7    1  0.5329250E-013  0.5052886E+02  0.7816164E-02  0.1300439E+00
        -11   -1    0    0    0    0  0.00000000000E+00  0.00000000000E+00  0.45593999997E+02  0.45594000000E+02  0.51100000000E-03 0.  1.
         11   -1    0    0    0    0 -0.00000000000E+00 -0.00000000000E+00 -0.45593999997E+02  0.45594000000E+02  0.51100000000E-03 0. -1.
    9900012    2    1    2    0    0  0.38669430265E+02  0.12110586519E+02  0.33428295386E+01  0.50528860164E+02  0.30000000955E+02 0.  0.
         12    1    1    2    0    0 -0.38669430265E+02 -0.12110586519E+02 -0.33428295386E+01  0.40659139836E+02  0.00000000000E+00 0. -1.
         11    1    3    3    0    0  0.33819041154E+01  0.15795401227E+01  0.32067775748E+01  0.49209394551E+01  0.51100000000E-03 0. -1.
        -11    1    3    3    0    0  0.20533767993E+02 -0.70756879457E+01 -0.44842917021E+01  0.22176786517E+02  0.51100000000E-03 0.  1.
        -12    1    3    3    0    0  0.14753758157E+02  0.17606734342E+02  0.46203436659E+01  0.23431134192E+02  0.00000000000E+00 0.  1.
</event>
<event>
 7    1  0.5329250E-013  0.5052889E+02  0.7816164E-02  0.1300439E+00
        -11   -1    0    0    0    0  0.00000000000E+00  0.00000000000E+00  0.45593999997E+02  0.45594000000E+02  0.51100000000E-03 0. -1.
         11   -1    0    0    0    0 -0.00000000000E+00 -0.00000000000E+00 -0.45593999997E+02  0.45594000000E+02  0.51100000000E-03 0.  1.
    9900012    2    1    2    0    0  0.37204913444E+02 -0.51325001434E+01  0.15576116675E+02  0.50528885982E+02  0.30000079430E+02 0.  0.
         12    1    1    2    0    0 -0.37204913444E+02  0.51325001434E+01 -0.15576116675E+02  0.40659114018E+02  0.00000000000E+00 0. -1.
         11    1    3    3    0    0  0.11817454775E+02  0.35770753102E+01  0.12987083602E+02  0.17919599490E+02  0.51100000000E-03 0. -1.
        -11    1    3    3    0    0  0.63775961894E+01 -0.82847094034E+01  0.76236041742E+01  0.12939454545E+02  0.51100000000E-03 0.  1.
        -12    1    3    3    0    0  0.19009862479E+02 -0.42486605018E+00 -0.50345711013E+01  0.19669831947E+02  0.00000000000E+00 0.  1.
</event>
<event>
 7    1  0.5329250E-013  0.5052887E+02  0.7816164E-02  0.1300439E+00
        -11   -1    0    0    0    0  0.00000000000E+00  0.00000000000E+00  0.45593999997E+02  0.45594000000E+02  0.51100000000E-03 0. -1.
         11   -1    0    0    0    0 -0.00000000000E+00 -0.00000000000E+00 -0.45593999997E+02  0.45594000000E+02  0.51100000000E-03 0.  1.
    9900012    2    1    2    0    0 -0.12893572569E+02  0.35486520625E+02  0.15087335935E+02  0.50528867382E+02  0.30000022893E+02 0.  0.
         12    1    1    2    0    0  0.12893572569E+02 -0.35486520625E+02 -0.15087335935E+02  0.40659132618E+02  0.00000000000E+00 0. -1.
         11    1    3    3    0    0 -0.74984410477E+01  0.24700808824E+01 -0.15564858019E+01  0.80467736406E+01  0.51100000000E-03 0. -1.
        -11    1    3    3    0    0 -0.11776496663E+02  0.16322320467E+02  0.38234073294E+01  0.20487129202E+02  0.51100000000E-03 0.  1.
        -12    1    3    3    0    0  0.63813651419E+01  0.16694119276E+02  0.12820414408E+02  0.21994964539E+02  0.00000000000E+00 0.  1.
</event>
<event>
 7    1  0.5329250E-013  0.5052886E+02  0.7816164E-02  0.1300439E+00
        -11   -1    0    0    0    0  0.00000000000E+00  0.00000000000E+00  0.45593999997E+02  0.45594000000E+02  0.51100000000E-03 0. -1.
         11   -1    0    0    0    0 -0.00000000000E+00 -0.00000000000E+00 -0.45593999997E+02  0.45594000000E+02  0.51100000000E-03 0.  1.
    9900012    2    1    2    0    0 -0.90007664106E+00  0.40358046811E+02 -0.48562572361E+01  0.50528864314E+02  0.30000013569E+02 0.  0.
         12    1    1    2    0    0  0.90007664106E+00 -0.40358046811E+02  0.48562572361E+01  0.40659135686E+02  0.00000000000E+00 0. -1.
         11    1    3    3    0    0 -0.38253709263E+01  0.10778850668E+02 -0.97526933945E+01  0.15031038326E+02  0.51100000000E-03 0. -1.
        -11    1    3    3    0    0  0.61775381616E+01  0.18378131168E+02 -0.51972116323E+01  0.20073083769E+02  0.51100000000E-03 0.  1.
         12    1    3    3    0    0 -0.32522438763E+01  0.11201064975E+02  0.10093647791E+02  0.15424742219E+02  0.00000000000E+00 0. -1.
</event>
<event>
 7    1  0.5329250E-013  0.5052886E+02  0.7816164E-02  0.1300439E+00
        -11   -1    0    0    0    0  0.00000000000E+00  0.00000000000E+00  0.45593999997E+02  0.45594000000E+02  0.51100000000E-03 0. -1.
         11   -1    0    0    0    0 -0.00000000000E+00 -0.00000000000E+00 -0.45593999997E+02  0.45594000000E+02  0.51100000000E-03 0.  1.
    9900012    2    1    2    0    0 -0.12046808282E+01  0.35159020374E+02 -0.20385229649E+02  0.50528861329E+02  0.30000004497E+02 0.  0.
         12    1    1    2    0    0  0.12046808282E+01 -0.35159020374E+02  0.20385229649E+02  0.40659138671E+02  0.00000000000E+00 0. -1.
         11    1    3    3    0    0 -0.15792712298E+01  0.53341166369E+01  0.10287821264E+00  0.55639448327E+01  0.51100000000E-03 0. -1.
        -11    1    3    3    0    0 -0.32511230282E+01  0.60276344516E+00 -0.14556373318E+02  0.14927194282E+02  0.51100000000E-03 0.  1.
         12    1    3    3    0    0  0.36257134298E+01  0.29222140292E+02 -0.59317345440E+01  0.30037722215E+02  0.00000000000E+00 0. -1.
</event>
<event>
 7    1  0.5329250E-013  0.5052887E+02  0.7816164E-02  0.1300439E+00
        -11   -1    0    0    0    0  0.00000000000E+00  0.00000000000E+00  0.45593999997E+02  0.45594000000E+02  0.51100000000E-03 0.  1.
         11   -1    0    0    0    0 -0.00000000000E+00 -0.00000000000E+00 -0.45593999997E+02  0.45594000000E+02  0.51100000000E-03 0. -1.
    9900012    2    1    2    0    0  0.23051542054E+02 -0.21928549661E+02  0.25316602253E+02  0.50528865345E+02  0.30000016701E+02 0.  0.
         12    1    1    2    0    0 -0.23051542054E+02  0.21928549661E+02 -0.25316602253E+02  0.40659134655E+02  0.00000000000E+00 0. -1.
         11    1    3    3    0    0  0.18774921625E+00  0.17922799087E+01 -0.22621247425E+01  0.28921835438E+01  0.51100000000E-03 0. -1.
        -11    1    3    3    0    0  0.10886790821E+02  0.14073343050E+01  0.86177882859E+01  0.13955969312E+02  0.51100000000E-03 0.  1.
        -12    1    3    3    0    0  0.11977002016E+02 -0.25128163874E+02  0.18960938710E+02  0.33680712489E+02  0.00000000000E+00 0.  1.
</event>
<event>
 7    1  0.5329250E-013  0.5052885E+02  0.7816164E-02  0.1300439E+00
        -11   -1    0    0    0    0  0.00000000000E+00  0.00000000000E+00  0.45593999997E+02  0.45594000000E+02  0.51100000000E-03 0.  1.
         11   -1    0    0    0    0 -0.00000000000E+00 -0.00000000000E+00 -0.45593999997E+02  0.45594000000E+02  0.51100000000E-03 0. -1.
    9900012    2    1    2    0    0 -0.14683254570E+02 -0.44018356263E+01  0.37658890961E+02  0.50528853550E+02  0.29999980851E+02 0.  0.
         12    1    1    2    0    0  0.14683254570E+02  0.44018356263E+01 -0.37658890961E+02  0.40659146450E+02  0.00000000000E+00 0. -1.
         11    1    3    3    0    0 -0.70805082598E+01  0.34383918160E+01 -0.85036246085E+00  0.79170229300E+01  0.51100000000E-03 0. -1.
        -11    1    3    3    0    0 -0.24772326029E+01 -0.87670494780E+01  0.95908145352E+01  0.13228059632E+02  0.51100000000E-03 0.  1.
         12    1    3    3    0    0 -0.51255137071E+01  0.92682203560E+00  0.28918438886E+02  0.29383770988E+02  0.00000000000E+00 0. -1.
</event>
<event>
 7    1  0.5329250E-013  0.5052888E+02  0.7816164E-02  0.1300439E+00
        -11   -1    0    0    0    0  0.00000000000E+00  0.00000000000E+00  0.45593999997E+02  0.45594000000E+02  0.51100000000E-03 0.  1.
         11   -1    0    0    0    0 -0.00000000000E+00 -0.00000000000E+00 -0.45593999997E+02  0.45594000000E+02  0.51100000000E-03 0. -1.
    9900012    2    1    2    0    0  0.18228577017E+01  0.21430370810E+02  0.34504793255E+02  0.50528876044E+02  0.30000049223E+02 0.  0.
         12    1    1    2    0    0 -0.18228577017E+01 -0.21430370810E+02 -0.34504793255E+02  0.40659123956E+02  0.00000000000E+00 0. -1.
         11    1    3    3    0    0  0.60301300734E+01  0.10729980184E+02  0.33367085351E+01  0.12752590622E+02  0.51100000000E-03 0. -1.
        -11    1    3    3    0    0  0.59067655448E+01  0.20356246174E+01  0.17975036432E+02  0.19029860266E+02  0.51100000000E-03 0.  1.
         12    1    3    3    0    0 -0.10114037917E+02  0.86647660085E+01  0.13193048289E+02  0.18746425156E+02  0.00000000000E+00 0. -1.
</event>
<event>
 7    1  0.5329250E-013  0.5052885E+02  0.7816164E-02  0.1300439E+00
        -11   -1    0    0    0    0  0.00000000000E+00  0.00000000000E+00  0.45593999997E+02  0.45594000000E+02  0.51100000000E-03 0.  1.
         11   -1    0    0    0    0 -0.00000000000E+00 -0.00000000000E+00 -0.45593999997E+02  0.45594000000E+02  0.51100000000E-03 0. -1.
    9900012    2    1    2    0    0  0.32747730159E+02  0.13064477105E+02  0.20250236025E+02  0.50528850333E+02  0.29999971072E+02 0.  0.
         12    1    1    2    0    0 -0.32747730159E+02 -0.13064477105E+02 -0.20250236025E+02  0.40659149667E+02  0.00000000000E+00 0. -1.
         11    1    3    3    0    0  0.54391706094E+01  0.84242040805E+01 -0.20738530039E+01  0.10239758681E+02  0.51100000000E-03 0. -1.
        -11    1    3    3    0    0  0.13813881450E+02  0.66264066558E+01  0.21791868816E+02  0.26638658612E+02  0.51100000000E-03 0.  1.
         12    1    3    3    0    0  0.13494678100E+02 -0.19861336310E+01  0.53222021254E+00  0.13650433040E+02  0.00000000000E+00 0. -1.
</event>
<event>
 7    1  0.5329250E-013  0.5052886E+02  0.7816164E-02  0.1300439E+00
        -11   -1    0    0    0    0  0.00000000000E+00  0.00000000000E+00  0.45593999997E+02  0.45594000000E+02  0.51100000000E-03 0. -1.
         11   -1    0    0    0    0 -0.00000000000E+00 -0.00000000000E+00 -0.45593999997E+02  0.45594000000E+02  0.51100000000E-03 0.  1.
    9900012    2    1    2    0    0  0.21851290659E+02 -0.30846662637E+02 -0.14972315281E+02  0.50528859279E+02  0.29999998263E+02 0.  0.
         12    1    1    2    0    0 -0.21851290659E+02  0.30846662637E+02  0.14972315281E+02  0.40659140721E+02  0.00000000000E+00 0. -1.
         11    1    3    3    0    0  0.62522953120E+01 -0.25516113697E+02 -0.31909767029E+01  0.26464043294E+02  0.51100000000E-03 0. -1.
        -11    1    3    3    0    0 -0.28383772722E+00 -0.27674619523E+01 -0.66006218024E+01  0.71629336135E+01  0.51100000000E-03 0.  1.
        -12    1    3    3    0    0  0.15882833075E+02 -0.25630869875E+01 -0.51807167760E+01  0.16901882371E+02  0.00000000000E+00 0.  1.
</event>
<event>
 7    1  0.5329250E-013  0.5052887E+02  0.7816164E-02  0.1300439E+00
        -11   -1    0    0    0    0  0.00000000000E+00  0.00000000000E+00  0.45593999997E+02  0.45594000000E+02  0.51100000000E-03 0. -1.
         11   -1    0    0    0    0 -0.00000000000E+00 -0.00000000000E+00 -0.45593999997E+02  0.45594000000E+02  0.51100000000E-03 0.  1.
    9900012    2    1    2    0    0  0.19000991178E+02  0.34270411131E+02 -0.10847411973E+02  0.50528867062E+02  0.30000021921E+02 0.  0.
         12    1    1    2    0    0 -0.19000991178E+02 -0.34270411131E+02  0.10847411973E+02  0.40659132938E+02  0.00000000000E+00 0. -1.
         11    1    3    3    0    0 -0.23117991060E+01  0.57396079602E+01 -0.26860679097E+01  0.67455522917E+01  0.51100000000E-03 0. -1.
        -11    1    3    3    0    0  0.25083548415E+01  0.54737124710E+01 -0.12347520983E+02  0.13737344973E+02  0.51100000000E-03 0.  1.
        -12    1    3    3    0    0  0.18804435442E+02  0.23057090699E+02  0.41861769204E+01  0.30045969797E+02  0.00000000000E+00 0.  1.
</event>
<event>
 7    1  0.5329250E-013  0.5052886E+02  0.7816164E-02  0.1300439E+00
        -11   -1    0    0    0    0  0.00000000000E+00  0.00000000000E+00  0.45593999997E+02  0.45594000000E+02  0.51100000000E-03 0.  1.
         11   -1    0    0    0    0 -0.00000000000E+00 -0.00000000000E+00 -0.45593999997E+02  0.45594000000E+02  0.51100000000E-03 0. -1.
    9900012    2    1    2    0    0 -0.36774479633E+02 -0.17314320074E+02 -0.10088264176E+01  0.50528858806E+02  0.29999996827E+02 0.  0.
         12    1    1    2    0    0  0.36774479633E+02  0.17314320074E+02  0.10088264176E+01  0.40659141194E+02  0.00000000000E+00 0. -1.
         11    1    3    3    0    0 -0.24824004069E+02 -0.47969964367E+01 -0.40912249967E+01  0.25612115787E+02  0.51100000000E-03 0. -1.
        -11    1    3    3    0    0 -0.44454137249E+01  0.41056569093E+01  0.28201473323E+01  0.66761780293E+01  0.51100000000E-03 0.  1.
         12    1    3    3    0    0 -0.75050618388E+01 -0.16622980546E+02  0.26225124687E+00  0.18240564990E+02  0.00000000000E+00 0. -1.
</event>
<event>
 7    1  0.5329250E-013  0.5052885E+02  0.7816164E-02  0.1300439E+00
        -11   -1    0    0    0    0  0.00000000000E+00  0.00000000000E+00  0.45593999997E+02  0.45594000000E+02  0.51100000000E-03 0. -1.
         11   -1    0    0    0    0 -0.00000000000E+00 -0.00000000000E+00 -0.45593999997E+02  0.45594000000E+02  0.51100000000E-03 0.  1.
    9900012    2    1    2    0    0 -0.38509995676E+02  0.12810003043E+02 -0.24597681856E+01  0.50528850913E+02  0.29999972835E+02 0.  0.
         12    1    1    2    0    0  0.38509995676E+02 -0.12810003043E+02  0.24597681856E+01  0.40659149087E+02  0.00000000000E+00 0. -1.
         11    1    3    3    0    0 -0.17173562754E+02  0.22265265128E+00  0.29735712947E+01  0.17430518018E+02  0.51100000000E-03 0.  1.
        -11    1    3    3    0    0 -0.86841106294E+01 -0.52145000321E+01  0.13735968863E+01  0.10222111165E+02  0.51100000000E-03 0. -1.
         12    1    3    3    0    0 -0.12652322293E+02  0.17801850424E+02 -0.68069363666E+01  0.22876221730E+02  0.00000000000E+00 0. -1.
</event>
<event>
 7    1  0.5329250E-013  0.5052888E+02  0.7816164E-02  0.1300439E+00
        -11   -1    0    0    0    0  0.00000000000E+00  0.00000000000E+00  0.45593999997E+02  0.45594000000E+02  0.51100000000E-03 0. -1.
         11   -1    0    0    0    0 -0.00000000000E+00 -0.00000000000E+00 -0.45593999997E+02  0.45594000000E+02  0.51100000000E-03 0.  1.
    9900012    2    1    2    0    0 -0.36794687679E+02 -0.16076784169E+02 -0.63915541410E+01  0.50528880544E+02  0.30000062901E+02 0.  0.
         12    1    1    2    0    0  0.36794687679E+02  0.16076784169E+02  0.63915541410E+01  0.40659119456E+02  0.00000000000E+00 0. -1.
         11    1    3    3    0    0 -0.99991957675E+01 -0.96032185846E+01 -0.53030641387E+01  0.14843456899E+02  0.51100000000E-03 0.  1.
        -11    1    3    3    0    0 -0.26283445007E+02 -0.99850821678E+00 -0.73910913177E+01  0.27321140738E+02  0.51100000000E-03 0. -1.
         12    1    3    3    0    0 -0.51204690472E+00 -0.54750573672E+01  0.63026013154E+01  0.83642829070E+01  0.00000000000E+00 0. -1.
</event>
<event>
 7    1  0.5329250E-013  0.5052886E+02  0.7816164E-02  0.1300439E+00
        -11   -1    0    0    0    0  0.00000000000E+00  0.00000000000E+00  0.45593999997E+02  0.45594000000E+02  0.51100000000E-03 0.  1.
         11   -1    0    0    0    0 -0.00000000000E+00 -0.00000000000E+00 -0.45593999997E+02  0.45594000000E+02  0.51100000000E-03 0. -1.
    9900012    2    1    2    0    0  0.17459317648E+02  0.50292951555E+01  0.36373671846E+02  0.50528860977E+02  0.30000003427E+02 0.  0.
         12    1    1    2    0    0 -0.17459317648E+02 -0.50292951555E+01 -0.36373671846E+02  0.40659139023E+02  0.00000000000E+00 0. -1.
         11    1    3    3    0    0 -0.10827129786E+01 -0.24807159102E+01 -0.94093862716E+00  0.28655862546E+01  0.51100000000E-03 0. -1.
        -11    1    3    3    0    0  0.41260496413E+00 -0.32592490208E+01  0.20311004120E+02  0.20574980818E+02  0.51100000000E-03 0.  1.
        -12    1    3    3    0    0  0.18129425663E+02  0.10769260086E+02  0.17003606353E+02  0.27088293905E+02  0.00000000000E+00 0.  1.
</event>
<event>
 7    1  0.5329250E-013  0.5052900E+02  0.7816164E-02  0.1300438E+00
        -11   -1    0    0    0    0  0.00000000000E+00  0.00000000000E+00  0.45593999997E+02  0.45594000000E+02  0.51100000000E-03 0.  1.
         11   -1    0    0    0    0 -0.00000000000E+00 -0.00000000000E+00 -0.45593999997E+02  0.45594000000E+02  0.51100000000E-03 0. -1.
    9900012    2    1    2    0    0  0.37720037903E+01  0.14056738995E+02  0.37964908407E+02  0.50529001068E+02  0.30000429243E+02 0.  0.
         12    1    1    2    0    0 -0.37720037903E+01 -0.14056738995E+02 -0.37964908407E+02  0.40658998932E+02  0.00000000000E+00 0. -1.
         11    1    3    3    0    0  0.47845127461E+01  0.13590132957E+02  0.17097782996E+02  0.22358834041E+02  0.51100000000E-03 0. -1.
        -11    1    3    3    0    0  0.24527896846E+01  0.19174620428E+01 -0.28117741772E+01  0.41951057445E+01  0.51100000000E-03 0.  1.
         12    1    3    3    0    0 -0.34652986405E+01 -0.14508560043E+01  0.23678899588E+02  0.23975061283E+02  0.00000000000E+00 0. -1.
</event>
<event>
 7    1  0.5329250E-013  0.5052886E+02  0.7816164E-02  0.1300439E+00
        -11   -1    0    0    0    0  0.00000000000E+00  0.00000000000E+00  0.45593999997E+02  0.45594000000E+02  0.51100000000E-03 0. -1.
         11   -1    0    0    0    0 -0.00000000000E+00 -0.00000000000E+00 -0.45593999997E+02  0.45594000000E+02  0.51100000000E-03 0.  1.
    9900012    2    1    2    0    0 -0.29816064169E+02  0.25895343397E+02  0.96746711699E+01  0.50528858907E+02  0.29999997133E+02 0.  0.
         12    1    1    2    0    0  0.29816064169E+02 -0.25895343397E+02 -0.96746711699E+01  0.40659141093E+02  0.00000000000E+00 0. -1.
         11    1    3    3    0    0  0.21405129478E+01  0.54378561931E+01  0.10784720634E+02  0.12266306497E+02  0.51100000000E-03 0. -1.
        -11    1    3    3    0    0 -0.30081080744E+01  0.27115231542E+01 -0.14626346589E+01  0.43058532731E+01  0.51100000000E-03 0.  1.
         12    1    3    3    0    0 -0.28948469042E+02  0.17745964050E+02  0.35258519467E+00  0.33956699137E+02  0.00000000000E+00 0. -1.
</event>
<event>
 7    1  0.5329250E-013  0.5052885E+02  0.7816164E-02  0.1300439E+00
        -11   -1    0    0    0    0  0.00000000000E+00  0.00000000000E+00  0.45593999997E+02  0.45594000000E+02  0.51100000000E-03 0.  1.
         11   -1    0    0    0    0 -0.00000000000E+00 -0.00000000000E+00 -0.45593999997E+02  0.45594000000E+02  0.51100000000E-03 0. -1.
    9900012    2    1    2    0    0 -0.17270392908E+01 -0.49633826221E+01  0.40318093191E+02  0.50528850103E+02  0.29999970374E+02 0.  0.
         12    1    1    2    0    0  0.17270392908E+01  0.49633826221E+01 -0.40318093191E+02  0.40659149897E+02  0.00000000000E+00 0. -1.
         11    1    3    3    0    0 -0.26141661578E+01 -0.26819757450E+01 -0.21733835406E+01  0.43301795428E+01  0.51100000000E-03 0. -1.
        -11    1    3    3    0    0 -0.82435879135E+01 -0.96638178952E-01  0.14565601590E+02  0.16736870393E+02  0.51100000000E-03 0.  1.
        -12    1    3    3    0    0  0.91307147805E+01 -0.21847686981E+01  0.27925875142E+02  0.29461800167E+02  0.00000000000E+00 0.  1.
</event>
<event>
 7    1  0.5329250E-013  0.5052886E+02  0.7816164E-02  0.1300439E+00
        -11   -1    0    0    0    0  0.00000000000E+00  0.00000000000E+00  0.45593999997E+02  0.45594000000E+02  0.51100000000E-03 0. -1.
         11   -1    0    0    0    0 -0.00000000000E+00 -0.00000000000E+00 -0.45593999997E+02  0.45594000000E+02  0.51100000000E-03 0.  1.
    9900012    2    1    2    0    0  0.24472356479E+02  0.90270324761E+01 -0.31189450181E+02  0.50528863885E+02  0.30000012266E+02 0.  0.
         12    1    1    2    0    0 -0.24472356479E+02 -0.90270324761E+01  0.31189450181E+02  0.40659136115E+02  0.00000000000E+00 0. -1.
         11    1    3    3    0    0  0.66870943670E+01  0.92524623378E+01 -0.12969894397E+02  0.17278409977E+02  0.51100000000E-03 0. -1.
        -11    1    3    3    0    0 -0.23652030888E+01  0.31107563421E+01  0.21029177350E+01  0.44377081847E+01  0.51100000000E-03 0.  1.
        -12    1    3    3    0    0  0.20150465201E+02 -0.33361862038E+01 -0.20322473519E+02  0.28812745724E+02  0.00000000000E+00 0.  1.
</event>
<event>
 7    1  0.5329250E-013  0.5052886E+02  0.7816164E-02  0.1300439E+00
        -11   -1    0    0    0    0  0.00000000000E+00  0.00000000000E+00  0.45593999997E+02  0.45594000000E+02  0.51100000000E-03 0.  1.
         11   -1    0    0    0    0 -0.00000000000E+00 -0.00000000000E+00 -0.45593999997E+02  0.45594000000E+02  0.51100000000E-03 0. -1.
    9900012    2    1    2    0    0 -0.30311781018E+02  0.21703260490E+02  0.16227459164E+02  0.50528855699E+02  0.29999987382E+02 0.  0.
         12    1    1    2    0    0  0.30311781018E+02 -0.21703260490E+02 -0.16227459164E+02  0.40659144301E+02  0.00000000000E+00 0. -1.
         11    1    3    3    0    0 -0.14290520381E+02 -0.21614353114E+01  0.67008016437E+01  0.15930835455E+02  0.51100000000E-03 0. -1.
        -11    1    3    3    0    0 -0.11043717163E+02  0.73736774453E+01 -0.26007181695E+01  0.13531391026E+02  0.51100000000E-03 0.  1.
         12    1    3    3    0    0 -0.49775434739E+01  0.16491018356E+02  0.12127375690E+02  0.21066629217E+02  0.00000000000E+00 0. -1.
</event>
<event>
 7    1  0.5329250E-013  0.5052887E+02  0.7816164E-02  0.1300439E+00
        -11   -1    0    0    0    0  0.00000000000E+00  0.00000000000E+00  0.45593999997E+02  0.45594000000E+02  0.51100000000E-03 0.  1.
         11   -1    0    0    0    0 -0.00000000000E+00 -0.00000000000E+00 -0.45593999997E+02  0.45594000000E+02  0.51100000000E-03 0. -1.
    9900012    2    1    2    0    0 -0.64308993929E+00  0.50020551708E+01  0.40345149222E+02  0.50528865893E+02  0.30000018369E+02 0.  0.
         12    1    1    2    0    0  0.64308993929E+00 -0.50020551708E+01 -0.40345149222E+02  0.40659134107E+02  0.00000000000E+00 0. -1.
         11    1    3    3    0    0 -0.34637878192E+01  0.43344715334E+01  0.20460939613E+02  0.21199894330E+02  0.51100000000E-03 0. -1.
        -11    1    3    3    0    0 -0.11266087575E+01 -0.25999702316E+01  0.23103990514E+02  0.23277101847E+02  0.51100000000E-03 0.  1.
         12    1    3    3    0    0  0.39473066375E+01  0.32675538689E+01 -0.32197809046E+01  0.60518697152E+01  0.00000000000E+00 0. -1.
</event>
<event>
 7    1  0.5329250E-013  0.5052886E+02  0.7816164E-02  0.1300439E+00
        -11   -1    0    0    0    0  0.00000000000E+00  0.00000000000E+00  0.45593999997E+02  0.45594000000E+02  0.51100000000E-03 0. -1.
         11   -1    0    0    0    0 -0.00000000000E+00 -0.00000000000E+00 -0.45593999997E+02  0.45594000000E+02  0.51100000000E-03 0.  1.
    9900012    2    1    2    0    0 -0.14829925339E+02  0.16335740243E+01 -0.37822880243E+02  0.50528861795E+02  0.30000005913E+02 0.  0.
         12    1    1    2    0    0  0.14829925339E+02 -0.16335740243E+01  0.37822880243E+02  0.40659138205E+02  0.00000000000E+00 0. -1.
         11    1    3    3    0    0  0.42981292052E+01  0.46053232285E+01 -0.75581329171E+01  0.98391203955E+01  0.51100000000E-03 0. -1.
        -11    1    3    3    0    0  0.22122043016E+00 -0.70284978182E+01 -0.11202442499E+02  0.13226618550E+02  0.51100000000E-03 0.  1.
         12    1    3    3    0    0 -0.19349274975E+02  0.40567486140E+01 -0.19062304827E+02  0.27463122850E+02  0.00000000000E+00 0. -1.
</event>
<event>
 7    1  0.5329250E-013  0.5052887E+02  0.7816164E-02  0.1300439E+00
        -11   -1    0    0    0    0  0.00000000000E+00  0.00000000000E+00  0.45593999997E+02  0.45594000000E+02  0.51100000000E-03 0.  1.
         11   -1    0    0    0    0 -0.00000000000E+00 -0.00000000000E+00 -0.45593999997E+02  0.45594000000E+02  0.51100000000E-03 0. -1.
    9900012    2    1    2    0    0 -0.19859556599E+02 -0.22880557415E+02  0.27115364521E+02  0.50528869549E+02  0.30000029481E+02 0.  0.
         12    1    1    2    0    0  0.19859556599E+02  0.22880557415E+02 -0.27115364521E+02  0.40659130451E+02  0.00000000000E+00 0. -1.
         11    1    3    3    0    0 -0.10823487451E+02 -0.27242906763E+02  0.23845738282E+02  0.37788134169E+02  0.51100000000E-03 0.  1.
        -11    1    3    3    0    0 -0.30104470837E+01  0.11885808813E+00 -0.20564686651E+01  0.36477366298E+01  0.51100000000E-03 0. -1.
        -12    1    3    3    0    0 -0.60256220642E+01  0.42434912600E+01  0.53260949043E+01  0.90929987498E+01  0.00000000000E+00 0.  1.
</event>
<event>
 7    1  0.5329250E-013  0.5052884E+02  0.7816164E-02  0.1300439E+00
        -11   -1    0    0    0    0  0.00000000000E+00  0.00000000000E+00  0.45593999997E+02  0.45594000000E+02  0.51100000000E-03 0.  1.
         11   -1    0    0    0    0 -0.00000000000E+00 -0.00000000000E+00 -0.45593999997E+02  0.45594000000E+02  0.51100000000E-03 0. -1.
    9900012    2    1    2    0    0 -0.23640003788E+02 -0.31420122726E+01  0.32930920497E+02  0.50528836888E+02  0.29999930204E+02 0.  0.
         12    1    1    2    0    0  0.23640003788E+02  0.31420122726E+01 -0.32930920497E+02  0.40659163112E+02  0.00000000000E+00 0. -1.
         11    1    3    3    0    0 -0.82948984464E+01  0.71991071964E-01  0.13163500291E+02  0.15559185811E+02  0.51100000000E-03 0. -1.
        -11    1    3    3    0    0  0.32138077488E+01  0.28676793852E+01  0.13937821393E+02  0.14588180516E+02  0.51100000000E-03 0.  1.
         12    1    3    3    0    0 -0.18558913090E+02 -0.60816827297E+01  0.58295988133E+01  0.20381470561E+02  0.00000000000E+00 0. -1.
</event>
<event>
 7    1  0.5329250E-013  0.5052879E+02  0.7816164E-02  0.1300439E+00
        -11   -1    0    0    0    0  0.00000000000E+00  0.00000000000E+00  0.45593999997E+02  0.45594000000E+02  0.51100000000E-03 0.  1.
         11   -1    0    0    0    0 -0.00000000000E+00 -0.00000000000E+00 -0.45593999997E+02  0.45594000000E+02  0.51100000000E-03 0. -1.
    9900012    2    1    2    0    0  0.21071204185E+02 -0.30874355163E+02  0.15998426844E+02  0.50528792998E+02  0.29999796796E+02 0.  0.
         12    1    1    2    0    0 -0.21071204185E+02  0.30874355163E+02 -0.15998426844E+02  0.40659207002E+02  0.00000000000E+00 0. -1.
         11    1    3    3    0    0  0.37211016214E+01 -0.18896898061E+01  0.55518025792E+01  0.69455048038E+01  0.51100000000E-03 0. -1.
        -11    1    3    3    0    0 -0.24483558970E+01 -0.17972780276E+02  0.10439623268E+02  0.20928473707E+02  0.51100000000E-03 0.  1.
        -12    1    3    3    0    0  0.19798458461E+02 -0.11011885081E+02  0.70009968187E-02  0.22654814487E+02  0.00000000000E+00 0.  1.
</event>
<event>
 7    1  0.5329250E-013  0.5052886E+02  0.7816164E-02  0.1300439E+00
        -11   -1    0    0    0    0  0.00000000000E+00  0.00000000000E+00  0.45593999997E+02  0.45594000000E+02  0.51100000000E-03 0. -1.
         11   -1    0    0    0    0 -0.00000000000E+00 -0.00000000000E+00 -0.45593999997E+02  0.45594000000E+02  0.51100000000E-03 0.  1.
    9900012    2    1    2    0    0  0.19866583250E+02 -0.13398714689E+02 -0.32847516648E+02  0.50528855453E+02  0.29999986636E+02 0.  0.
         12    1    1    2    0    0 -0.19866583250E+02  0.13398714689E+02  0.32847516648E+02  0.40659144547E+02  0.00000000000E+00 0. -1.
         11    1    3    3    0    0  0.32289854902E+00 -0.11482062667E+02 -0.74648078569E+01  0.13699101545E+02  0.51100000000E-03 0. -1.
        -11    1    3    3    0    0 -0.19942051034E+01  0.26797684272E+01 -0.83354632048E+01  0.89798641369E+01  0.51100000000E-03 0.  1.
        -12    1    3    3    0    0  0.21537889804E+02 -0.45964204498E+01 -0.17047245586E+02  0.27849889771E+02  0.00000000000E+00 0.  1.
</event>
<event>
 7    1  0.5329250E-013  0.5052884E+02  0.7816164E-02  0.1300439E+00
        -11   -1    0    0    0    0  0.00000000000E+00  0.00000000000E+00  0.45593999997E+02  0.45594000000E+02  0.51100000000E-03 0.  1.
         11   -1    0    0    0    0 -0.00000000000E+00 -0.00000000000E+00 -0.45593999997E+02  0.45594000000E+02  0.51100000000E-03 0. -1.
    9900012    2    1    2    0    0 -0.84765347233E+01  0.39107271390E+02 -0.72067149525E+01  0.50528842890E+02  0.29999948449E+02 0.  0.
         12    1    1    2    0    0  0.84765347233E+01 -0.39107271390E+02  0.72067149525E+01  0.40659157110E+02  0.00000000000E+00 0. -1.
         11    1    3    3    0    0 -0.73990014647E+01  0.25893985164E+02 -0.13506855440E+02  0.30127708750E+02  0.51100000000E-03 0.  1.
        -11    1    3    3    0    0  0.35592438601E+01  0.19840441565E+01 -0.30341386692E+01  0.50804178761E+01  0.51100000000E-03 0. -1.
        -12    1    3    3    0    0 -0.46367771187E+01  0.11229242069E+02  0.93342791563E+01  0.15320716265E+02  0.00000000000E+00 0.  1.
</event>
<event>
 7    1  0.5329250E-013  0.5052885E+02  0.7816164E-02  0.1300439E+00
        -11   -1    0    0    0    0  0.00000000000E+00  0.00000000000E+00  0.45593999997E+02  0.45594000000E+02  0.51100000000E-03 0. -1.
         11   -1    0    0    0    0 -0.00000000000E+00 -0.00000000000E+00 -0.45593999997E+02  0.45594000000E+02  0.51100000000E-03 0.  1.
    9900012    2    1    2    0    0  0.96269719965E+01  0.37522710573E+02 -0.12350455095E+02  0.50528854170E+02  0.29999982736E+02 0.  0.
         12    1    1    2    0    0 -0.96269719965E+01 -0.37522710573E+02  0.12350455095E+02  0.40659145830E+02  0.00000000000E+00 0. -1.
         11    1    3    3    0    0  0.18194347876E+02  0.20624248466E+02 -0.33415397622E+01  0.27704869747E+02  0.51100000000E-03 0.  1.
        -11    1    3    3    0    0 -0.31685499000E+01  0.15610927534E+01  0.10736450221E+01  0.36918061905E+01  0.51100000000E-03 0. -1.
        -12    1    3    3    0    0 -0.53988259799E+01  0.15337369353E+02 -0.10082560355E+02  0.19132178233E+02  0.00000000000E+00 0.  1.
</event>
<event>
 7    1  0.5329250E-013  0.5052886E+02  0.7816164E-02  0.1300439E+00
        -11   -1    0    0    0    0  0.00000000000E+00  0.00000000000E+00  0.45593999997E+02  0.45594000000E+02  0.51100000000E-03 0.  1.
         11   -1    0    0    0    0 -0.00000000000E+00 -0.00000000000E+00 -0.45593999997E+02  0.45594000000E+02  0.51100000000E-03 0. -1.
    9900012    2    1    2    0    0 -0.14925244920E+02  0.28782849481E+02  0.24534675864E+02  0.50528859823E+02  0.29999999919E+02 0.  0.
         12    1    1    2    0    0  0.14925244920E+02 -0.28782849481E+02 -0.24534675864E+02  0.40659140177E+02  0.00000000000E+00 0. -1.
         11    1    3    3    0    0 -0.75079078348E+01  0.60606285864E+01 -0.30659781734E+01  0.10124234358E+02  0.51100000000E-03 0. -1.
        -11    1    3    3    0    0 -0.55615295992E+01  0.15685805875E+02  0.61322034029E+01  0.17736376075E+02  0.51100000000E-03 0.  1.
         12    1    3    3    0    0 -0.18558074858E+01  0.70364150190E+01  0.21468450635E+02  0.22668249390E+02  0.00000000000E+00 0. -1.
</event>
<event>
 7    1  0.5329250E-013  0.5052886E+02  0.7816164E-02  0.1300439E+00
        -11   -1    0    0    0    0  0.00000000000E+00  0.00000000000E+00  0.45593999997E+02  0.45594000000E+02  0.51100000000E-03 0. -1.
         11   -1    0    0    0    0 -0.00000000000E+00 -0.00000000000E+00 -0.45593999997E+02  0.45594000000E+02  0.51100000000E-03 0.  1.
    9900012    2    1    2    0    0  0.28593443364E+02 -0.19476710198E+02 -0.21359741328E+02  0.50528858431E+02  0.29999995687E+02 0.  0.
         12    1    1    2    0    0 -0.28593443364E+02  0.19476710198E+02  0.21359741328E+02  0.40659141569E+02  0.00000000000E+00 0. -1.
         11    1    3    3    0    0  0.15516218575E+02 -0.44587571009E+00 -0.17375767980E+01  0.15619571614E+02  0.51100000000E-03 0.  1.
        -11    1    3    3    0    0  0.15447570055E+02 -0.10150802330E+02 -0.81280719081E+01  0.20192368899E+02  0.51100000000E-03 0. -1.
         12    1    3    3    0    0 -0.23703452665E+01 -0.88800321574E+01 -0.11494092622E+02  0.14716917918E+02  0.00000000000E+00 0. -1.
</event>
<event>
 7    1  0.5329250E-013  0.5052886E+02  0.7816164E-02  0.1300439E+00
        -11   -1    0    0    0    0  0.00000000000E+00  0.00000000000E+00  0.45593999997E+02  0.45594000000E+02  0.51100000000E-03 0.  1.
         11   -1    0    0    0    0 -0.00000000000E+00 -0.00000000000E+00 -0.45593999997E+02  0.45594000000E+02  0.51100000000E-03 0. -1.
    9900012    2    1    2    0    0  0.18177508878E+01 -0.15019786081E+02  0.37739466214E+02  0.50528862007E+02  0.30000006556E+02 0.  0.
         12    1    1    2    0    0 -0.18177508878E+01  0.15019786081E+02 -0.37739466214E+02  0.40659137993E+02  0.00000000000E+00 0. -1.
         11    1    3    3    0    0  0.57586138037E+01 -0.57214796850E+01  0.69872493450E+01  0.10710677681E+02  0.51100000000E-03 0. -1.
        -11    1    3    3    0    0  0.67793880627E+01  0.28135492653E+01  0.17256527956E+02  0.18752704321E+02  0.51100000000E-03 0.  1.
        -12    1    3    3    0    0 -0.10720250979E+02 -0.12111855661E+02  0.13495688913E+02  0.21065480005E+02  0.00000000000E+00 0.  1.
</event>
<event>
 7    1  0.5329250E-013  0.5052886E+02  0.7816164E-02  0.1300439E+00
        -11   -1    0    0    0    0  0.00000000000E+00  0.00000000000E+00  0.45593999997E+02  0.45594000000E+02  0.51100000000E-03 0.  1.
         11   -1    0    0    0    0 -0.00000000000E+00 -0.00000000000E+00 -0.45593999997E+02  0.45594000000E+02  0.51100000000E-03 0. -1.
    9900012    2    1    2    0    0  0.22710326622E+02 -0.11304808848E+02  0.31774330587E+02  0.50528859298E+02  0.29999998323E+02 0.  0.
         12    1    1    2    0    0 -0.22710326622E+02  0.11304808848E+02 -0.31774330587E+02  0.40659140702E+02  0.00000000000E+00 0. -1.
         11    1    3    3    0    0  0.13795439237E+02 -0.45482562978E+01  0.34581278697E+02  0.37508207311E+02  0.51100000000E-03 0. -1.
        -11    1    3    3    0    0  0.31431130235E+00 -0.34969016233E+01 -0.95389625148E+00  0.36382730625E+01  0.51100000000E-03 0.  1.
        -12    1    3    3    0    0  0.86005760821E+01 -0.32596509268E+01 -0.18530518582E+01  0.93823789253E+01  0.00000000000E+00 0.  1.
</event>
<event>
 7    1  0.5329250E-013  0.5052887E+02  0.7816164E-02  0.1300439E+00
        -11   -1    0    0    0    0  0.00000000000E+00  0.00000000000E+00  0.45593999997E+02  0.45594000000E+02  0.51100000000E-03 0.  1.
         11   -1    0    0    0    0 -0.00000000000E+00 -0.00000000000E+00 -0.45593999997E+02  0.45594000000E+02  0.51100000000E-03 0. -1.
    9900012    2    1    2    0    0 -0.20745123761E+02  0.28907211366E+01  0.34848942367E+02  0.50528865569E+02  0.30000017384E+02 0.  0.
         12    1    1    2    0    0  0.20745123761E+02 -0.28907211366E+01 -0.34848942367E+02  0.40659134431E+02  0.00000000000E+00 0. -1.
         11    1    3    3    0    0  0.39753143308E+01  0.12651512337E+01  0.15241160572E+02  0.15801794440E+02  0.51100000000E-03 0. -1.
        -11    1    3    3    0    0 -0.60280709766E+01 -0.57493046905E+01  0.78454689429E+01  0.11443055856E+02  0.51100000000E-03 0.  1.
         12    1    3    3    0    0 -0.18692367115E+02  0.73748745934E+01  0.11762312852E+02  0.23284015274E+02  0.00000000000E+00 0. -1.
</event>
<event>
 7    1  0.5329250E-013  0.5052887E+02  0.7816164E-02  0.1300439E+00
        -11   -1    0    0    0    0  0.00000000000E+00  0.00000000000E+00  0.45593999997E+02  0.45594000000E+02  0.51100000000E-03 0.  1.
         11   -1    0    0    0    0 -0.00000000000E+00 -0.00000000000E+00 -0.45593999997E+02  0.45594000000E+02  0.51100000000E-03 0. -1.
    9900012    2    1    2    0    0 -0.21690094401E+02  0.31776048923E+02  0.13152456694E+02  0.50528873136E+02  0.30000040383E+02 0.  0.
         12    1    1    2    0    0  0.21690094401E+02 -0.31776048923E+02 -0.13152456694E+02  0.40659126864E+02  0.00000000000E+00 0. -1.
         11    1    3    3    0    0 -0.14009661089E+02  0.97242719285E+01 -0.25768480429E+01  0.17247382830E+02  0.51100000000E-03 0. -1.
        -11    1    3    3    0    0 -0.20886807278E+00  0.15827465978E+02  0.13012960497E+01  0.15882244074E+02  0.51100000000E-03 0.  1.
         12    1    3    3    0    0 -0.74715652388E+01  0.62243110159E+01  0.14428008688E+02  0.17399246232E+02  0.00000000000E+00 0. -1.
</event>
<event>
 7    1  0.5329250E-013  0.5052886E+02  0.7816164E-02  0.1300439E+00
        -11   -1    0    0    0    0  0.00000000000E+00  0.00000000000E+00  0.45593999997E+02  0.45594000000E+02  0.51100000000E-03 0.  1.
         11   -1    0    0    0    0 -0.00000000000E+00 -0.00000000000E+00 -0.45593999997E+02  0.45594000000E+02  0.51100000000E-03 0. -1.
    9900012    2    1    2    0    0  0.17193752116E+02  0.33271227574E+02  0.15829265041E+02  0.50528864153E+02  0.30000013078E+02 0.  0.
         12    1    1    2    0    0 -0.17193752116E+02 -0.33271227574E+02 -0.15829265041E+02  0.40659135847E+02  0.00000000000E+00 0. -1.
         11    1    3    3    0    0  0.41163575822E+01  0.12128409278E+02 -0.44539906771E+01  0.13560263440E+02  0.51100000000E-03 0. -1.
        -11    1    3    3    0    0  0.13188990822E+02  0.23426397629E+02  0.14059820750E+02  0.30338492786E+02  0.51100000000E-03 0.  1.
        -12    1    3    3    0    0 -0.11159628769E+00 -0.22835793329E+01  0.62234349685E+01  0.66301079258E+01  0.00000000000E+00 0.  1.
</event>
<event>
 7    1  0.5329250E-013  0.5052887E+02  0.7816164E-02  0.1300439E+00
        -11   -1    0    0    0    0  0.00000000000E+00  0.00000000000E+00  0.45593999997E+02  0.45594000000E+02  0.51100000000E-03 0.  1.
         11   -1    0    0    0    0 -0.00000000000E+00 -0.00000000000E+00 -0.45593999997E+02  0.45594000000E+02  0.51100000000E-03 0. -1.
    9900012    2    1    2    0    0 -0.11336411785E+02  0.47018031429E+01  0.38762660692E+02  0.50528867583E+02  0.30000023505E+02 0.  0.
         12    1    1    2    0    0  0.11336411785E+02 -0.47018031429E+01 -0.38762660692E+02  0.40659132417E+02  0.00000000000E+00 0. -1.
         11    1    3    3    0    0 -0.11004277749E+02  0.71123221419E+01  0.15978268287E+02  0.20663598736E+02  0.51100000000E-03 0. -1.
        -11    1    3    3    0    0 -0.26946551928E+01  0.30829035289E+01  0.23489718982E+02  0.23843916601E+02  0.51100000000E-03 0.  1.
         12    1    3    3    0    0  0.23625211571E+01 -0.54934225279E+01 -0.70532657591E+00  0.60213522457E+01  0.00000000000E+00 0. -1.
</event>
<event>
 7    1  0.5329250E-013  0.5052886E+02  0.7816164E-02  0.1300439E+00
        -11   -1    0    0    0    0  0.00000000000E+00  0.00000000000E+00  0.45593999997E+02  0.45594000000E+02  0.51100000000E-03 0.  1.
         11   -1    0    0    0    0 -0.00000000000E+00 -0.00000000000E+00 -0.45593999997E+02  0.45594000000E+02  0.51100000000E-03 0. -1.
    9900012    2    1    2    0    0 -0.29808006239E+02 -0.73060837542E+01  0.26669635999E+02  0.50528861051E+02  0.30000003650E+02 0.  0.
         12    1    1    2    0    0  0.29808006239E+02  0.73060837542E+01 -0.26669635999E+02  0.40659138949E+02  0.00000000000E+00 0. -1.
         11    1    3    3    0    0 -0.15890049009E+02 -0.15725897080E+02  0.12031119298E+02  0.25387897280E+02  0.51100000000E-03 0.  1.
        -11    1    3    3    0    0  0.16017082278E+01 -0.79626308233E+00  0.35011292225E+01  0.39315913110E+01  0.51100000000E-03 0. -1.
        -12    1    3    3    0    0 -0.15519665458E+02  0.92160764081E+01  0.11137387478E+02  0.21209372460E+02  0.00000000000E+00 0.  1.
</event>
<event>
 7    1  0.5329250E-013  0.5052886E+02  0.7816164E-02  0.1300439E+00
        -11   -1    0    0    0    0  0.00000000000E+00  0.00000000000E+00  0.45593999997E+02  0.45594000000E+02  0.51100000000E-03 0. -1.
         11   -1    0    0    0    0 -0.00000000000E+00 -0.00000000000E+00 -0.45593999997E+02  0.45594000000E+02  0.51100000000E-03 0.  1.
    9900012    2    1    2    0    0  0.25213859007E+02  0.56527829685E+01 -0.31392246312E+02  0.50528858717E+02  0.29999996557E+02 0.  0.
         12    1    1    2    0    0 -0.25213859007E+02 -0.56527829685E+01  0.31392246312E+02  0.40659141283E+02  0.00000000000E+00 0. -1.
         11    1    3    3    0    0  0.13180352253E+02 -0.40940621270E+01 -0.99289433522E+01  0.17001968903E+02  0.51100000000E-03 0. -1.
        -11    1    3    3    0    0 -0.18475230849E+01 -0.40526989767E+01 -0.97434140518E+01  0.10713161447E+02  0.51100000000E-03 0.  1.
         12    1    3    3    0    0  0.13881029839E+02  0.13799544072E+02 -0.11719888908E+02  0.22813728367E+02  0.00000000000E+00 0. -1.
</event>
<event>
 7    1  0.5329250E-013  0.5052887E+02  0.7816164E-02  0.1300439E+00
        -11   -1    0    0    0    0  0.00000000000E+00  0.00000000000E+00  0.45593999997E+02  0.45594000000E+02  0.51100000000E-03 0. -1.
         11   -1    0    0    0    0 -0.00000000000E+00 -0.00000000000E+00 -0.45593999997E+02  0.45594000000E+02  0.51100000000E-03 0.  1.
    9900012    2    1    2    0    0  0.36925315314E+02  0.80019212281E+01 -0.15021827524E+02  0.50528868719E+02  0.30000026959E+02 0.  0.
         12    1    1    2    0    0 -0.36925315314E+02 -0.80019212281E+01  0.15021827524E+02  0.40659131281E+02  0.00000000000E+00 0. -1.
         11    1    3    3    0    0 -0.21575002904E+01  0.55727247077E+00 -0.30601369055E+01  0.37854719984E+01  0.51100000000E-03 0. -1.
        -11    1    3    3    0    0  0.42922957726E+01  0.58517915244E+01  0.41610878048E+01  0.83655196506E+01  0.51100000000E-03 0.  1.
        -12    1    3    3    0    0  0.34790519831E+02  0.15928572329E+01 -0.16122778424E+02  0.38377877070E+02  0.00000000000E+00 0.  1.
</event>
<event>
 7    1  0.5329250E-013  0.5052887E+02  0.7816164E-02  0.1300439E+00
        -11   -1    0    0    0    0  0.00000000000E+00  0.00000000000E+00  0.45593999997E+02  0.45594000000E+02  0.51100000000E-03 0.  1.
         11   -1    0    0    0    0 -0.00000000000E+00 -0.00000000000E+00 -0.45593999997E+02  0.45594000000E+02  0.51100000000E-03 0. -1.
    9900012    2    1    2    0    0 -0.15802038899E+02 -0.41027274714E+01  0.37237459272E+02  0.50528865982E+02  0.30000018639E+02 0.  0.
         12    1    1    2    0    0  0.15802038899E+02  0.41027274714E+01 -0.37237459272E+02  0.40659134018E+02  0.00000000000E+00 0. -1.
         11    1    3    3    0    0 -0.14399977509E+02 -0.13857886912E+01  0.24407882777E+02  0.28372953749E+02  0.51100000000E-03 0.  1.
        -11    1    3    3    0    0 -0.71258154635E+01 -0.50958168785E+01  0.10214012109E+01  0.88197424211E+01  0.51100000000E-03 0. -1.
        -12    1    3    3    0    0  0.57237540736E+01  0.23788780983E+01  0.11808175284E+02  0.13336169811E+02  0.00000000000E+00 0.  1.
</event>
<event>
 7    1  0.5329250E-013  0.5052886E+02  0.7816164E-02  0.1300439E+00
        -11   -1    0    0    0    0  0.00000000000E+00  0.00000000000E+00  0.45593999997E+02  0.45594000000E+02  0.51100000000E-03 0.  1.
         11   -1    0    0    0    0 -0.00000000000E+00 -0.00000000000E+00 -0.45593999997E+02  0.45594000000E+02  0.51100000000E-03 0. -1.
    9900012    2    1    2    0    0  0.58085211243E+01  0.40011726659E+02  0.42998334810E+01  0.50528858890E+02  0.29999997082E+02 0.  0.
         12    1    1    2    0    0 -0.58085211243E+01 -0.40011726659E+02 -0.42998334810E+01  0.40659141110E+02  0.00000000000E+00 0. -1.
         11    1    3    3    0    0  0.58766629654E+01  0.28838129813E+01 -0.42339219361E+01  0.77960015484E+01  0.51100000000E-03 0. -1.
        -11    1    3    3    0    0  0.68348960582E+01  0.41452111435E+01  0.32259463727E+01  0.86200527731E+01  0.51100000000E-03 0.  1.
        -12    1    3    3    0    0 -0.69030378993E+01  0.32982702534E+02  0.53078090444E+01  0.34112804568E+02  0.00000000000E+00 0.  1.
</event>
<event>
 7    1  0.5329250E-013  0.5052886E+02  0.7816164E-02  0.1300439E+00
        -11   -1    0    0    0    0  0.00000000000E+00  0.00000000000E+00  0.45593999997E+02  0.45594000000E+02  0.51100000000E-03 0. -1.
         11   -1    0    0    0    0 -0.00000000000E+00 -0.00000000000E+00 -0.45593999997E+02  0.45594000000E+02  0.51100000000E-03 0.  1.
    9900012    2    1    2    0    0 -0.23969445316E+02  0.21997410576E+02 -0.24387396847E+02  0.50528861965E+02  0.30000006429E+02 0.  0.
         12    1    1    2    0    0  0.23969445316E+02 -0.21997410576E+02  0.24387396847E+02  0.40659138035E+02  0.00000000000E+00 0. -1.
         11    1    3    3    0    0 -0.74802967298E+00  0.91600665834E-01  0.25264350296E+01  0.26364395107E+01  0.51100000000E-03 0. -1.
        -11    1    3    3    0    0 -0.89165068310E+01 -0.24021792625E+00  0.15954431510E+01  0.90613044221E+01  0.51100000000E-03 0.  1.
        -12    1    3    3    0    0 -0.14304908812E+02  0.22146027836E+02 -0.28509275028E+02  0.38831118032E+02  0.00000000000E+00 0.  1.
</event>
<event>
 7    1  0.5329250E-013  0.5052886E+02  0.7816164E-02  0.1300439E+00
        -11   -1    0    0    0    0  0.00000000000E+00  0.00000000000E+00  0.45593999997E+02  0.45594000000E+02  0.51100000000E-03 0.  1.
         11   -1    0    0    0    0 -0.00000000000E+00 -0.00000000000E+00 -0.45593999997E+02  0.45594000000E+02  0.51100000000E-03 0. -1.
    9900012    2    1    2    0    0  0.61941108858E+01  0.14248759436E+02  0.37573552546E+02  0.50528855812E+02  0.29999987727E+02 0.  0.
         12    1    1    2    0    0 -0.61941108858E+01 -0.14248759436E+02 -0.37573552546E+02  0.40659144188E+02  0.00000000000E+00 0. -1.
         11    1    3    3    0    0 -0.31741605102E+01 -0.50532909836E+01  0.93040421131E+01  0.11053336357E+02  0.51100000000E-03 0. -1.
        -11    1    3    3    0    0 -0.16197039304E+01  0.10247487152E+02  0.21148217562E+02  0.23555923672E+02  0.51100000000E-03 0.  1.
         12    1    3    3    0    0  0.10987975326E+02  0.90545632679E+01  0.71212928716E+01  0.15919595783E+02  0.00000000000E+00 0. -1.
</event>
<event>
 7    1  0.5329250E-013  0.5052886E+02  0.7816164E-02  0.1300439E+00
        -11   -1    0    0    0    0  0.00000000000E+00  0.00000000000E+00  0.45593999997E+02  0.45594000000E+02  0.51100000000E-03 0. -1.
         11   -1    0    0    0    0 -0.00000000000E+00 -0.00000000000E+00 -0.45593999997E+02  0.45594000000E+02  0.51100000000E-03 0.  1.
    9900012    2    1    2    0    0 -0.66081328260E+01  0.36858970919E+02 -0.15840280669E+02  0.50528860212E+02  0.30000001100E+02 0.  0.
         12    1    1    2    0    0  0.66081328260E+01 -0.36858970919E+02  0.15840280669E+02  0.40659139788E+02  0.00000000000E+00 0. -1.
         11    1    3    3    0    0  0.81276181459E+01  0.49683543547E+01 -0.35583021790E+01  0.10168787360E+02  0.51100000000E-03 0. -1.
        -11    1    3    3    0    0 -0.49006284097E+01  0.16715371153E+02 -0.13785629368E+02  0.22214035404E+02  0.51100000000E-03 0.  1.
         12    1    3    3    0    0 -0.98351225622E+01  0.15175245411E+02  0.15036508775E+01  0.18146037448E+02  0.00000000000E+00 0. -1.
</event>
<event>
 7    1  0.5329250E-013  0.5052886E+02  0.7816164E-02  0.1300439E+00
        -11   -1    0    0    0    0  0.00000000000E+00  0.00000000000E+00  0.45593999997E+02  0.45594000000E+02  0.51100000000E-03 0.  1.
         11   -1    0    0    0    0 -0.00000000000E+00 -0.00000000000E+00 -0.45593999997E+02  0.45594000000E+02  0.51100000000E-03 0. -1.
    9900012    2    1    2    0    0  0.33712526255E+01 -0.33590153181E+02 -0.22660578365E+02  0.50528861460E+02  0.30000004893E+02 0.  0.
         12    1    1    2    0    0 -0.33712526255E+01  0.33590153181E+02  0.22660578365E+02  0.40659138540E+02  0.00000000000E+00 0. -1.
         11    1    3    3    0    0  0.72391661554E+01 -0.79362792291E+01 -0.25330296138E+01  0.11036588871E+02  0.51100000000E-03 0. -1.
        -11    1    3    3    0    0 -0.48413079913E+01 -0.32907575833E+01  0.36001846138E+01  0.68723124240E+01  0.51100000000E-03 0.  1.
        -12    1    3    3    0    0  0.97339446141E+00 -0.22363116369E+02 -0.23727733365E+02  0.32619960165E+02  0.00000000000E+00 0.  1.
</event>
<event>
 7    1  0.5650205E-013  0.5052886E+02  0.7816164E-02  0.1300439E+00
        -11   -1    0    0    0    0  0.00000000000E+00  0.00000000000E+00  0.45593999997E+02  0.45594000000E+02  0.51100000000E-03 0. -1.
         11   -1    0    0    0    0 -0.00000000000E+00 -0.00000000000E+00 -0.45593999997E+02  0.45594000000E+02  0.51100000000E-03 0.  1.
    9900012    2    1    2    0    0 -0.51000070975E+01  0.16080360795E+02 -0.36994291583E+02  0.50528859756E+02  0.29999999713E+02 0.  0.
         12    1    1    2    0    0  0.51000070975E+01 -0.16080360795E+02  0.36994291583E+02  0.40659140244E+02  0.00000000000E+00 0. -1.
         11    1    3    3    0    0  0.60613092310E+01 -0.24347899639E+01 -0.69125572130E+00  0.65685239206E+01  0.51100000000E-03 0. -1.
        -11    1    3    3    0    0 -0.41973710401E+01  0.33903961875E+01 -0.18662913677E+01  0.57092691027E+01  0.51100000000E-03 0.  1.
        -12    1    3    3    0    0 -0.69639452884E+01  0.15124754572E+02 -0.34436744494E+02  0.38251066732E+02  0.00000000000E+00 0.  1.
</event>
<event>
 7    1  0.5329250E-013  0.5052885E+02  0.7816164E-02  0.1300439E+00
        -11   -1    0    0    0    0  0.00000000000E+00  0.00000000000E+00  0.45593999997E+02  0.45594000000E+02  0.51100000000E-03 0.  1.
         11   -1    0    0    0    0 -0.00000000000E+00 -0.00000000000E+00 -0.45593999997E+02  0.45594000000E+02  0.51100000000E-03 0. -1.
    9900012    2    1    2    0    0  0.54155371308E+01 -0.17412322923E+02  0.36340736124E+02  0.50528854239E+02  0.29999982946E+02 0.  0.
         12    1    1    2    0    0 -0.54155371308E+01  0.17412322923E+02 -0.36340736124E+02  0.40659145761E+02  0.00000000000E+00 0. -1.
         11    1    3    3    0    0  0.16845846354E+01 -0.57005440214E+01 -0.21326802373E+01  0.63152476427E+01  0.51100000000E-03 0. -1.
        -11    1    3    3    0    0  0.17986598880E+01  0.42296702848E+01  0.36610570834E+01  0.58761064779E+01  0.51100000000E-03 0.  1.
        -12    1    3    3    0    0  0.19322926073E+01 -0.15941449186E+02  0.34812359278E+02  0.38337500119E+02  0.00000000000E+00 0.  1.
</event>
<event>
 7    1  0.5329250E-013  0.5052886E+02  0.7816164E-02  0.1300439E+00
        -11   -1    0    0    0    0  0.00000000000E+00  0.00000000000E+00  0.45593999997E+02  0.45594000000E+02  0.51100000000E-03 0. -1.
         11   -1    0    0    0    0 -0.00000000000E+00 -0.00000000000E+00 -0.45593999997E+02  0.45594000000E+02  0.51100000000E-03 0.  1.
    9900012    2    1    2    0    0  0.18249535223E+02 -0.34463242635E+02  0.11506741408E+02  0.50528859249E+02  0.29999998173E+02 0.  0.
         12    1    1    2    0    0 -0.18249535223E+02  0.34463242635E+02 -0.11506741408E+02  0.40659140751E+02  0.00000000000E+00 0. -1.
         11    1    3    3    0    0 -0.46703641108E+01 -0.33668773606E+01 -0.16187165466E+01  0.59806694950E+01  0.51100000000E-03 0. -1.
        -11    1    3    3    0    0  0.23294271830E+01 -0.11659387490E+02  0.10925769855E+02  0.16147445458E+02  0.51100000000E-03 0.  1.
        -12    1    3    3    0    0  0.20590472151E+02 -0.19436977785E+02  0.21996880994E+01  0.28400744295E+02  0.00000000000E+00 0.  1.
</event>
<event>
 7    1  0.5329250E-013  0.5052885E+02  0.7816164E-02  0.1300439E+00
        -11   -1    0    0    0    0  0.00000000000E+00  0.00000000000E+00  0.45593999997E+02  0.45594000000E+02  0.51100000000E-03 0. -1.
         11   -1    0    0    0    0 -0.00000000000E+00 -0.00000000000E+00 -0.45593999997E+02  0.45594000000E+02  0.51100000000E-03 0.  1.
    9900012    2    1    2    0    0 -0.17762152252E+02  0.23139470792E+02 -0.28323795198E+02  0.50528849301E+02  0.29999967934E+02 0.  0.
         12    1    1    2    0    0  0.17762152252E+02 -0.23139470792E+02  0.28323795198E+02  0.40659150699E+02  0.00000000000E+00 0. -1.
         11    1    3    3    0    0 -0.74045798358E+01  0.45099906454E+01 -0.60356512729E+00  0.86909210841E+01  0.51100000000E-03 0. -1.
        -11    1    3    3    0    0 -0.10657279133E+02 -0.11819320478E+01 -0.14438189243E+02  0.17984322917E+02  0.51100000000E-03 0.  1.
         12    1    3    3    0    0  0.29970671702E+00  0.19811412194E+02 -0.13282040828E+02  0.23853605300E+02  0.00000000000E+00 0. -1.
</event>
<event>
 7    1  0.5329250E-013  0.5052886E+02  0.7816164E-02  0.1300439E+00
        -11   -1    0    0    0    0  0.00000000000E+00  0.00000000000E+00  0.45593999997E+02  0.45594000000E+02  0.51100000000E-03 0. -1.
         11   -1    0    0    0    0 -0.00000000000E+00 -0.00000000000E+00 -0.45593999997E+02  0.45594000000E+02  0.51100000000E-03 0.  1.
    9900012    2    1    2    0    0  0.19951378471E+02  0.34888776775E+02 -0.61547954075E+01  0.50528858909E+02  0.29999997141E+02 0.  0.
         12    1    1    2    0    0 -0.19951378471E+02 -0.34888776775E+02  0.61547954075E+01  0.40659141091E+02  0.00000000000E+00 0. -1.
         11    1    3    3    0    0  0.39426110567E+01  0.18673023924E+01  0.68200764599E+01  0.80959522818E+01  0.51100000000E-03 0. -1.
        -11    1    3    3    0    0 -0.26883563075E+01  0.77856406091E+01  0.51094556028E+00  0.82525465740E+01  0.51100000000E-03 0.  1.
        -12    1    3    3    0    0  0.18697123722E+02  0.25235833773E+02 -0.13485817428E+02  0.34180360054E+02  0.00000000000E+00 0.  1.
</event>
<event>
 7    1  0.5329250E-013  0.5052879E+02  0.7816164E-02  0.1300439E+00
        -11   -1    0    0    0    0  0.00000000000E+00  0.00000000000E+00  0.45593999997E+02  0.45594000000E+02  0.51100000000E-03 0. -1.
         11   -1    0    0    0    0 -0.00000000000E+00 -0.00000000000E+00 -0.45593999997E+02  0.45594000000E+02  0.51100000000E-03 0.  1.
    9900012    2    1    2    0    0 -0.37851950481E+02  0.13873837858E+02  0.52837210093E+01  0.50528791451E+02  0.29999792093E+02 0.  0.
         12    1    1    2    0    0  0.37851950481E+02 -0.13873837858E+02 -0.52837210093E+01  0.40659208549E+02  0.00000000000E+00 0. -1.
         11    1    3    3    0    0 -0.26162469899E+02  0.58630854881E+01  0.69126372383E+01  0.27688177197E+02  0.51100000000E-03 0. -1.
        -11    1    3    3    0    0 -0.14369629686E+02  0.76212953854E+01 -0.62984647415E+01  0.17442507246E+02  0.51100000000E-03 0.  1.
         12    1    3    3    0    0  0.26801491033E+01  0.38945698474E+00  0.46695485125E+01  0.53981070080E+01  0.00000000000E+00 0. -1.
</event>
<event>
 7    1  0.5329250E-013  0.5052886E+02  0.7816164E-02  0.1300439E+00
        -11   -1    0    0    0    0  0.00000000000E+00  0.00000000000E+00  0.45593999997E+02  0.45594000000E+02  0.51100000000E-03 0. -1.
         11   -1    0    0    0    0 -0.00000000000E+00 -0.00000000000E+00 -0.45593999997E+02  0.45594000000E+02  0.51100000000E-03 0.  1.
    9900012    2    1    2    0    0 -0.22483520640E+01 -0.30394988179E+02  0.26911993287E+02  0.50528858641E+02  0.29999996325E+02 0.  0.
         12    1    1    2    0    0  0.22483520640E+01  0.30394988179E+02 -0.26911993287E+02  0.40659141359E+02  0.00000000000E+00 0. -1.
         11    1    3    3    0    0 -0.20904303341E+01  0.16679951770E+01  0.10215123053E+02  0.10559396107E+02  0.51100000000E-03 0. -1.
        -11    1    3    3    0    0  0.40107493237E+01 -0.11333048532E+02 -0.14451433619E+01  0.12108366478E+02  0.51100000000E-03 0.  1.
         12    1    3    3    0    0 -0.41686710536E+01 -0.20729934824E+02  0.18142013596E+02  0.27861096056E+02  0.00000000000E+00 0. -1.
</event>
<event>
 7    1  0.5329250E-013  0.5052885E+02  0.7816164E-02  0.1300439E+00
        -11   -1    0    0    0    0  0.00000000000E+00  0.00000000000E+00  0.45593999997E+02  0.45594000000E+02  0.51100000000E-03 0.  1.
         11   -1    0    0    0    0 -0.00000000000E+00 -0.00000000000E+00 -0.45593999997E+02  0.45594000000E+02  0.51100000000E-03 0. -1.
    9900012    2    1    2    0    0  0.16137113889E+02  0.21592041842E+02  0.30439182020E+02  0.50528849522E+02  0.29999968606E+02 0.  0.
         12    1    1    2    0    0 -0.16137113889E+02 -0.21592041842E+02 -0.30439182020E+02  0.40659150478E+02  0.00000000000E+00 0. -1.
         11    1    3    3    0    0 -0.32767062460E+01  0.10251477256E+02  0.83029707467E+01  0.13592972936E+02  0.51100000000E-03 0.  1.
        -11    1    3    3    0    0  0.16672317878E+02  0.92539848532E+01  0.25685271930E+02  0.31989617276E+02  0.51100000000E-03 0. -1.
         12    1    3    3    0    0  0.27415022570E+01  0.20865797329E+01 -0.35490606571E+01  0.49462593093E+01  0.00000000000E+00 0. -1.
</event>
<event>
 7    1  0.5329250E-013  0.5052889E+02  0.7816164E-02  0.1300439E+00
        -11   -1    0    0    0    0  0.00000000000E+00  0.00000000000E+00  0.45593999997E+02  0.45594000000E+02  0.51100000000E-03 0.  1.
         11   -1    0    0    0    0 -0.00000000000E+00 -0.00000000000E+00 -0.45593999997E+02  0.45594000000E+02  0.51100000000E-03 0. -1.
    9900012    2    1    2    0    0  0.11951272413E+02  0.90949232017E+01  0.37783761876E+02  0.50528890297E+02  0.30000092546E+02 0.  0.
         12    1    1    2    0    0 -0.11951272413E+02 -0.90949232017E+01 -0.37783761876E+02  0.40659109703E+02  0.00000000000E+00 0. -1.
         11    1    3    3    0    0 -0.63168357989E+01  0.34325377519E+01  0.18983449843E+02  0.20299164962E+02  0.51100000000E-03 0. -1.
        -11    1    3    3    0    0  0.62271510252E+01  0.76037905400E+01  0.14037880835E+02  0.17136427255E+02  0.51100000000E-03 0.  1.
        -12    1    3    3    0    0  0.12040957187E+02 -0.19414050902E+01  0.47624311977E+01  0.13093298080E+02  0.00000000000E+00 0.  1.
</event>
<event>
 7    1  0.5329250E-013  0.5052885E+02  0.7816164E-02  0.1300439E+00
        -11   -1    0    0    0    0  0.00000000000E+00  0.00000000000E+00  0.45593999997E+02  0.45594000000E+02  0.51100000000E-03 0. -1.
         11   -1    0    0    0    0 -0.00000000000E+00 -0.00000000000E+00 -0.45593999997E+02  0.45594000000E+02  0.51100000000E-03 0.  1.
    9900012    2    1    2    0    0  0.35736675514E+02  0.19044910011E+01 -0.19298428976E+02  0.50528850676E+02  0.29999972115E+02 0.  0.
         12    1    1    2    0    0 -0.35736675514E+02 -0.19044910011E+01  0.19298428976E+02  0.40659149324E+02  0.00000000000E+00 0. -1.
         11    1    3    3    0    0  0.20454443253E+02 -0.79389741961E+01 -0.14832121759E+02  0.26484021527E+02  0.51100000000E-03 0. -1.
        -11    1    3    3    0    0  0.51141752551E+01 -0.18310862302E+00 -0.78486562868E+01  0.93696170187E+01  0.51100000000E-03 0.  1.
         12    1    3    3    0    0  0.10168057006E+02  0.10026573820E+02  0.33823490694E+01  0.14675212130E+02  0.00000000000E+00 0. -1.
</event>
<event>
 7    1  0.5329250E-013  0.5052886E+02  0.7816164E-02  0.1300439E+00
        -11   -1    0    0    0    0  0.00000000000E+00  0.00000000000E+00  0.45593999997E+02  0.45594000000E+02  0.51100000000E-03 0.  1.
         11   -1    0    0    0    0 -0.00000000000E+00 -0.00000000000E+00 -0.45593999997E+02  0.45594000000E+02  0.51100000000E-03 0. -1.
    9900012    2    1    2    0    0 -0.26725044297E+00 -0.27271455751E+02  0.30155626073E+02  0.50528861969E+02  0.30000006440E+02 0.  0.
         12    1    1    2    0    0  0.26725044297E+00  0.27271455751E+02 -0.30155626073E+02  0.40659138031E+02  0.00000000000E+00 0. -1.
         11    1    3    3    0    0  0.91184243613E+01 -0.63555315367E+01  0.86859751887E+01  0.14106190456E+02  0.51100000000E-03 0. -1.
        -11    1    3    3    0    0 -0.71808715022E+01 -0.12560622467E+02  0.23452881179E+02  0.27556701329E+02  0.51100000000E-03 0.  1.
         12    1    3    3    0    0 -0.22048033020E+01 -0.83553017471E+01 -0.19832302946E+01  0.88659701831E+01  0.00000000000E+00 0. -1.
</event>
<event>
 7    1  0.5329250E-013  0.5052891E+02  0.7816164E-02  0.1300439E+00
        -11   -1    0    0    0    0  0.00000000000E+00  0.00000000000E+00  0.45593999997E+02  0.45594000000E+02  0.51100000000E-03 0. -1.
         11   -1    0    0    0    0 -0.00000000000E+00 -0.00000000000E+00 -0.45593999997E+02  0.45594000000E+02  0.51100000000E-03 0.  1.
    9900012    2    1    2    0    0  0.24959408146E+02 -0.31848710421E+02  0.39811393624E+01  0.50528906538E+02  0.30000141912E+02 0.  0.
         12    1    1    2    0    0 -0.24959408146E+02  0.31848710421E+02 -0.39811393624E+01  0.40659093462E+02  0.00000000000E+00 0. -1.
         11    1    3    3    0    0  0.11203116602E+02 -0.70110151508E+01  0.48912585106E+01  0.14092145511E+02  0.51100000000E-03 0. -1.
        -11    1    3    3    0    0  0.18370467353E+02 -0.19150449825E+02 -0.63832803415E+01  0.27293956611E+02  0.51100000000E-03 0.  1.
         12    1    3    3    0    0 -0.46141758081E+01 -0.56872454453E+01  0.54731611933E+01  0.91428044161E+01  0.00000000000E+00 0. -1.
</event>
<event>
 7    1  0.5329250E-013  0.5052887E+02  0.7816164E-02  0.1300439E+00
        -11   -1    0    0    0    0  0.00000000000E+00  0.00000000000E+00  0.45593999997E+02  0.45594000000E+02  0.51100000000E-03 0. -1.
         11   -1    0    0    0    0 -0.00000000000E+00 -0.00000000000E+00 -0.45593999997E+02  0.45594000000E+02  0.51100000000E-03 0.  1.
    9900012    2    1    2    0    0 -0.40417106118E+02 -0.62349078706E+00 -0.43856464552E+01  0.50528866924E+02  0.30000021501E+02 0.  0.
         12    1    1    2    0    0  0.40417106118E+02  0.62349078706E+00  0.43856464552E+01  0.40659133076E+02  0.00000000000E+00 0. -1.
         11    1    3    3    0    0 -0.11697413590E+02  0.44734867065E+01 -0.66363303628E+01  0.14173300567E+02  0.51100000000E-03 0. -1.
        -11    1    3    3    0    0  0.17386954809E+01 -0.52151107787E+01  0.21332837417E+01  0.58967230046E+01  0.51100000000E-03 0.  1.
         12    1    3    3    0    0 -0.30458388009E+02  0.11813328511E+00  0.11740016594E+00  0.30458843352E+02  0.00000000000E+00 0. -1.
</event>
<event>
 7    1  0.5329250E-013  0.5052886E+02  0.7816164E-02  0.1300439E+00
        -11   -1    0    0    0    0  0.00000000000E+00  0.00000000000E+00  0.45593999997E+02  0.45594000000E+02  0.51100000000E-03 0.  1.
         11   -1    0    0    0    0 -0.00000000000E+00 -0.00000000000E+00 -0.45593999997E+02  0.45594000000E+02  0.51100000000E-03 0. -1.
    9900012    2    1    2    0    0  0.37944032553E+02  0.95051098240E+01  0.11093654358E+02  0.50528857287E+02  0.29999992210E+02 0.  0.
         12    1    1    2    0    0 -0.37944032553E+02 -0.95051098240E+01 -0.11093654358E+02  0.40659142713E+02  0.00000000000E+00 0. -1.
         11    1    3    3    0    0  0.62470532441E+00  0.41271486962E+01  0.42400886188E+01  0.59499550301E+01  0.51100000000E-03 0. -1.
        -11    1    3    3    0    0  0.19722078018E+02 -0.63242423629E+01  0.10358535519E+02  0.23157194588E+02  0.51100000000E-03 0.  1.
        -12    1    3    3    0    0  0.17597249210E+02  0.11702203491E+02 -0.35049697806E+01  0.21421707669E+02  0.00000000000E+00 0.  1.
</event>
<event>
 7    1  0.5329250E-013  0.5052886E+02  0.7816164E-02  0.1300439E+00
        -11   -1    0    0    0    0  0.00000000000E+00  0.00000000000E+00  0.45593999997E+02  0.45594000000E+02  0.51100000000E-03 0.  1.
         11   -1    0    0    0    0 -0.00000000000E+00 -0.00000000000E+00 -0.45593999997E+02  0.45594000000E+02  0.51100000000E-03 0. -1.
    9900012    2    1    2    0    0  0.15003897281E+02 -0.10586023018E+02  0.36276509621E+02  0.50528856290E+02  0.29999989178E+02 0.  0.
         12    1    1    2    0    0 -0.15003897281E+02  0.10586023018E+02 -0.36276509621E+02  0.40659143710E+02  0.00000000000E+00 0. -1.
         11    1    3    3    0    0 -0.40873590422E+01 -0.28468106329E+01 -0.57801287430E+00  0.50144724412E+01  0.51100000000E-03 0. -1.
        -11    1    3    3    0    0  0.54693123543E+01 -0.95215092866E+01  0.25238353139E+02  0.27523571464E+02  0.51100000000E-03 0.  1.
         12    1    3    3    0    0  0.13621943969E+02  0.17822969015E+01  0.11616169357E+02  0.17990812384E+02  0.00000000000E+00 0. -1.
</event>
<event>
 7    1  0.5329250E-013  0.5052886E+02  0.7816164E-02  0.1300439E+00
        -11   -1    0    0    0    0  0.00000000000E+00  0.00000000000E+00  0.45593999997E+02  0.45594000000E+02  0.51100000000E-03 0.  1.
         11   -1    0    0    0    0 -0.00000000000E+00 -0.00000000000E+00 -0.45593999997E+02  0.45594000000E+02  0.51100000000E-03 0. -1.
    9900012    2    1    2    0    0 -0.11253504261E+02  0.37963855593E+02  0.92341716191E+01  0.50528860620E+02  0.30000002341E+02 0.  0.
         12    1    1    2    0    0  0.11253504261E+02 -0.37963855593E+02 -0.92341716191E+01  0.40659139380E+02  0.00000000000E+00 0. -1.
         11    1    3    3    0    0  0.79408604832E+01  0.70907214470E+01  0.19443187487E+01  0.10822013284E+02  0.51100000000E-03 0. -1.
        -11    1    3    3    0    0 -0.71209257874E+01  0.14231283517E+02 -0.37797501858E+01  0.16356146439E+02  0.51100000000E-03 0.  1.
        -12    1    3    3    0    0 -0.12073438957E+02  0.16641850629E+02  0.11069603056E+02  0.23350700898E+02  0.00000000000E+00 0.  1.
</event>
<event>
 7    1  0.5329250E-013  0.5052886E+02  0.7816164E-02  0.1300439E+00
        -11   -1    0    0    0    0  0.00000000000E+00  0.00000000000E+00  0.45593999997E+02  0.45594000000E+02  0.51100000000E-03 0.  1.
         11   -1    0    0    0    0 -0.00000000000E+00 -0.00000000000E+00 -0.45593999997E+02  0.45594000000E+02  0.51100000000E-03 0. -1.
    9900012    2    1    2    0    0 -0.72873055532E+01 -0.11082979435E+02  0.38434734381E+02  0.50528855121E+02  0.29999985625E+02 0.  0.
         12    1    1    2    0    0  0.72873055532E+01  0.11082979435E+02 -0.38434734381E+02  0.40659144879E+02  0.00000000000E+00 0. -1.
         11    1    3    3    0    0  0.52247944420E+01 -0.46495584093E+01  0.47737339904E+01  0.84679045126E+01  0.51100000000E-03 0. -1.
        -11    1    3    3    0    0 -0.14195952607E+02 -0.89931680914E+01  0.34916300889E+02  0.38749841429E+02  0.51100000000E-03 0.  1.
         12    1    3    3    0    0  0.16838526114E+01  0.25597470656E+01 -0.12553004981E+01  0.33111091794E+01  0.00000000000E+00 0. -1.
</event>
<event>
 7    1  0.5329250E-013  0.5052882E+02  0.7816164E-02  0.1300439E+00
        -11   -1    0    0    0    0  0.00000000000E+00  0.00000000000E+00  0.45593999997E+02  0.45594000000E+02  0.51100000000E-03 0.  1.
         11   -1    0    0    0    0 -0.00000000000E+00 -0.00000000000E+00 -0.45593999997E+02  0.45594000000E+02  0.51100000000E-03 0. -1.
    9900012    2    1    2    0    0 -0.67308303381E+01  0.15812825670E+02  0.36848597744E+02  0.50528822827E+02  0.29999887464E+02 0.  0.
         12    1    1    2    0    0  0.67308303381E+01 -0.15812825670E+02 -0.36848597744E+02  0.40659177173E+02  0.00000000000E+00 0. -1.
         11    1    3    3    0    0  0.33667530658E+00  0.65277372826E+01 -0.26447208173E+01  0.70511880386E+01  0.51100000000E-03 0. -1.
        -11    1    3    3    0    0  0.38512410502E+01  0.25906656222E+01  0.16693979305E+02  0.17327219952E+02  0.51100000000E-03 0.  1.
         12    1    3    3    0    0 -0.10918746695E+02  0.66944227650E+01  0.22799339257E+02  0.26150414836E+02  0.00000000000E+00 0. -1.
</event>
<event>
 7    1  0.5329250E-013  0.5052889E+02  0.7816164E-02  0.1300439E+00
        -11   -1    0    0    0    0  0.00000000000E+00  0.00000000000E+00  0.45593999997E+02  0.45594000000E+02  0.51100000000E-03 0. -1.
         11   -1    0    0    0    0 -0.00000000000E+00 -0.00000000000E+00 -0.45593999997E+02  0.45594000000E+02  0.51100000000E-03 0.  1.
    9900012    2    1    2    0    0  0.31978384161E+02  0.44094703823E+00 -0.25106805506E+02  0.50528890682E+02  0.30000093717E+02 0.  0.
         12    1    1    2    0    0 -0.31978384161E+02 -0.44094703823E+00  0.25106805506E+02  0.40659109318E+02  0.00000000000E+00 0. -1.
         11    1    3    3    0    0 -0.44177724604E+00 -0.13117342556E+00  0.79176868459E+00  0.91611763094E+00  0.51100000000E-03 0. -1.
        -11    1    3    3    0    0  0.20037007916E+02  0.86565072751E+01 -0.27075095636E+02  0.34777544600E+02  0.51100000000E-03 0.  1.
        -12    1    3    3    0    0  0.12383153491E+02 -0.80843868113E+01  0.11765214454E+01  0.14835228451E+02  0.00000000000E+00 0.  1.
</event>
<event>
 7    1  0.5329250E-013  0.5052887E+02  0.7816164E-02  0.1300439E+00
        -11   -1    0    0    0    0  0.00000000000E+00  0.00000000000E+00  0.45593999997E+02  0.45594000000E+02  0.51100000000E-03 0. -1.
         11   -1    0    0    0    0 -0.00000000000E+00 -0.00000000000E+00 -0.45593999997E+02  0.45594000000E+02  0.51100000000E-03 0.  1.
    9900012    2    1    2    0    0  0.17250696833E+01  0.23672195806E+01 -0.40553487446E+02  0.50528868947E+02  0.30000027651E+02 0.  0.
         12    1    1    2    0    0 -0.17250696833E+01 -0.23672195806E+01  0.40553487446E+02  0.40659131053E+02  0.00000000000E+00 0. -1.
         11    1    3    3    0    0  0.21309564577E+01  0.24668583916E+01 -0.60130986489E+01  0.68398626720E+01  0.51100000000E-03 0. -1.
        -11    1    3    3    0    0 -0.92894193788E+01  0.85100589163E+01 -0.25248345628E+02  0.28216898702E+02  0.51100000000E-03 0.  1.
         12    1    3    3    0    0  0.88835326043E+01 -0.86096977273E+01 -0.92920431687E+01  0.15472107573E+02  0.00000000000E+00 0. -1.
</event>
<event>
 7    1  0.5329250E-013  0.5052886E+02  0.7816164E-02  0.1300439E+00
        -11   -1    0    0    0    0  0.00000000000E+00  0.00000000000E+00  0.45593999997E+02  0.45594000000E+02  0.51100000000E-03 0. -1.
         11   -1    0    0    0    0 -0.00000000000E+00 -0.00000000000E+00 -0.45593999997E+02  0.45594000000E+02  0.51100000000E-03 0.  1.
    9900012    2    1    2    0    0 -0.36141576483E+02  0.15599206663E+02 -0.10179232676E+02  0.50528861088E+02  0.30000003763E+02 0.  0.
         12    1    1    2    0    0  0.36141576483E+02 -0.15599206663E+02  0.10179232676E+02  0.40659138912E+02  0.00000000000E+00 0. -1.
         11    1    3    3    0    0 -0.51262145297E+01  0.21710896644E+01 -0.75814144640E+01  0.94058253903E+01  0.51100000000E-03 0.  1.
        -11    1    3    3    0    0 -0.32980225486E+02  0.16056479063E+02 -0.50490497682E+01  0.37026999566E+02  0.51100000000E-03 0. -1.
         12    1    3    3    0    0  0.19648635331E+01 -0.26283620645E+01  0.24512315565E+01  0.40960361314E+01  0.00000000000E+00 0. -1.
</event>
<event>
 7    1  0.5329250E-013  0.5052885E+02  0.7816164E-02  0.1300439E+00
        -11   -1    0    0    0    0  0.00000000000E+00  0.00000000000E+00  0.45593999997E+02  0.45594000000E+02  0.51100000000E-03 0. -1.
         11   -1    0    0    0    0 -0.00000000000E+00 -0.00000000000E+00 -0.45593999997E+02  0.45594000000E+02  0.51100000000E-03 0.  1.
    9900012    2    1    2    0    0  0.28838993165E+02 -0.80918239897E+01 -0.27495480126E+02  0.50528848883E+02  0.29999966663E+02 0.  0.
         12    1    1    2    0    0 -0.28838993165E+02  0.80918239897E+01  0.27495480126E+02  0.40659151117E+02  0.00000000000E+00 0. -1.
         11    1    3    3    0    0  0.72582914130E+01 -0.21738161047E+01 -0.57201855579E+00  0.75983864197E+01  0.51100000000E-03 0. -1.
        -11    1    3    3    0    0 -0.40465427583E+01 -0.66248965737E+01 -0.71481907842E+01  0.10552743466E+02  0.51100000000E-03 0.  1.
         12    1    3    3    0    0  0.25627244510E+02  0.70688868871E+00 -0.19775270786E+02  0.32377718997E+02  0.00000000000E+00 0. -1.
</event>
<event>
 7    1  0.5329250E-013  0.5052885E+02  0.7816164E-02  0.1300439E+00
        -11   -1    0    0    0    0  0.00000000000E+00  0.00000000000E+00  0.45593999997E+02  0.45594000000E+02  0.51100000000E-03 0. -1.
         11   -1    0    0    0    0 -0.00000000000E+00 -0.00000000000E+00 -0.45593999997E+02  0.45594000000E+02  0.51100000000E-03 0.  1.
    9900012    2    1    2    0    0 -0.76777732819E+01  0.39635186623E+02 -0.48239071194E+01  0.50528852184E+02  0.29999976698E+02 0.  0.
         12    1    1    2    0    0  0.76777732819E+01 -0.39635186623E+02  0.48239071194E+01  0.40659147816E+02  0.00000000000E+00 0. -1.
         11    1    3    3    0    0 -0.11589372769E+02  0.12771753802E+02 -0.11622087174E+02  0.20796734525E+02  0.51100000000E-03 0. -1.
        -11    1    3    3    0    0  0.17076176132E+01  0.14225228326E+02 -0.15731650645E+01  0.14413463408E+02  0.51100000000E-03 0.  1.
        -12    1    3    3    0    0  0.22039818740E+01  0.12638204496E+02  0.83713451186E+01  0.15318654252E+02  0.00000000000E+00 0.  1.
</event>
<event>
 7    1  0.5329250E-013  0.5052886E+02  0.7816164E-02  0.1300439E+00
        -11   -1    0    0    0    0  0.00000000000E+00  0.00000000000E+00  0.45593999997E+02  0.45594000000E+02  0.51100000000E-03 0.  1.
         11   -1    0    0    0    0 -0.00000000000E+00 -0.00000000000E+00 -0.45593999997E+02  0.45594000000E+02  0.51100000000E-03 0. -1.
    9900012    2    1    2    0    0 -0.16563727093E+02  0.18756149906E+01  0.37084909211E+02  0.50528862306E+02  0.30000007466E+02 0.  0.
         12    1    1    2    0    0  0.16563727093E+02 -0.18756149906E+01 -0.37084909211E+02  0.40659137694E+02  0.00000000000E+00 0. -1.
         11    1    3    3    0    0 -0.68142922719E+01 -0.32358793658E+01 -0.38880790646E-01  0.75436732707E+01  0.51100000000E-03 0. -1.
        -11    1    3    3    0    0 -0.35504040779E+01  0.94169764380E+01  0.78767560746E+01  0.12779988297E+02  0.51100000000E-03 0.  1.
         12    1    3    3    0    0 -0.61990307435E+01 -0.43054820816E+01  0.29247033927E+02  0.30205200738E+02  0.00000000000E+00 0. -1.
</event>
<event>
 7    1  0.5329250E-013  0.5052885E+02  0.7816164E-02  0.1300439E+00
        -11   -1    0    0    0    0  0.00000000000E+00  0.00000000000E+00  0.45593999997E+02  0.45594000000E+02  0.51100000000E-03 0.  1.
         11   -1    0    0    0    0 -0.00000000000E+00 -0.00000000000E+00 -0.45593999997E+02  0.45594000000E+02  0.51100000000E-03 0. -1.
    9900012    2    1    2    0    0  0.13400104117E+02 -0.23133820470E+02  0.30633805712E+02  0.50528849833E+02  0.29999969552E+02 0.  0.
         12    1    1    2    0    0 -0.13400104117E+02  0.23133820470E+02 -0.30633805712E+02  0.40659150167E+02  0.00000000000E+00 0. -1.
         11    1    3    3    0    0 -0.46333318660E+01  0.56727434692E+00  0.35416981950E+01  0.58594531085E+01  0.51100000000E-03 0. -1.
        -11    1    3    3    0    0  0.11522127607E+02 -0.11017411278E+01  0.58101189798E+01  0.12951090338E+02  0.51100000000E-03 0.  1.
        -12    1    3    3    0    0  0.65113083757E+01 -0.22599353689E+02  0.21281988537E+02  0.31718306387E+02  0.00000000000E+00 0.  1.
</event>
<event>
 7    1  0.5329250E-013  0.5052887E+02  0.7816164E-02  0.1300439E+00
        -11   -1    0    0    0    0  0.00000000000E+00  0.00000000000E+00  0.45593999997E+02  0.45594000000E+02  0.51100000000E-03 0.  1.
         11   -1    0    0    0    0 -0.00000000000E+00 -0.00000000000E+00 -0.45593999997E+02  0.45594000000E+02  0.51100000000E-03 0. -1.
    9900012    2    1    2    0    0 -0.15494694043E+02 -0.30330926606E+02  0.22206168992E+02  0.50528873182E+02  0.30000040525E+02 0.  0.
         12    1    1    2    0    0  0.15494694043E+02  0.30330926606E+02 -0.22206168992E+02  0.40659126818E+02  0.00000000000E+00 0. -1.
         11    1    3    3    0    0 -0.81522992768E+01 -0.11774064455E+02  0.17527241534E+02  0.22633885512E+02  0.51100000000E-03 0.  1.
        -11    1    3    3    0    0 -0.12000616422E+02 -0.67446844211E+01 -0.13627580749E+01  0.13833389761E+02  0.51100000000E-03 0. -1.
         12    1    3    3    0    0  0.46582216549E+01 -0.11812177729E+02  0.60416855331E+01  0.14061597910E+02  0.00000000000E+00 0. -1.
</event>
<event>
 7    1  0.5329250E-013  0.5052885E+02  0.7816164E-02  0.1300439E+00
        -11   -1    0    0    0    0  0.00000000000E+00  0.00000000000E+00  0.45593999997E+02  0.45594000000E+02  0.51100000000E-03 0.  1.
         11   -1    0    0    0    0 -0.00000000000E+00 -0.00000000000E+00 -0.45593999997E+02  0.45594000000E+02  0.51100000000E-03 0. -1.
    9900012    2    1    2    0    0 -0.17970835247E+02  0.35829734461E+02  0.68151268680E+01  0.50528846723E+02  0.29999960098E+02 0.  0.
         12    1    1    2    0    0  0.17970835247E+02 -0.35829734461E+02 -0.68151268680E+01  0.40659153277E+02  0.00000000000E+00 0. -1.
         11    1    3    3    0    0 -0.48148536412E+01  0.17226319113E+02  0.53021316907E+01  0.18655870028E+02  0.51100000000E-03 0. -1.
        -11    1    3    3    0    0 -0.17922317536E+02  0.74267160253E+01 -0.11492776235E+01  0.19434155914E+02  0.51100000000E-03 0.  1.
         12    1    3    3    0    0  0.47663359302E+01  0.11176699323E+02  0.26622728009E+01  0.12438820781E+02  0.00000000000E+00 0. -1.
</event>
<event>
 7    1  0.5329250E-013  0.5052886E+02  0.7816164E-02  0.1300439E+00
        -11   -1    0    0    0    0  0.00000000000E+00  0.00000000000E+00  0.45593999997E+02  0.45594000000E+02  0.51100000000E-03 0.  1.
         11   -1    0    0    0    0 -0.00000000000E+00 -0.00000000000E+00 -0.45593999997E+02  0.45594000000E+02  0.51100000000E-03 0. -1.
    9900012    2    1    2    0    0  0.19682156378E+02  0.16866539922E+01  0.35537775962E+02  0.50528860785E+02  0.30000002842E+02 0.  0.
         12    1    1    2    0    0 -0.19682156378E+02 -0.16866539922E+01 -0.35537775962E+02  0.40659139215E+02  0.00000000000E+00 0. -1.
         11    1    3    3    0    0 -0.41722398304E+00 -0.25546256426E+01  0.16222484754E+02  0.16427696122E+02  0.51100000000E-03 0. -1.
        -11    1    3    3    0    0  0.19705464387E+01  0.20062673936E+01  0.15093899370E+02  0.15353630208E+02  0.51100000000E-03 0.  1.
         12    1    3    3    0    0  0.18128833922E+02  0.22350122412E+01  0.42213918385E+01  0.18747534455E+02  0.00000000000E+00 0. -1.
</event>
<event>
 7    1  0.5329250E-013  0.5052887E+02  0.7816164E-02  0.1300439E+00
        -11   -1    0    0    0    0  0.00000000000E+00  0.00000000000E+00  0.45593999997E+02  0.45594000000E+02  0.51100000000E-03 0.  1.
         11   -1    0    0    0    0 -0.00000000000E+00 -0.00000000000E+00 -0.45593999997E+02  0.45594000000E+02  0.51100000000E-03 0. -1.
    9900012    2    1    2    0    0 -0.22551796868E+02  0.29687588018E+02  0.16224325627E+02  0.50528866139E+02  0.30000019116E+02 0.  0.
         12    1    1    2    0    0  0.22551796868E+02 -0.29687588018E+02 -0.16224325627E+02  0.40659133861E+02  0.00000000000E+00 0. -1.
         11    1    3    3    0    0 -0.11299242302E+02  0.52834547721E+01  0.10458468546E+02  0.16277817284E+02  0.51100000000E-03 0. -1.
        -11    1    3    3    0    0 -0.43702629313E+01  0.20353137796E+02  0.12082036469E+02  0.24069171605E+02  0.51100000000E-03 0.  1.
         12    1    3    3    0    0 -0.68822916346E+01  0.40509954494E+01 -0.63161793885E+01  0.10181877250E+02  0.00000000000E+00 0. -1.
</event>
<event>
 7    1  0.5329250E-013  0.5052885E+02  0.7816164E-02  0.1300439E+00
        -11   -1    0    0    0    0  0.00000000000E+00  0.00000000000E+00  0.45593999997E+02  0.45594000000E+02  0.51100000000E-03 0. -1.
         11   -1    0    0    0    0 -0.00000000000E+00 -0.00000000000E+00 -0.45593999997E+02  0.45594000000E+02  0.51100000000E-03 0.  1.
    9900012    2    1    2    0    0  0.12310765904E+02  0.27526120181E+02 -0.27274969185E+02  0.50528853508E+02  0.29999980723E+02 0.  0.
         12    1    1    2    0    0 -0.12310765904E+02 -0.27526120181E+02  0.27274969185E+02  0.40659146492E+02  0.00000000000E+00 0. -1.
         11    1    3    3    0    0  0.14249172525E+02  0.65312140443E+01 -0.71720692010E+01  0.17237582528E+02  0.51100000000E-03 0. -1.
        -11    1    3    3    0    0  0.70961725937E+01  0.10467175839E+02 -0.10194312251E+02  0.16243196670E+02  0.51100000000E-03 0.  1.
         12    1    3    3    0    0 -0.90345792144E+01  0.10527730298E+02 -0.99085877336E+01  0.17048074310E+02  0.00000000000E+00 0. -1.
</event>
<event>
 7    1  0.5329250E-013  0.5052885E+02  0.7816164E-02  0.1300439E+00
        -11   -1    0    0    0    0  0.00000000000E+00  0.00000000000E+00  0.45593999997E+02  0.45594000000E+02  0.51100000000E-03 0.  1.
         11   -1    0    0    0    0 -0.00000000000E+00 -0.00000000000E+00 -0.45593999997E+02  0.45594000000E+02  0.51100000000E-03 0. -1.
    9900012    2    1    2    0    0  0.23855435310E+02 -0.13174138663E+02  0.30174939783E+02  0.50528847103E+02  0.29999961255E+02 0.  0.
         12    1    1    2    0    0 -0.23855435310E+02  0.13174138663E+02 -0.30174939783E+02  0.40659152897E+02  0.00000000000E+00 0. -1.
         11    1    3    3    0    0  0.18064145926E+01 -0.11478323519E+02  0.54088359323E+01  0.12816807359E+02  0.51100000000E-03 0. -1.
        -11    1    3    3    0    0  0.88720760192E+01 -0.51878233745E+01  0.21294793321E+02  0.23645199663E+02  0.51100000000E-03 0.  1.
         12    1    3    3    0    0  0.13176944699E+02  0.34920082299E+01  0.34713105295E+01  0.14066840081E+02  0.00000000000E+00 0. -1.
</event>
<event>
 7    1  0.5329250E-013  0.5052889E+02  0.7816164E-02  0.1300439E+00
        -11   -1    0    0    0    0  0.00000000000E+00  0.00000000000E+00  0.45593999997E+02  0.45594000000E+02  0.51100000000E-03 0. -1.
         11   -1    0    0    0    0 -0.00000000000E+00 -0.00000000000E+00 -0.45593999997E+02  0.45594000000E+02  0.51100000000E-03 0.  1.
    9900012    2    1    2    0    0  0.23298876638E+02  0.13423892005E+02 -0.30497944631E+02  0.50528890863E+02  0.30000094266E+02 0.  0.
         12    1    1    2    0    0 -0.23298876638E+02 -0.13423892005E+02  0.30497944631E+02  0.40659109137E+02  0.00000000000E+00 0. -1.
         11    1    3    3    0    0  0.24723781210E+01  0.39724466940E+01 -0.18501912079E+02  0.19084384642E+02  0.51100000000E-03 0. -1.
        -11    1    3    3    0    0  0.17985856046E+02 -0.82886241000E+00 -0.99940357972E+01  0.20592687595E+02  0.51100000000E-03 0.  1.
         12    1    3    3    0    0  0.28406424709E+01  0.10280307721E+02 -0.20019967539E+01  0.10851818626E+02  0.00000000000E+00 0. -1.
</event>
<event>
 7    1  0.5329250E-013  0.5052887E+02  0.7816164E-02  0.1300439E+00
        -11   -1    0    0    0    0  0.00000000000E+00  0.00000000000E+00  0.45593999997E+02  0.45594000000E+02  0.51100000000E-03 0. -1.
         11   -1    0    0    0    0 -0.00000000000E+00 -0.00000000000E+00 -0.45593999997E+02  0.45594000000E+02  0.51100000000E-03 0.  1.
    9900012    2    1    2    0    0 -0.87781941496E+01  0.38724612886E+02 -0.87471589985E+01  0.50528866632E+02  0.30000020614E+02 0.  0.
         12    1    1    2    0    0  0.87781941496E+01 -0.38724612886E+02  0.87471589985E+01  0.40659133368E+02  0.00000000000E+00 0. -1.
         11    1    3    3    0    0 -0.89401505516E+01  0.17881672545E+02 -0.27843743351E+01  0.20184975739E+02  0.51100000000E-03 0. -1.
        -11    1    3    3    0    0 -0.66160234594E+01  0.55078168162E+01 -0.99022291106E+01  0.13121050039E+02  0.51100000000E-03 0.  1.
         12    1    3    3    0    0  0.67779798614E+01  0.15335123525E+02  0.39394444472E+01  0.17222840854E+02  0.00000000000E+00 0. -1.
</event>
<event>
 7    1  0.5329250E-013  0.5052886E+02  0.7816164E-02  0.1300439E+00
        -11   -1    0    0    0    0  0.00000000000E+00  0.00000000000E+00  0.45593999997E+02  0.45594000000E+02  0.51100000000E-03 0.  1.
         11   -1    0    0    0    0 -0.00000000000E+00 -0.00000000000E+00 -0.45593999997E+02  0.45594000000E+02  0.51100000000E-03 0. -1.
    9900012    2    1    2    0    0 -0.53952589439E+01 -0.37454422880E+02 -0.14873558255E+02  0.50528863911E+02  0.30000012344E+02 0.  0.
         12    1    1    2    0    0  0.53952589439E+01  0.37454422880E+02  0.14873558255E+02  0.40659136089E+02  0.00000000000E+00 0. -1.
         11    1    3    3    0    0  0.36807676967E+01 -0.16643650754E+01 -0.65555213496E+01  0.77001962551E+01  0.51100000000E-03 0. -1.
        -11    1    3    3    0    0 -0.97373159268E+00 -0.23232612555E+02 -0.13647765022E+02  0.26962268630E+02  0.51100000000E-03 0.  1.
        -12    1    3    3    0    0 -0.81022950479E+01 -0.12557445250E+02  0.53297281166E+01  0.15866399026E+02  0.00000000000E+00 0.  1.
</event>
<event>
 7    1  0.5329250E-013  0.5052887E+02  0.7816164E-02  0.1300439E+00
        -11   -1    0    0    0    0  0.00000000000E+00  0.00000000000E+00  0.45593999997E+02  0.45594000000E+02  0.51100000000E-03 0. -1.
         11   -1    0    0    0    0 -0.00000000000E+00 -0.00000000000E+00 -0.45593999997E+02  0.45594000000E+02  0.51100000000E-03 0.  1.
    9900012    2    1    2    0    0  0.71021819405E+01 -0.36097448338E+02 -0.17311799428E+02  0.50528866164E+02  0.30000019193E+02 0.  0.
         12    1    1    2    0    0 -0.71021819405E+01  0.36097448338E+02  0.17311799428E+02  0.40659133836E+02  0.00000000000E+00 0. -1.
         11    1    3    3    0    0 -0.41987034949E+01 -0.77052860026E+01 -0.12550099125E+02  0.15313573448E+02  0.51100000000E-03 0. -1.
        -11    1    3    3    0    0  0.44417023074E+01 -0.22668030002E+01  0.44433168637E+01  0.66790852848E+01  0.51100000000E-03 0.  1.
        -12    1    3    3    0    0  0.68591831280E+01 -0.26125359335E+02 -0.92050171663E+01  0.28536207432E+02  0.00000000000E+00 0.  1.
</event>
<event>
 7    1  0.5329250E-013  0.5052886E+02  0.7816164E-02  0.1300439E+00
        -11   -1    0    0    0    0  0.00000000000E+00  0.00000000000E+00  0.45593999997E+02  0.45594000000E+02  0.51100000000E-03 0.  1.
         11   -1    0    0    0    0 -0.00000000000E+00 -0.00000000000E+00 -0.45593999997E+02  0.45594000000E+02  0.51100000000E-03 0. -1.
    9900012    2    1    2    0    0 -0.40402952175E+02 -0.30817826827E+01  0.33570532129E+01  0.50528859143E+02  0.29999997851E+02 0.  0.
         12    1    1    2    0    0  0.40402952175E+02  0.30817826827E+01 -0.33570532129E+01  0.40659140857E+02  0.00000000000E+00 0. -1.
         11    1    3    3    0    0 -0.15131101021E+01 -0.40773829655E+01  0.51621806643E+01  0.67500121111E+01  0.51100000000E-03 0. -1.
        -11    1    3    3    0    0 -0.17082760335E+02 -0.93553667059E+01 -0.24565900848E+01  0.19631057586E+02  0.51100000000E-03 0.  1.
        -12    1    3    3    0    0 -0.21807081738E+02  0.10350966989E+02  0.65146263350E+00  0.24147789446E+02  0.00000000000E+00 0.  1.
</event>
<event>
 7    1  0.5329250E-013  0.5052886E+02  0.7816164E-02  0.1300439E+00
        -11   -1    0    0    0    0  0.00000000000E+00  0.00000000000E+00  0.45593999997E+02  0.45594000000E+02  0.51100000000E-03 0.  1.
         11   -1    0    0    0    0 -0.00000000000E+00 -0.00000000000E+00 -0.45593999997E+02  0.45594000000E+02  0.51100000000E-03 0. -1.
    9900012    2    1    2    0    0 -0.15956461192E+02 -0.37329918930E+02  0.22436957673E+01  0.50528859923E+02  0.30000000221E+02 0.  0.
         12    1    1    2    0    0  0.15956461192E+02  0.37329918930E+02 -0.22436957673E+01  0.40659140077E+02  0.00000000000E+00 0. -1.
         11    1    3    3    0    0  0.29593738698E+01 -0.73010325879E+01 -0.69902130629E+01  0.10532143632E+02  0.51100000000E-03 0. -1.
        -11    1    3    3    0    0 -0.64939881559E+01 -0.24413792727E+02  0.53618533610E+01  0.25825464744E+02  0.51100000000E-03 0.  1.
        -12    1    3    3    0    0 -0.12421846906E+02 -0.56150936154E+01  0.38720554693E+01  0.14171251548E+02  0.00000000000E+00 0.  1.
</event>
<event>
 7    1  0.5329250E-013  0.5052887E+02  0.7816164E-02  0.1300439E+00
        -11   -1    0    0    0    0  0.00000000000E+00  0.00000000000E+00  0.45593999997E+02  0.45594000000E+02  0.51100000000E-03 0.  1.
         11   -1    0    0    0    0 -0.00000000000E+00 -0.00000000000E+00 -0.45593999997E+02  0.45594000000E+02  0.51100000000E-03 0. -1.
    9900012    2    1    2    0    0  0.33154691614E+02  0.10019194495E+02 -0.21296648042E+02  0.50528867543E+02  0.30000023383E+02 0.  0.
         12    1    1    2    0    0 -0.33154691614E+02 -0.10019194495E+02  0.21296648042E+02  0.40659132457E+02  0.00000000000E+00 0. -1.
         11    1    3    3    0    0 -0.88483927965E+00 -0.83859269224E+00 -0.19526243655E+01  0.23019384067E+01  0.51100000000E-03 0. -1.
        -11    1    3    3    0    0  0.25499307416E+02  0.11820890260E+02 -0.25263358625E+02  0.37791340470E+02  0.51100000000E-03 0.  1.
         12    1    3    3    0    0  0.85402234773E+01 -0.96310307321E+00  0.59193349485E+01  0.10435588666E+02  0.00000000000E+00 0. -1.
</event>
<event>
 7    1  0.7133154E-013  0.5052886E+02  0.7816164E-02  0.1300439E+00
        -11   -1    0    0    0    0  0.00000000000E+00  0.00000000000E+00  0.45593999997E+02  0.45594000000E+02  0.51100000000E-03 0. -1.
         11   -1    0    0    0    0 -0.00000000000E+00 -0.00000000000E+00 -0.45593999997E+02  0.45594000000E+02  0.51100000000E-03 0.  1.
    9900012    2    1    2    0    0  0.23241622273E+02  0.13087674269E+02 -0.30687218514E+02  0.50528860760E+02  0.30000002765E+02 0.  0.
         12    1    1    2    0    0 -0.23241622273E+02 -0.13087674269E+02  0.30687218514E+02  0.40659139240E+02  0.00000000000E+00 0. -1.
         11    1    3    3    0    0  0.87999387728E+00  0.26186099774E+00  0.26661857400E+01  0.28198416742E+01  0.51100000000E-03 0. -1.
        -11    1    3    3    0    0 -0.28280329969E+01  0.75994777552E+01 -0.10738345514E+02  0.13455924250E+02  0.51100000000E-03 0.  1.
        -12    1    3    3    0    0  0.25189661392E+02  0.52263355163E+01 -0.22615058740E+02  0.34253094836E+02  0.00000000000E+00 0.  1.
</event>
<event>
 7    1  0.5329250E-013  0.5052886E+02  0.7816164E-02  0.1300439E+00
        -11   -1    0    0    0    0  0.00000000000E+00  0.00000000000E+00  0.45593999997E+02  0.45594000000E+02  0.51100000000E-03 0.  1.
         11   -1    0    0    0    0 -0.00000000000E+00 -0.00000000000E+00 -0.45593999997E+02  0.45594000000E+02  0.51100000000E-03 0. -1.
    9900012    2    1    2    0    0  0.14622150376E+02 -0.24274948450E+02  0.29156221719E+02  0.50528859960E+02  0.30000000335E+02 0.  0.
         12    1    1    2    0    0 -0.14622150376E+02  0.24274948450E+02 -0.29156221719E+02  0.40659140040E+02  0.00000000000E+00 0. -1.
         11    1    3    3    0    0  0.72088101281E+01 -0.83686571269E+01  0.11396453208E+02  0.15870743888E+02  0.51100000000E-03 0.  1.
        -11    1    3    3    0    0  0.11181116515E+02 -0.95453237730E+01  0.21753405172E+02  0.26255308212E+02  0.51100000000E-03 0. -1.
         12    1    3    3    0    0 -0.37677762666E+01 -0.63609675496E+01 -0.39936366613E+01  0.84028078608E+01  0.00000000000E+00 0. -1.
</event>
<event>
 7    1  0.5329250E-013  0.5052885E+02  0.7816164E-02  0.1300439E+00
        -11   -1    0    0    0    0  0.00000000000E+00  0.00000000000E+00  0.45593999997E+02  0.45594000000E+02  0.51100000000E-03 0. -1.
         11   -1    0    0    0    0 -0.00000000000E+00 -0.00000000000E+00 -0.45593999997E+02  0.45594000000E+02  0.51100000000E-03 0.  1.
    9900012    2    1    2    0    0  0.19781877210E+02 -0.27078297258E+02 -0.22991512317E+02  0.50528849899E+02  0.29999969753E+02 0.  0.
         12    1    1    2    0    0 -0.19781877210E+02  0.27078297258E+02  0.22991512317E+02  0.40659150101E+02  0.00000000000E+00 0. -1.
         11    1    3    3    0    0  0.62741716759E+01 -0.26279308903E+01  0.18486422190E+01  0.70490232869E+01  0.51100000000E-03 0. -1.
        -11    1    3    3    0    0 -0.55721375423E+01 -0.75420370684E+01 -0.28179777511E+01  0.97914268010E+01  0.51100000000E-03 0.  1.
        -12    1    3    3    0    0  0.19079843076E+02 -0.16908329299E+02 -0.22022176785E+02  0.33688399811E+02  0.00000000000E+00 0.  1.
</event>
<event>
 7    1  0.5329250E-013  0.5052886E+02  0.7816164E-02  0.1300439E+00
        -11   -1    0    0    0    0  0.00000000000E+00  0.00000000000E+00  0.45593999997E+02  0.45594000000E+02  0.51100000000E-03 0.  1.
         11   -1    0    0    0    0 -0.00000000000E+00 -0.00000000000E+00 -0.45593999997E+02  0.45594000000E+02  0.51100000000E-03 0. -1.
    9900012    2    1    2    0    0 -0.19549585063E+02  0.24890741462E+02  0.25523133392E+02  0.50528860501E+02  0.30000001979E+02 0.  0.
         12    1    1    2    0    0  0.19549585063E+02 -0.24890741462E+02 -0.25523133392E+02  0.40659139499E+02  0.00000000000E+00 0. -1.
         11    1    3    3    0    0  0.21851496365E+01  0.15765430553E+01  0.64835704742E+01  0.70211860318E+01  0.51100000000E-03 0. -1.
        -11    1    3    3    0    0 -0.15297093135E+02  0.17072619561E+02  0.24059449147E+02  0.33231498471E+02  0.51100000000E-03 0.  1.
        -12    1    3    3    0    0 -0.64376415644E+01  0.62415788455E+01 -0.50198862296E+01  0.10276175999E+02  0.00000000000E+00 0.  1.
</event>
<event>
 7    1  0.5329250E-013  0.5052886E+02  0.7816164E-02  0.1300439E+00
        -11   -1    0    0    0    0  0.00000000000E+00  0.00000000000E+00  0.45593999997E+02  0.45594000000E+02  0.51100000000E-03 0. -1.
         11   -1    0    0    0    0 -0.00000000000E+00 -0.00000000000E+00 -0.45593999997E+02  0.45594000000E+02  0.51100000000E-03 0.  1.
    9900012    2    1    2    0    0  0.13414914997E+02 -0.34404867769E+02 -0.17015008696E+02  0.50528863370E+02  0.30000010700E+02 0.  0.
         12    1    1    2    0    0 -0.13414914997E+02  0.34404867769E+02  0.17015008696E+02  0.40659136630E+02  0.00000000000E+00 0. -1.
         11    1    3    3    0    0 -0.11772940078E+01 -0.10920249591E+02 -0.12744592732E+02  0.16824461848E+02  0.51100000000E-03 0.  1.
        -11    1    3    3    0    0 -0.37714250206E+01 -0.57425508509E+01  0.24608601475E+01  0.72976962041E+01  0.51100000000E-03 0. -1.
        -12    1    3    3    0    0  0.18363634025E+02 -0.17742067327E+02 -0.67312761111E+01  0.26406705318E+02  0.00000000000E+00 0.  1.
</event>
<event>
 7    1  0.5329250E-013  0.5052882E+02  0.7816164E-02  0.1300439E+00
        -11   -1    0    0    0    0  0.00000000000E+00  0.00000000000E+00  0.45593999997E+02  0.45594000000E+02  0.51100000000E-03 0.  1.
         11   -1    0    0    0    0 -0.00000000000E+00 -0.00000000000E+00 -0.45593999997E+02  0.45594000000E+02  0.51100000000E-03 0. -1.
    9900012    2    1    2    0    0 -0.11236022086E+02 -0.27402395403E+02  0.27857307532E+02  0.50528818391E+02  0.29999873982E+02 0.  0.
         12    1    1    2    0    0  0.11236022086E+02  0.27402395403E+02 -0.27857307532E+02  0.40659181609E+02  0.00000000000E+00 0. -1.
         11    1    3    3    0    0  0.98811908660E+00 -0.62592612517E+01 -0.41434165889E+01  0.75711711140E+01  0.51100000000E-03 0. -1.
        -11    1    3    3    0    0 -0.55417039481E+01  0.81523099800E+00  0.78071527267E+01  0.96086793155E+01  0.51100000000E-03 0.  1.
         12    1    3    3    0    0 -0.66824372250E+01 -0.21958365149E+02  0.24193571395E+02  0.33348967962E+02  0.00000000000E+00 0. -1.
</event>
<event>
 7    1  0.5329250E-013  0.5052885E+02  0.7816164E-02  0.1300439E+00
        -11   -1    0    0    0    0  0.00000000000E+00  0.00000000000E+00  0.45593999997E+02  0.45594000000E+02  0.51100000000E-03 0.  1.
         11   -1    0    0    0    0 -0.00000000000E+00 -0.00000000000E+00 -0.45593999997E+02  0.45594000000E+02  0.51100000000E-03 0. -1.
    9900012    2    1    2    0    0 -0.38907639848E+00  0.14418864700E+02  0.38014619127E+02  0.50528852111E+02  0.29999976476E+02 0.  0.
         12    1    1    2    0    0  0.38907639848E+00 -0.14418864700E+02 -0.38014619127E+02  0.40659147889E+02  0.00000000000E+00 0. -1.
         11    1    3    3    0    0  0.27895726950E+01 -0.51840081380E+01  0.52599222572E+01  0.78944561946E+01  0.51100000000E-03 0. -1.
        -11    1    3    3    0    0  0.78079630633E+01  0.63542995835E+01  0.12732574337E+02  0.16231446636E+02  0.51100000000E-03 0.  1.
         12    1    3    3    0    0 -0.10986612157E+02  0.13248573255E+02  0.20022122533E+02  0.26402949280E+02  0.00000000000E+00 0. -1.
</event>
<event>
 7    1  0.5329250E-013  0.5052887E+02  0.7816164E-02  0.1300439E+00
        -11   -1    0    0    0    0  0.00000000000E+00  0.00000000000E+00  0.45593999997E+02  0.45594000000E+02  0.51100000000E-03 0.  1.
         11   -1    0    0    0    0 -0.00000000000E+00 -0.00000000000E+00 -0.45593999997E+02  0.45594000000E+02  0.51100000000E-03 0. -1.
    9900012    2    1    2    0    0  0.28669465579E+02 -0.32567253235E+01  0.28646467806E+02  0.50528872683E+02  0.30000039006E+02 0.  0.
         12    1    1    2    0    0 -0.28669465579E+02  0.32567253235E+01 -0.28646467806E+02  0.40659127317E+02  0.00000000000E+00 0. -1.
         11    1    3    3    0    0 -0.47287475957E+00  0.24508133828E+01  0.27342260071E+01  0.37021735366E+01  0.51100000000E-03 0. -1.
        -11    1    3    3    0    0  0.25603721743E+02  0.21580785211E+01  0.27948327117E+02  0.37964679097E+02  0.51100000000E-03 0.  1.
         12    1    3    3    0    0  0.35386185961E+01 -0.78656172274E+01 -0.20360853184E+01  0.88620200496E+01  0.00000000000E+00 0. -1.
</event>
<event>
 7    1  0.5329250E-013  0.5052887E+02  0.7816164E-02  0.1300439E+00
        -11   -1    0    0    0    0  0.00000000000E+00  0.00000000000E+00  0.45593999997E+02  0.45594000000E+02  0.51100000000E-03 0.  1.
         11   -1    0    0    0    0 -0.00000000000E+00 -0.00000000000E+00 -0.45593999997E+02  0.45594000000E+02  0.51100000000E-03 0. -1.
    9900012    2    1    2    0    0 -0.17950352189E+02  0.24388798278E+02  0.27131835024E+02  0.50528866993E+02  0.30000021711E+02 0.  0.
         12    1    1    2    0    0  0.17950352189E+02 -0.24388798278E+02 -0.27131835024E+02  0.40659133007E+02  0.00000000000E+00 0. -1.
         11    1    3    3    0    0  0.49852035862E+01  0.51490575144E+01  0.58975894754E+00  0.71911656885E+01  0.51100000000E-03 0. -1.
        -11    1    3    3    0    0 -0.56742590015E+01  0.42342732767E+01  0.17257398885E+02  0.18653259821E+02  0.51100000000E-03 0.  1.
        -12    1    3    3    0    0 -0.17261296773E+02  0.15005467487E+02  0.92846771915E+01  0.24684441483E+02  0.00000000000E+00 0.  1.
</event>
<event>
 7    1  0.5329250E-013  0.5052887E+02  0.7816164E-02  0.1300439E+00
        -11   -1    0    0    0    0  0.00000000000E+00  0.00000000000E+00  0.45593999997E+02  0.45594000000E+02  0.51100000000E-03 0.  1.
         11   -1    0    0    0    0 -0.00000000000E+00 -0.00000000000E+00 -0.45593999997E+02  0.45594000000E+02  0.51100000000E-03 0. -1.
    9900012    2    1    2    0    0 -0.10794509593E+02  0.37883192956E+02  0.10075087351E+02  0.50528866573E+02  0.30000020435E+02 0.  0.
         12    1    1    2    0    0  0.10794509593E+02 -0.37883192956E+02 -0.10075087351E+02  0.40659133427E+02  0.00000000000E+00 0. -1.
         11    1    3    3    0    0 -0.15586219181E+01 -0.20970909040E+01  0.29376215667E+01  0.39315026737E+01  0.51100000000E-03 0. -1.
        -11    1    3    3    0    0 -0.38888150886E+01  0.99571009411E+01 -0.72114422180E+01  0.12894636136E+02  0.51100000000E-03 0.  1.
        -12    1    3    3    0    0 -0.53470725859E+01  0.30023182919E+02  0.14348908002E+02  0.33702727764E+02  0.00000000000E+00 0.  1.
</event>
<event>
 7    1  0.5329250E-013  0.5052889E+02  0.7816164E-02  0.1300439E+00
        -11   -1    0    0    0    0  0.00000000000E+00  0.00000000000E+00  0.45593999997E+02  0.45594000000E+02  0.51100000000E-03 0.  1.
         11   -1    0    0    0    0 -0.00000000000E+00 -0.00000000000E+00 -0.45593999997E+02  0.45594000000E+02  0.51100000000E-03 0. -1.
    9900012    2    1    2    0    0 -0.26575610437E+02 -0.85544786325E+01  0.29558770486E+02  0.50528891704E+02  0.30000096825E+02 0.  0.
         12    1    1    2    0    0  0.26575610437E+02  0.85544786325E+01 -0.29558770486E+02  0.40659108296E+02  0.00000000000E+00 0. -1.
         11    1    3    3    0    0  0.40235079979E+01 -0.63176461231E+01  0.69543589690E+01  0.10220781676E+02  0.51100000000E-03 0. -1.
        -11    1    3    3    0    0 -0.77059991387E+01  0.30424646558E+01  0.11876588852E+02  0.14480758852E+02  0.51100000000E-03 0.  1.
        -12    1    3    3    0    0 -0.22893119296E+02 -0.52792971652E+01  0.10727822665E+02  0.25827351176E+02  0.00000000000E+00 0.  1.
</event>
<event>
 7    1  0.5329250E-013  0.5052885E+02  0.7816164E-02  0.1300439E+00
        -11   -1    0    0    0    0  0.00000000000E+00  0.00000000000E+00  0.45593999997E+02  0.45594000000E+02  0.51100000000E-03 0.  1.
         11   -1    0    0    0    0 -0.00000000000E+00 -0.00000000000E+00 -0.45593999997E+02  0.45594000000E+02  0.51100000000E-03 0. -1.
    9900012    2    1    2    0    0 -0.53704117325E+01 -0.38538770059E+02 -0.11793588755E+02  0.50528845366E+02  0.29999955975E+02 0.  0.
         12    1    1    2    0    0  0.53704117325E+01  0.38538770059E+02  0.11793588755E+02  0.40659154634E+02  0.00000000000E+00 0. -1.
         11    1    3    3    0    0 -0.51272030630E+01 -0.77364272321E+01 -0.12333814951E+02  0.15435786636E+02  0.51100000000E-03 0. -1.
        -11    1    3    3    0    0  0.76307061616E+01 -0.90757379803E+01  0.15694346897E+01  0.11960761762E+02  0.51100000000E-03 0.  1.
        -12    1    3    3    0    0 -0.78739148312E+01 -0.21726604846E+02 -0.10292084938E+01  0.23132296968E+02  0.00000000000E+00 0.  1.
</event>
<event>
 7    1  0.5329250E-013  0.5052886E+02  0.7816164E-02  0.1300439E+00
        -11   -1    0    0    0    0  0.00000000000E+00  0.00000000000E+00  0.45593999997E+02  0.45594000000E+02  0.51100000000E-03 0. -1.
         11   -1    0    0    0    0 -0.00000000000E+00 -0.00000000000E+00 -0.45593999997E+02  0.45594000000E+02  0.51100000000E-03 0.  1.
    9900012    2    1    2    0    0  0.29641118935E+02  0.14968366562E+02 -0.23463122030E+02  0.50528855584E+02  0.29999987033E+02 0.  0.
         12    1    1    2    0    0 -0.29641118935E+02 -0.14968366562E+02  0.23463122030E+02  0.40659144416E+02  0.00000000000E+00 0. -1.
         11    1    3    3    0    0  0.26742184374E+01 -0.11839115729E+01  0.34557735437E+01  0.45271913931E+01  0.51100000000E-03 0. -1.
        -11    1    3    3    0    0  0.78775509535E+01  0.22151771223E+01 -0.19630411188E+02  0.21267718786E+02  0.51100000000E-03 0.  1.
        -12    1    3    3    0    0  0.19089349544E+02  0.13937101013E+02 -0.72884843862E+01  0.24733945405E+02  0.00000000000E+00 0.  1.
</event>
<event>
 7    1  0.5329250E-013  0.5052886E+02  0.7816164E-02  0.1300439E+00
        -11   -1    0    0    0    0  0.00000000000E+00  0.00000000000E+00  0.45593999997E+02  0.45594000000E+02  0.51100000000E-03 0. -1.
         11   -1    0    0    0    0 -0.00000000000E+00 -0.00000000000E+00 -0.45593999997E+02  0.45594000000E+02  0.51100000000E-03 0.  1.
    9900012    2    1    2    0    0  0.12706725261E+02  0.38383740781E+02  0.42887453048E+01  0.50528858845E+02  0.29999996945E+02 0.  0.
         12    1    1    2    0    0 -0.12706725261E+02 -0.38383740781E+02 -0.42887453048E+01  0.40659141155E+02  0.00000000000E+00 0. -1.
         11    1    3    3    0    0  0.12345663226E+02  0.68805744643E+01  0.73705048008E+01  0.15939951277E+02  0.51100000000E-03 0. -1.
        -11    1    3    3    0    0 -0.10080227213E+01  0.65853113772E+01  0.50306025491E+01  0.83480176096E+01  0.51100000000E-03 0.  1.
         12    1    3    3    0    0  0.13690847564E+01  0.24917854939E+02 -0.81123620451E+01  0.26240889958E+02  0.00000000000E+00 0. -1.
</event>
<event>
 7    1  0.5329250E-013  0.5052885E+02  0.7816164E-02  0.1300439E+00
        -11   -1    0    0    0    0  0.00000000000E+00  0.00000000000E+00  0.45593999997E+02  0.45594000000E+02  0.51100000000E-03 0. -1.
         11   -1    0    0    0    0 -0.00000000000E+00 -0.00000000000E+00 -0.45593999997E+02  0.45594000000E+02  0.51100000000E-03 0.  1.
    9900012    2    1    2    0    0  0.30054579433E+02 -0.17338316166E+02 -0.21196019037E+02  0.50528853730E+02  0.29999981399E+02 0.  0.
         12    1    1    2    0    0 -0.30054579433E+02  0.17338316166E+02  0.21196019037E+02  0.40659146270E+02  0.00000000000E+00 0. -1.
         11    1    3    3    0    0 -0.54775790685E+00 -0.11166580222E+01 -0.93071251768E+01  0.93898638532E+01  0.51100000000E-03 0. -1.
        -11    1    3    3    0    0  0.25114614454E+02 -0.18213674103E+02 -0.15070104781E+02  0.34490431163E+02  0.51100000000E-03 0.  1.
         12    1    3    3    0    0  0.54877228858E+01  0.19920159592E+01  0.31812109200E+01  0.66485587138E+01  0.00000000000E+00 0. -1.
</event>
<event>
 7    1  0.5329250E-013  0.5052887E+02  0.7816164E-02  0.1300439E+00
        -11   -1    0    0    0    0  0.00000000000E+00  0.00000000000E+00  0.45593999997E+02  0.45594000000E+02  0.51100000000E-03 0.  1.
         11   -1    0    0    0    0 -0.00000000000E+00 -0.00000000000E+00 -0.45593999997E+02  0.45594000000E+02  0.51100000000E-03 0. -1.
    9900012    2    1    2    0    0  0.32413682831E+02  0.24061024001E+02 -0.48564765485E+01  0.50528867261E+02  0.30000022526E+02 0.  0.
         12    1    1    2    0    0 -0.32413682831E+02 -0.24061024001E+02  0.48564765485E+01  0.40659132739E+02  0.00000000000E+00 0. -1.
         11    1    3    3    0    0  0.30005292588E+02  0.15184447606E+02 -0.36916173565E+01  0.33830652836E+02  0.51100000000E-03 0. -1.
        -11    1    3    3    0    0  0.62973622119E+01  0.93698680739E+01 -0.38711082734E+01  0.11934683828E+02  0.51100000000E-03 0.  1.
         12    1    3    3    0    0 -0.38889719687E+01 -0.49329167875E+00  0.27062490814E+01  0.47635305965E+01  0.00000000000E+00 0. -1.
</event>
<event>
 7    1  0.5329250E-013  0.5052879E+02  0.7816164E-02  0.1300439E+00
        -11   -1    0    0    0    0  0.00000000000E+00  0.00000000000E+00  0.45593999997E+02  0.45594000000E+02  0.51100000000E-03 0.  1.
         11   -1    0    0    0    0 -0.00000000000E+00 -0.00000000000E+00 -0.45593999997E+02  0.45594000000E+02  0.51100000000E-03 0. -1.
    9900012    2    1    2    0    0 -0.16746861777E+02 -0.12128178624E+02  0.35008876003E+02  0.50528788312E+02  0.29999782553E+02 0.  0.
         12    1    1    2    0    0  0.16746861777E+02  0.12128178624E+02 -0.35008876003E+02  0.40659211688E+02  0.00000000000E+00 0. -1.
         11    1    3    3    0    0 -0.60277869919E+00 -0.13461723075E+02  0.23678687995E+02  0.27244478261E+02  0.51100000000E-03 0.  1.
        -11    1    3    3    0    0 -0.71179997683E+01 -0.51309546576E+01  0.25730236821E+01  0.91440181283E+01  0.51100000000E-03 0. -1.
        -12    1    3    3    0    0 -0.90260833092E+01  0.64644991088E+01  0.87571643259E+01  0.14140291923E+02  0.00000000000E+00 0.  1.
</event>
<event>
 7    1  0.5329250E-013  0.5052886E+02  0.7816164E-02  0.1300439E+00
        -11   -1    0    0    0    0  0.00000000000E+00  0.00000000000E+00  0.45593999997E+02  0.45594000000E+02  0.51100000000E-03 0. -1.
         11   -1    0    0    0    0 -0.00000000000E+00 -0.00000000000E+00 -0.45593999997E+02  0.45594000000E+02  0.51100000000E-03 0.  1.
    9900012    2    1    2    0    0  0.21018335415E+02 -0.33996502232E+02 -0.74587333978E+01  0.50528864599E+02  0.30000014437E+02 0.  0.
         12    1    1    2    0    0 -0.21018335415E+02  0.33996502232E+02  0.74587333978E+01  0.40659135401E+02  0.00000000000E+00 0. -1.
         11    1    3    3    0    0  0.41031675844E+01  0.47887955785E+01 -0.11236141019E+01  0.64055488625E+01  0.51100000000E-03 0. -1.
        -11    1    3    3    0    0 -0.89160442178E+00 -0.82842735557E+01 -0.74736089282E+00  0.83655660511E+01  0.51100000000E-03 0.  1.
         12    1    3    3    0    0  0.17806772253E+02 -0.30501024254E+02 -0.55877584030E+01  0.35757749686E+02  0.00000000000E+00 0. -1.
</event>
<event>
 7    1  0.9138753E-013  0.5052886E+02  0.7816164E-02  0.1300439E+00
        -11   -1    0    0    0    0  0.00000000000E+00  0.00000000000E+00  0.45593999997E+02  0.45594000000E+02  0.51100000000E-03 0. -1.
         11   -1    0    0    0    0 -0.00000000000E+00 -0.00000000000E+00 -0.45593999997E+02  0.45594000000E+02  0.51100000000E-03 0.  1.
    9900012    2    1    2    0    0  0.16697256760E+02  0.11381490974E+01 -0.37054982384E+02  0.50528862206E+02  0.30000007161E+02 0.  0.
         12    1    1    2    0    0 -0.16697256760E+02 -0.11381490974E+01  0.37054982384E+02  0.40659137794E+02  0.00000000000E+00 0. -1.
         11    1    3    3    0    0  0.49897082927E+01  0.35904177005E+01  0.49573942467E+00  0.61671748758E+01  0.51100000000E-03 0. -1.
        -11    1    3    3    0    0  0.93067022006E+01  0.83244227037E+01 -0.17960840483E+02  0.21874700234E+02  0.51100000000E-03 0.  1.
         12    1    3    3    0    0  0.24008462671E+01 -0.10776691307E+02 -0.19589881326E+02  0.22486987096E+02  0.00000000000E+00 0. -1.
</event>
<event>
 7    1  0.5329250E-013  0.5052887E+02  0.7816164E-02  0.1300439E+00
        -11   -1    0    0    0    0  0.00000000000E+00  0.00000000000E+00  0.45593999997E+02  0.45594000000E+02  0.51100000000E-03 0.  1.
         11   -1    0    0    0    0 -0.00000000000E+00 -0.00000000000E+00 -0.45593999997E+02  0.45594000000E+02  0.51100000000E-03 0. -1.
    9900012    2    1    2    0    0 -0.13884536529E+01  0.23682142302E+02  0.33021099590E+02  0.50528872049E+02  0.30000037081E+02 0.  0.
         12    1    1    2    0    0  0.13884536529E+01 -0.23682142302E+02 -0.33021099590E+02  0.40659127951E+02  0.00000000000E+00 0. -1.
         11    1    3    3    0    0  0.66001060601E+01  0.23322972512E+02  0.24912088816E+02  0.34758230914E+02  0.51100000000E-03 0. -1.
        -11    1    3    3    0    0  0.10271816579E+01 -0.96016510016E+00 -0.18164070222E+01  0.22970315430E+01  0.51100000000E-03 0.  1.
        -12    1    3    3    0    0 -0.90157413709E+01  0.13193348905E+01  0.99254177964E+01  0.13473609593E+02  0.00000000000E+00 0.  1.
</event>
<event>
 7    1  0.5329250E-013  0.5052886E+02  0.7816164E-02  0.1300439E+00
        -11   -1    0    0    0    0  0.00000000000E+00  0.00000000000E+00  0.45593999997E+02  0.45594000000E+02  0.51100000000E-03 0.  1.
         11   -1    0    0    0    0 -0.00000000000E+00 -0.00000000000E+00 -0.45593999997E+02  0.45594000000E+02  0.51100000000E-03 0. -1.
    9900012    2    1    2    0    0 -0.17603481765E+02 -0.33738261750E+02 -0.14318278249E+02  0.50528856279E+02  0.29999989145E+02 0.  0.
         12    1    1    2    0    0  0.17603481765E+02  0.33738261750E+02  0.14318278249E+02  0.40659143721E+02  0.00000000000E+00 0. -1.
         11    1    3    3    0    0 -0.43148192556E+01  0.60529566116E+00 -0.57775757853E+01  0.72363271251E+01  0.51100000000E-03 0. -1.
        -11    1    3    3    0    0 -0.11969138888E+02 -0.54190272370E+01 -0.52605100143E+01  0.14152706730E+02  0.51100000000E-03 0.  1.
         12    1    3    3    0    0 -0.13195236211E+01 -0.28924530174E+02 -0.32801924491E+01  0.29139822424E+02  0.00000000000E+00 0. -1.
</event>
<event>
 7    1  0.5329250E-013  0.5052886E+02  0.7816164E-02  0.1300439E+00
        -11   -1    0    0    0    0  0.00000000000E+00  0.00000000000E+00  0.45593999997E+02  0.45594000000E+02  0.51100000000E-03 0.  1.
         11   -1    0    0    0    0 -0.00000000000E+00 -0.00000000000E+00 -0.45593999997E+02  0.45594000000E+02  0.51100000000E-03 0. -1.
    9900012    2    1    2    0    0 -0.22977199978E+02 -0.25587478909E+02  0.21690890161E+02  0.50528861891E+02  0.30000006205E+02 0.  0.
         12    1    1    2    0    0  0.22977199978E+02  0.25587478909E+02 -0.21690890161E+02  0.40659138109E+02  0.00000000000E+00 0. -1.
         11    1    3    3    0    0 -0.39021544959E+01  0.31420009755E+01 -0.19606211311E+01  0.53798713108E+01  0.51100000000E-03 0. -1.
        -11    1    3    3    0    0  0.30682814708E+01 -0.33734110045E+01  0.45573876670E+01  0.64470175738E+01  0.51100000000E-03 0.  1.
        -12    1    3    3    0    0 -0.22143326953E+02 -0.25356068880E+02  0.19094123625E+02  0.38701973007E+02  0.00000000000E+00 0.  1.
</event>
<event>
 7    1  0.5329250E-013  0.5052886E+02  0.7816164E-02  0.1300439E+00
        -11   -1    0    0    0    0  0.00000000000E+00  0.00000000000E+00  0.45593999997E+02  0.45594000000E+02  0.51100000000E-03 0. -1.
         11   -1    0    0    0    0 -0.00000000000E+00 -0.00000000000E+00 -0.45593999997E+02  0.45594000000E+02  0.51100000000E-03 0.  1.
    9900012    2    1    2    0    0 -0.11937786635E+01 -0.19477146485E+02 -0.35670453270E+02  0.50528861062E+02  0.30000003684E+02 0.  0.
         12    1    1    2    0    0  0.11937786635E+01  0.19477146485E+02  0.35670453270E+02  0.40659138938E+02  0.00000000000E+00 0. -1.
         11    1    3    3    0    0 -0.69754681168E+01 -0.70585269116E+01 -0.28398482776E+02  0.30082449731E+02  0.51100000000E-03 0. -1.
        -11    1    3    3    0    0  0.31760004054E+01 -0.71041620319E+01 -0.10982975066E+02  0.13460380319E+02  0.51100000000E-03 0.  1.
         12    1    3    3    0    0  0.26056890480E+01 -0.53144575412E+01  0.37110045721E+01  0.69860310124E+01  0.00000000000E+00 0. -1.
</event>
<event>
 7    1  0.5329250E-013  0.5052886E+02  0.7816164E-02  0.1300439E+00
        -11   -1    0    0    0    0  0.00000000000E+00  0.00000000000E+00  0.45593999997E+02  0.45594000000E+02  0.51100000000E-03 0.  1.
         11   -1    0    0    0    0 -0.00000000000E+00 -0.00000000000E+00 -0.45593999997E+02  0.45594000000E+02  0.51100000000E-03 0. -1.
    9900012    2    1    2    0    0 -0.25003389555E+02 -0.22789244360E+02  0.22553191472E+02  0.50528860888E+02  0.30000003155E+02 0.  0.
         12    1    1    2    0    0  0.25003389555E+02  0.22789244360E+02 -0.22553191472E+02  0.40659139112E+02  0.00000000000E+00 0. -1.
         11    1    3    3    0    0  0.20552476186E+01 -0.51619783962E+01  0.55236562144E+01  0.78345926488E+01  0.51100000000E-03 0. -1.
        -11    1    3    3    0    0 -0.11898105250E+02 -0.20322827915E+02  0.12402120449E+02  0.26615687759E+02  0.51100000000E-03 0.  1.
         12    1    3    3    0    0 -0.15160531924E+02  0.26955619508E+01  0.46274148082E+01  0.16078580480E+02  0.00000000000E+00 0. -1.
</event>
<event>
 7    1  0.5329250E-013  0.5052886E+02  0.7816164E-02  0.1300439E+00
        -11   -1    0    0    0    0  0.00000000000E+00  0.00000000000E+00  0.45593999997E+02  0.45594000000E+02  0.51100000000E-03 0.  1.
         11   -1    0    0    0    0 -0.00000000000E+00 -0.00000000000E+00 -0.45593999997E+02  0.45594000000E+02  0.51100000000E-03 0. -1.
    9900012    2    1    2    0    0 -0.16562003770E+02 -0.71928648814E+00  0.37126109866E+02  0.50528863564E+02  0.30000011289E+02 0.  0.
         12    1    1    2    0    0  0.16562003770E+02  0.71928648814E+00 -0.37126109866E+02  0.40659136436E+02  0.00000000000E+00 0. -1.
         11    1    3    3    0    0 -0.60974203392E+01  0.46084801409E+01  0.49114817761E+01  0.90851129602E+01  0.51100000000E-03 0. -1.
        -11    1    3    3    0    0 -0.17763800976E+02 -0.32447231885E+01  0.25879782865E+02  0.31556996294E+02  0.51100000000E-03 0.  1.
        -12    1    3    3    0    0  0.72992175459E+01 -0.20830434405E+01  0.63348452250E+01  0.98867543098E+01  0.00000000000E+00 0.  1.
</event>
<event>
 7    1  0.5329250E-013  0.5052886E+02  0.7816164E-02  0.1300439E+00
        -11   -1    0    0    0    0  0.00000000000E+00  0.00000000000E+00  0.45593999997E+02  0.45594000000E+02  0.51100000000E-03 0.  1.
         11   -1    0    0    0    0 -0.00000000000E+00 -0.00000000000E+00 -0.45593999997E+02  0.45594000000E+02  0.51100000000E-03 0. -1.
    9900012    2    1    2    0    0  0.14435910213E+02 -0.16257450040E+02  0.34357899651E+02  0.50528862603E+02  0.30000008367E+02 0.  0.
         12    1    1    2    0    0 -0.14435910213E+02  0.16257450040E+02 -0.34357899651E+02  0.40659137397E+02  0.00000000000E+00 0. -1.
         11    1    3    3    0    0  0.13912450168E+01 -0.29509900725E+01  0.15356483940E+02  0.15699219865E+02  0.51100000000E-03 0. -1.
        -11    1    3    3    0    0  0.44097177158E+01  0.59476665215E+01  0.84566730021E+01  0.11239913964E+02  0.51100000000E-03 0.  1.
         12    1    3    3    0    0  0.86349474803E+01 -0.19254126489E+02  0.10544742709E+02  0.23589728774E+02  0.00000000000E+00 0. -1.
</event>
<event>
 7    1  0.5329250E-013  0.5052889E+02  0.7816164E-02  0.1300439E+00
        -11   -1    0    0    0    0  0.00000000000E+00  0.00000000000E+00  0.45593999997E+02  0.45594000000E+02  0.51100000000E-03 0.  1.
         11   -1    0    0    0    0 -0.00000000000E+00 -0.00000000000E+00 -0.45593999997E+02  0.45594000000E+02  0.51100000000E-03 0. -1.
    9900012    2    1    2    0    0 -0.35734598909E+02 -0.90823177314E+01  0.17138065846E+02  0.50528888407E+02  0.30000086803E+02 0.  0.
         12    1    1    2    0    0  0.35734598909E+02  0.90823177314E+01 -0.17138065846E+02  0.40659111593E+02  0.00000000000E+00 0. -1.
         11    1    3    3    0    0 -0.13967108256E+02  0.40764311064E+01  0.38908905923E-01  0.14549876899E+02  0.51100000000E-03 0. -1.
        -11    1    3    3    0    0 -0.54287031459E+01  0.21798494660E+01  0.11464895063E+02  0.12871145272E+02  0.51100000000E-03 0.  1.
        -12    1    3    3    0    0 -0.16338787507E+02 -0.15338598304E+02  0.56342618770E+01  0.23107866237E+02  0.00000000000E+00 0.  1.
</event>
<event>
 7    1  0.5329250E-013  0.5052886E+02  0.7816164E-02  0.1300439E+00
        -11   -1    0    0    0    0  0.00000000000E+00  0.00000000000E+00  0.45593999997E+02  0.45594000000E+02  0.51100000000E-03 0.  1.
         11   -1    0    0    0    0 -0.00000000000E+00 -0.00000000000E+00 -0.45593999997E+02  0.45594000000E+02  0.51100000000E-03 0. -1.
    9900012    2    1    2    0    0 -0.10642341919E+01 -0.34733415411E+02 -0.21109782761E+02  0.50528859960E+02  0.30000000335E+02 0.  0.
         12    1    1    2    0    0  0.10642341919E+01  0.34733415411E+02  0.21109782761E+02  0.40659140040E+02  0.00000000000E+00 0. -1.
         11    1    3    3    0    0 -0.64766220188E+01 -0.20964605613E+02 -0.49799541238E+01  0.22500250324E+02  0.51100000000E-03 0. -1.
        -11    1    3    3    0    0  0.38401634266E+01 -0.10078721075E+02  0.62183077791E+00  0.10803432206E+02  0.51100000000E-03 0.  1.
         12    1    3    3    0    0  0.15722244003E+01 -0.36900887231E+01 -0.16751659415E+02  0.17225177430E+02  0.00000000000E+00 0. -1.
</event>
<event>
 7    1  0.5329250E-013  0.5052886E+02  0.7816164E-02  0.1300439E+00
        -11   -1    0    0    0    0  0.00000000000E+00  0.00000000000E+00  0.45593999997E+02  0.45594000000E+02  0.51100000000E-03 0. -1.
         11   -1    0    0    0    0 -0.00000000000E+00 -0.00000000000E+00 -0.45593999997E+02  0.45594000000E+02  0.51100000000E-03 0.  1.
    9900012    2    1    2    0    0 -0.67937038744E+01 -0.20356065586E+02 -0.34534641192E+02  0.50528864978E+02  0.30000015587E+02 0.  0.
         12    1    1    2    0    0  0.67937038744E+01  0.20356065586E+02  0.34534641192E+02  0.40659135022E+02  0.00000000000E+00 0. -1.
         11    1    3    3    0    0 -0.15569341921E+02 -0.76831718867E+01 -0.12657018950E+02  0.21485708438E+02  0.51100000000E-03 0. -1.
        -11    1    3    3    0    0  0.43747761599E+00 -0.89659152277E+01 -0.62212959333E+01  0.10921700687E+02  0.51100000000E-03 0.  1.
         12    1    3    3    0    0  0.83381604311E+01 -0.37069784711E+01 -0.15656326309E+02  0.18121455854E+02  0.00000000000E+00 0. -1.
</event>
<event>
 7    1  0.5329250E-013  0.5052886E+02  0.7816164E-02  0.1300439E+00
        -11   -1    0    0    0    0  0.00000000000E+00  0.00000000000E+00  0.45593999997E+02  0.45594000000E+02  0.51100000000E-03 0. -1.
         11   -1    0    0    0    0 -0.00000000000E+00 -0.00000000000E+00 -0.45593999997E+02  0.45594000000E+02  0.51100000000E-03 0.  1.
    9900012    2    1    2    0    0  0.94930105599E+01  0.32824432827E+02 -0.22036444401E+02  0.50528861768E+02  0.30000005831E+02 0.  0.
         12    1    1    2    0    0 -0.94930105599E+01 -0.32824432827E+02  0.22036444401E+02  0.40659138232E+02  0.00000000000E+00 0. -1.
         11    1    3    3    0    0  0.10036245929E+02  0.79481154546E+00 -0.13947687443E+02  0.17201626173E+02  0.51100000000E-03 0.  1.
        -11    1    3    3    0    0 -0.12019678109E+01  0.56765616021E+01 -0.18030473100E+00  0.58052207794E+01  0.51100000000E-03 0. -1.
        -12    1    3    3    0    0  0.65873244221E+00  0.26353059680E+02 -0.79084522272E+01  0.27522014816E+02  0.00000000000E+00 0.  1.
</event>
<event>
 7    1  0.5329250E-013  0.5052887E+02  0.7816164E-02  0.1300439E+00
        -11   -1    0    0    0    0  0.00000000000E+00  0.00000000000E+00  0.45593999997E+02  0.45594000000E+02  0.51100000000E-03 0. -1.
         11   -1    0    0    0    0 -0.00000000000E+00 -0.00000000000E+00 -0.45593999997E+02  0.45594000000E+02  0.51100000000E-03 0.  1.
    9900012    2    1    2    0    0  0.30388747337E+02  0.27707680342E+00 -0.27011331116E+02  0.50528871321E+02  0.30000034867E+02 0.  0.
         12    1    1    2    0    0 -0.30388747337E+02 -0.27707680342E+00  0.27011331116E+02  0.40659128679E+02  0.00000000000E+00 0. -1.
         11    1    3    3    0    0 -0.41791257818E+01 -0.68605498342E+00 -0.78599417772E+01  0.89282948395E+01  0.51100000000E-03 0. -1.
        -11    1    3    3    0    0  0.79487705291E+01 -0.49462752808E+01 -0.26534550677E+01  0.97308486853E+01  0.51100000000E-03 0.  1.
        -12    1    3    3    0    0  0.26619102590E+02  0.59094070676E+01 -0.16497934271E+02  0.31869727796E+02  0.00000000000E+00 0.  1.
</event>
<event>
 7    1  0.5329250E-013  0.5052886E+02  0.7816164E-02  0.1300439E+00
        -11   -1    0    0    0    0  0.00000000000E+00  0.00000000000E+00  0.45593999997E+02  0.45594000000E+02  0.51100000000E-03 0.  1.
         11   -1    0    0    0    0 -0.00000000000E+00 -0.00000000000E+00 -0.45593999997E+02  0.45594000000E+02  0.51100000000E-03 0. -1.
    9900012    2    1    2    0    0 -0.29927906229E+02  0.10858975253E+02  0.25289695978E+02  0.50528860345E+02  0.30000001506E+02 0.  0.
         12    1    1    2    0    0  0.29927906229E+02 -0.10858975253E+02 -0.25289695978E+02  0.40659139655E+02  0.00000000000E+00 0. -1.
         11    1    3    3    0    0 -0.37991809692E+00  0.29337215933E+01 -0.19197014054E+01  0.35265158294E+01  0.51100000000E-03 0. -1.
        -11    1    3    3    0    0 -0.74830365269E+01  0.11313022184E+02  0.26626556925E+01  0.13822808767E+02  0.51100000000E-03 0.  1.
        -12    1    3    3    0    0 -0.22064951605E+02 -0.33877685243E+01  0.24546741691E+02  0.33179535749E+02  0.00000000000E+00 0.  1.
</event>
<event>
 7    1  0.5329250E-013  0.5052886E+02  0.7816164E-02  0.1300439E+00
        -11   -1    0    0    0    0  0.00000000000E+00  0.00000000000E+00  0.45593999997E+02  0.45594000000E+02  0.51100000000E-03 0. -1.
         11   -1    0    0    0    0 -0.00000000000E+00 -0.00000000000E+00 -0.45593999997E+02  0.45594000000E+02  0.51100000000E-03 0.  1.
    9900012    2    1    2    0    0 -0.14704541273E+02 -0.27668808411E+02 -0.25910991033E+02  0.50528856511E+02  0.29999989851E+02 0.  0.
         12    1    1    2    0    0  0.14704541273E+02  0.27668808411E+02  0.25910991033E+02  0.40659143489E+02  0.00000000000E+00 0. -1.
         11    1    3    3    0    0  0.37380589390E+01 -0.36136094858E+01 -0.89808456803E+00  0.52761552574E+01  0.51100000000E-03 0. -1.
        -11    1    3    3    0    0 -0.23551387089E+00 -0.18611952887E+02 -0.10774451263E+02  0.21506953697E+02  0.51100000000E-03 0.  1.
         12    1    3    3    0    0 -0.18207086341E+02 -0.54432460382E+01 -0.14238455202E+02  0.23745747556E+02  0.00000000000E+00 0. -1.
</event>
<event>
 7    1  0.5329250E-013  0.5052886E+02  0.7816164E-02  0.1300439E+00
        -11   -1    0    0    0    0  0.00000000000E+00  0.00000000000E+00  0.45593999997E+02  0.45594000000E+02  0.51100000000E-03 0. -1.
         11   -1    0    0    0    0 -0.00000000000E+00 -0.00000000000E+00 -0.45593999997E+02  0.45594000000E+02  0.51100000000E-03 0.  1.
    9900012    2    1    2    0    0  0.17417207604E+02  0.23311724313E+02 -0.28396654898E+02  0.50528860553E+02  0.30000002136E+02 0.  0.
         12    1    1    2    0    0 -0.17417207604E+02 -0.23311724313E+02  0.28396654898E+02  0.40659139447E+02  0.00000000000E+00 0. -1.
         11    1    3    3    0    0  0.14335994999E+02  0.10290795209E+02 -0.16512187323E+01  0.17724213444E+02  0.51100000000E-03 0. -1.
        -11    1    3    3    0    0  0.93352710270E+00  0.12527921562E+02 -0.10393078856E+02  0.16304489562E+02  0.51100000000E-03 0.  1.
        -12    1    3    3    0    0  0.21476855027E+01  0.49300754161E+00 -0.16352357310E+02  0.16500157546E+02  0.00000000000E+00 0.  1.
</event>
<event>
 7    1  0.5329250E-013  0.5052886E+02  0.7816164E-02  0.1300439E+00
        -11   -1    0    0    0    0  0.00000000000E+00  0.00000000000E+00  0.45593999997E+02  0.45594000000E+02  0.51100000000E-03 0.  1.
         11   -1    0    0    0    0 -0.00000000000E+00 -0.00000000000E+00 -0.45593999997E+02  0.45594000000E+02  0.51100000000E-03 0. -1.
    9900012    2    1    2    0    0  0.34107431976E+02  0.74018438828E+01  0.20858122492E+02  0.50528862247E+02  0.30000007287E+02 0.  0.
         12    1    1    2    0    0 -0.34107431976E+02 -0.74018438828E+01 -0.20858122492E+02  0.40659137753E+02  0.00000000000E+00 0. -1.
         11    1    3    3    0    0  0.10952255845E+02 -0.30234629415E+01  0.16001494952E+01  0.11474045273E+02  0.51100000000E-03 0. -1.
        -11    1    3    3    0    0  0.26460645813E+02  0.11930340330E+02  0.12966799581E+02  0.31790512561E+02  0.51100000000E-03 0.  1.
         12    1    3    3    0    0 -0.33054696817E+01 -0.15050335058E+01  0.62911734158E+01  0.72643044139E+01  0.00000000000E+00 0. -1.
</event>
<event>
 7    1  0.5329250E-013  0.5052887E+02  0.7816164E-02  0.1300439E+00
        -11   -1    0    0    0    0  0.00000000000E+00  0.00000000000E+00  0.45593999997E+02  0.45594000000E+02  0.51100000000E-03 0. -1.
         11   -1    0    0    0    0 -0.00000000000E+00 -0.00000000000E+00 -0.45593999997E+02  0.45594000000E+02  0.51100000000E-03 0.  1.
    9900012    2    1    2    0    0 -0.27883221191E+02  0.27460929458E+02 -0.11026696180E+02  0.50528871882E+02  0.30000036572E+02 0.  0.
         12    1    1    2    0    0  0.27883221191E+02 -0.27460929458E+02  0.11026696180E+02  0.40659128118E+02  0.00000000000E+00 0. -1.
         11    1    3    3    0    0  0.15354620634E+01  0.39405467377E+01 -0.76637436203E+00  0.42980091047E+01  0.51100000000E-03 0. -1.
        -11    1    3    3    0    0 -0.65302369738E+01 -0.51669795036E+01 -0.10477316241E+01  0.83928191892E+01  0.51100000000E-03 0.  1.
        -12    1    3    3    0    0 -0.22888446281E+02  0.28687362224E+02 -0.92125901941E+01  0.37838043588E+02  0.00000000000E+00 0.  1.
</event>
<event>
 7    1  0.5329250E-013  0.5052885E+02  0.7816164E-02  0.1300439E+00
        -11   -1    0    0    0    0  0.00000000000E+00  0.00000000000E+00  0.45593999997E+02  0.45594000000E+02  0.51100000000E-03 0. -1.
         11   -1    0    0    0    0 -0.00000000000E+00 -0.00000000000E+00 -0.45593999997E+02  0.45594000000E+02  0.51100000000E-03 0.  1.
    9900012    2    1    2    0    0  0.18965653614E+01  0.81947098592E+01 -0.39779595322E+02  0.50528850552E+02  0.29999971737E+02 0.  0.
         12    1    1    2    0    0 -0.18965653614E+01 -0.81947098592E+01  0.39779595322E+02  0.40659149448E+02  0.00000000000E+00 0. -1.
         11    1    3    3    0    0  0.32808480350E+01 -0.16685761695E+01  0.15179055858E+00  0.36839043007E+01  0.51100000000E-03 0. -1.
        -11    1    3    3    0    0  0.92843535832E+01  0.10145314166E+02 -0.20728294664E+02  0.24875466245E+02  0.51100000000E-03 0.  1.
        -12    1    3    3    0    0 -0.10668636257E+02 -0.28202813687E+00 -0.19203091217E+02  0.21969480006E+02  0.00000000000E+00 0.  1.
</event>
<event>
 7    1  0.5329250E-013  0.5052887E+02  0.7816164E-02  0.1300439E+00
        -11   -1    0    0    0    0  0.00000000000E+00  0.00000000000E+00  0.45593999997E+02  0.45594000000E+02  0.51100000000E-03 0. -1.
         11   -1    0    0    0    0 -0.00000000000E+00 -0.00000000000E+00 -0.45593999997E+02  0.45594000000E+02  0.51100000000E-03 0.  1.
    9900012    2    1    2    0    0  0.12539995231E+02 -0.37529573588E+01 -0.38494532589E+02  0.50528865619E+02  0.30000017537E+02 0.  0.
         12    1    1    2    0    0 -0.12539995231E+02  0.37529573588E+01  0.38494532589E+02  0.40659134381E+02  0.00000000000E+00 0. -1.
         11    1    3    3    0    0 -0.32361282249E+01 -0.11099902861E+01  0.21112958631E+01  0.40202207410E+01  0.51100000000E-03 0. -1.
        -11    1    3    3    0    0  0.56087522617E+01 -0.62513981896E+01 -0.61676331035E+01  0.10420066200E+02  0.51100000000E-03 0.  1.
        -12    1    3    3    0    0  0.10167371194E+02  0.36084311170E+01 -0.34438195349E+02  0.36088578678E+02  0.00000000000E+00 0.  1.
</event>
<event>
 7    1  0.5329250E-013  0.5052886E+02  0.7816164E-02  0.1300439E+00
        -11   -1    0    0    0    0  0.00000000000E+00  0.00000000000E+00  0.45593999997E+02  0.45594000000E+02  0.51100000000E-03 0. -1.
         11   -1    0    0    0    0 -0.00000000000E+00 -0.00000000000E+00 -0.45593999997E+02  0.45594000000E+02  0.51100000000E-03 0.  1.
    9900012    2    1    2    0    0  0.18611643196E+02 -0.29269901747E+02 -0.21214278850E+02  0.50528855422E+02  0.29999986540E+02 0.  0.
         12    1    1    2    0    0 -0.18611643196E+02  0.29269901747E+02  0.21214278850E+02  0.40659144578E+02  0.00000000000E+00 0. -1.
         11    1    3    3    0    0  0.10116889942E+02 -0.19896298742E+02 -0.58287172870E+01  0.23069202656E+02  0.51100000000E-03 0. -1.
        -11    1    3    3    0    0 -0.13324104435E+01 -0.39476956442E+01 -0.15686138020E+02  0.16230050669E+02  0.51100000000E-03 0.  1.
         12    1    3    3    0    0  0.98271636980E+01 -0.54259073605E+01  0.30057645678E+00  0.11229602096E+02  0.00000000000E+00 0. -1.
</event>
<event>
 7    1  0.5329250E-013  0.5052886E+02  0.7816164E-02  0.1300439E+00
        -11   -1    0    0    0    0  0.00000000000E+00  0.00000000000E+00  0.45593999997E+02  0.45594000000E+02  0.51100000000E-03 0. -1.
         11   -1    0    0    0    0 -0.00000000000E+00 -0.00000000000E+00 -0.45593999997E+02  0.45594000000E+02  0.51100000000E-03 0.  1.
    9900012    2    1    2    0    0 -0.28043625532E+02 -0.53285771468E+01 -0.28953880318E+02  0.50528857697E+02  0.29999993455E+02 0.  0.
         12    1    1    2    0    0  0.28043625532E+02  0.53285771468E+01  0.28953880318E+02  0.40659142303E+02  0.00000000000E+00 0. -1.
         11    1    3    3    0    0 -0.28548979461E+01 -0.40879020357E+01 -0.20455412094E+02  0.21054340872E+02  0.51100000000E-03 0. -1.
        -11    1    3    3    0    0 -0.12105927910E+02  0.22746796992E+01 -0.99712668773E+01  0.15847833344E+02  0.51100000000E-03 0.  1.
         12    1    3    3    0    0 -0.13082799677E+02 -0.35153548103E+01  0.14727986541E+01  0.13626683481E+02  0.00000000000E+00 0. -1.
</event>
<event>
 7    1  0.5329250E-013  0.5052886E+02  0.7816164E-02  0.1300439E+00
        -11   -1    0    0    0    0  0.00000000000E+00  0.00000000000E+00  0.45593999997E+02  0.45594000000E+02  0.51100000000E-03 0. -1.
         11   -1    0    0    0    0 -0.00000000000E+00 -0.00000000000E+00 -0.45593999997E+02  0.45594000000E+02  0.51100000000E-03 0.  1.
    9900012    2    1    2    0    0  0.70273086667E+01 -0.13736905605E+02 -0.37617547362E+02  0.50528861886E+02  0.30000006187E+02 0.  0.
         12    1    1    2    0    0 -0.70273086667E+01  0.13736905605E+02  0.37617547362E+02  0.40659138114E+02  0.00000000000E+00 0. -1.
         11    1    3    3    0    0  0.66974619018E+01 -0.72677929185E+01 -0.34064450051E+01  0.10453739889E+02  0.51100000000E-03 0. -1.
        -11    1    3    3    0    0  0.10000244522E+02 -0.46313440357E+01 -0.17540507432E+02  0.20715299643E+02  0.51100000000E-03 0.  1.
        -12    1    3    3    0    0 -0.96703977576E+01 -0.18377686509E+01 -0.16670594925E+02  0.19359822353E+02  0.00000000000E+00 0.  1.
</event>
<event>
 7    1  0.5329250E-013  0.5052887E+02  0.7816164E-02  0.1300439E+00
        -11   -1    0    0    0    0  0.00000000000E+00  0.00000000000E+00  0.45593999997E+02  0.45594000000E+02  0.51100000000E-03 0.  1.
         11   -1    0    0    0    0 -0.00000000000E+00 -0.00000000000E+00 -0.45593999997E+02  0.45594000000E+02  0.51100000000E-03 0. -1.
    9900012    2    1    2    0    0 -0.38664226450E+02 -0.25705625114E+01  0.12314016316E+02  0.50528865769E+02  0.30000017990E+02 0.  0.
         12    1    1    2    0    0  0.38664226450E+02  0.25705625114E+01 -0.12314016316E+02  0.40659134231E+02  0.00000000000E+00 0. -1.
         11    1    3    3    0    0 -0.54579559789E+01  0.38135156650E+01 -0.28351693517E+01  0.72367375736E+01  0.51100000000E-03 0. -1.
        -11    1    3    3    0    0 -0.18259067115E+01  0.64025386166E+01  0.28768922025E+01  0.72527887783E+01  0.51100000000E-03 0.  1.
        -12    1    3    3    0    0 -0.31380363760E+02 -0.12786616793E+02  0.12272293465E+02  0.36039339417E+02  0.00000000000E+00 0.  1.
</event>
<event>
 7    1  0.5329250E-013  0.5052886E+02  0.7816164E-02  0.1300439E+00
        -11   -1    0    0    0    0  0.00000000000E+00  0.00000000000E+00  0.45593999997E+02  0.45594000000E+02  0.51100000000E-03 0. -1.
         11   -1    0    0    0    0 -0.00000000000E+00 -0.00000000000E+00 -0.45593999997E+02  0.45594000000E+02  0.51100000000E-03 0.  1.
    9900012    2    1    2    0    0 -0.10723620104E+02  0.18318975667E+02 -0.34678305173E+02  0.50528858995E+02  0.29999997400E+02 0.  0.
         12    1    1    2    0    0  0.10723620104E+02 -0.18318975667E+02  0.34678305173E+02  0.40659141005E+02  0.00000000000E+00 0. -1.
         11    1    3    3    0    0  0.88397679255E+00  0.15752725443E+02 -0.15762689240E+02  0.22302290156E+02  0.51100000000E-03 0. -1.
        -11    1    3    3    0    0  0.45082613180E+01 -0.52945844011E+00 -0.39786043275E+01  0.60360615477E+01  0.51100000000E-03 0.  1.
        -12    1    3    3    0    0 -0.16115858214E+02  0.30957086636E+01 -0.14937011606E+02  0.22190507291E+02  0.00000000000E+00 0.  1.
</event>
<event>
 7    1  0.5329250E-013  0.5052886E+02  0.7816164E-02  0.1300439E+00
        -11   -1    0    0    0    0  0.00000000000E+00  0.00000000000E+00  0.45593999997E+02  0.45594000000E+02  0.51100000000E-03 0.  1.
         11   -1    0    0    0    0 -0.00000000000E+00 -0.00000000000E+00 -0.45593999997E+02  0.45594000000E+02  0.51100000000E-03 0. -1.
    9900012    2    1    2    0    0  0.25170958345E+02 -0.37148639743E+01  0.31714171479E+02  0.50528855506E+02  0.29999986797E+02 0.  0.
         12    1    1    2    0    0 -0.25170958345E+02  0.37148639743E+01 -0.31714171479E+02  0.40659144494E+02  0.00000000000E+00 0. -1.
         11    1    3    3    0    0  0.14076103095E+02  0.56233258309E+01  0.81518782595E+01  0.17210798678E+02  0.51100000000E-03 0. -1.
        -11    1    3    3    0    0  0.10176724923E+02 -0.12618257171E+01  0.22985481236E+02  0.25169232849E+02  0.51100000000E-03 0.  1.
        -12    1    3    3    0    0  0.91813032727E+00 -0.80763640881E+01  0.57681198411E+00  0.81488239794E+01  0.00000000000E+00 0.  1.
</event>
<event>
 7    1  0.5329250E-013  0.5052883E+02  0.7816164E-02  0.1300439E+00
        -11   -1    0    0    0    0  0.00000000000E+00  0.00000000000E+00  0.45593999997E+02  0.45594000000E+02  0.51100000000E-03 0.  1.
         11   -1    0    0    0    0 -0.00000000000E+00 -0.00000000000E+00 -0.45593999997E+02  0.45594000000E+02  0.51100000000E-03 0. -1.
    9900012    2    1    2    0    0 -0.30948941846E+02  0.21793688764E+02  0.14844726235E+02  0.50528834142E+02  0.29999921857E+02 0.  0.
         12    1    1    2    0    0  0.30948941846E+02 -0.21793688764E+02 -0.14844726235E+02  0.40659165858E+02  0.00000000000E+00 0. -1.
         11    1    3    3    0    0 -0.14238449640E+01 -0.19620973141E+01 -0.15164083267E+01  0.28594850631E+01  0.51100000000E-03 0. -1.
        -11    1    3    3    0    0 -0.28432225083E+02  0.15850670890E+02  0.37801199231E+01  0.32770787261E+02  0.51100000000E-03 0.  1.
        -12    1    3    3    0    0 -0.10928717989E+01  0.79051151878E+01  0.12581014638E+02  0.14898561817E+02  0.00000000000E+00 0.  1.
</event>
<event>
 7    1  0.5329250E-013  0.5052885E+02  0.7816164E-02  0.1300439E+00
        -11   -1    0    0    0    0  0.00000000000E+00  0.00000000000E+00  0.45593999997E+02  0.45594000000E+02  0.51100000000E-03 0. -1.
         11   -1    0    0    0    0 -0.00000000000E+00 -0.00000000000E+00 -0.45593999997E+02  0.45594000000E+02  0.51100000000E-03 0.  1.
    9900012    2    1    2    0    0 -0.27912205005E+02 -0.69523550343E+01  0.28735697237E+02  0.50528846979E+02  0.29999960876E+02 0.  0.
         12    1    1    2    0    0  0.27912205005E+02  0.69523550343E+01 -0.28735697237E+02  0.40659153021E+02  0.00000000000E+00 0. -1.
         11    1    3    3    0    0 -0.86033392093E+01 -0.49536121429E+00 -0.17499259847E+01  0.87934674330E+01  0.51100000000E-03 0. -1.
        -11    1    3    3    0    0 -0.28142718365E+01 -0.10252306209E+02  0.67870309831E+01  0.12613235049E+02  0.51100000000E-03 0.  1.
         12    1    3    3    0    0 -0.16494593959E+02  0.37953123892E+01  0.23698592238E+02  0.29122144496E+02  0.00000000000E+00 0. -1.
</event>
<event>
 7    1  0.5329250E-013  0.5052888E+02  0.7816164E-02  0.1300439E+00
        -11   -1    0    0    0    0  0.00000000000E+00  0.00000000000E+00  0.45593999997E+02  0.45594000000E+02  0.51100000000E-03 0.  1.
         11   -1    0    0    0    0 -0.00000000000E+00 -0.00000000000E+00 -0.45593999997E+02  0.45594000000E+02  0.51100000000E-03 0. -1.
    9900012    2    1    2    0    0 -0.21403286066E+02  0.29430310263E+02  0.18136154487E+02  0.50528881512E+02  0.30000065845E+02 0.  0.
         12    1    1    2    0    0  0.21403286066E+02 -0.29430310263E+02 -0.18136154487E+02  0.40659118488E+02  0.00000000000E+00 0. -1.
         11    1    3    3    0    0 -0.16967931028E+02  0.86458513152E+01 -0.20976000060E+01  0.19158845330E+02  0.51100000000E-03 0. -1.
        -11    1    3    3    0    0  0.14027034780E+01 -0.73442820671E+00  0.71689784748E+00  0.17380749762E+01  0.51100000000E-03 0.  1.
        -12    1    3    3    0    0 -0.58380585164E+01  0.21518887155E+02  0.19516856645E+02  0.29631961206E+02  0.00000000000E+00 0.  1.
</event>
<event>
 7    1  0.5329250E-013  0.5052880E+02  0.7816164E-02  0.1300439E+00
        -11   -1    0    0    0    0  0.00000000000E+00  0.00000000000E+00  0.45593999997E+02  0.45594000000E+02  0.51100000000E-03 0. -1.
         11   -1    0    0    0    0 -0.00000000000E+00 -0.00000000000E+00 -0.45593999997E+02  0.45594000000E+02  0.51100000000E-03 0.  1.
    9900012    2    1    2    0    0  0.32584046748E+02  0.17633079129E+02 -0.16748886436E+02  0.50528797119E+02  0.29999809323E+02 0.  0.
         12    1    1    2    0    0 -0.32584046748E+02 -0.17633079129E+02  0.16748886436E+02  0.40659202881E+02  0.00000000000E+00 0. -1.
         11    1    3    3    0    0 -0.14084578918E+01 -0.59704408333E+00 -0.52201394057E+01  0.54396756288E+01  0.51100000000E-03 0. -1.
        -11    1    3    3    0    0  0.18611594975E+02  0.11846832175E+01 -0.11908189840E+02  0.22126905056E+02  0.51100000000E-03 0.  1.
         12    1    3    3    0    0  0.15380909664E+02  0.17045439995E+02  0.37944280911E+00  0.22962216434E+02  0.00000000000E+00 0. -1.
</event>
<event>
 7    1  0.5329250E-013  0.5052886E+02  0.7816164E-02  0.1300439E+00
        -11   -1    0    0    0    0  0.00000000000E+00  0.00000000000E+00  0.45593999997E+02  0.45594000000E+02  0.51100000000E-03 0. -1.
         11   -1    0    0    0    0 -0.00000000000E+00 -0.00000000000E+00 -0.45593999997E+02  0.45594000000E+02  0.51100000000E-03 0.  1.
    9900012    2    1    2    0    0  0.27027480326E+02 -0.26110988770E+02 -0.15520855817E+02  0.50528863356E+02  0.30000010657E+02 0.  0.
         12    1    1    2    0    0 -0.27027480326E+02  0.26110988770E+02  0.15520855817E+02  0.40659136644E+02  0.00000000000E+00 0. -1.
         11    1    3    3    0    0  0.10495879100E+02 -0.12269369205E+00  0.42046436990E+01  0.11307411760E+02  0.51100000000E-03 0. -1.
        -11    1    3    3    0    0 -0.12702582279E+01 -0.65689423706E+01 -0.78781890874E+01  0.10335880388E+02  0.51100000000E-03 0.  1.
        -12    1    3    3    0    0  0.17801859454E+02 -0.19419352708E+02 -0.11847310429E+02  0.28885571208E+02  0.00000000000E+00 0.  1.
</event>
<event>
 7    1  0.5329250E-013  0.5052885E+02  0.7816164E-02  0.1300439E+00
        -11   -1    0    0    0    0  0.00000000000E+00  0.00000000000E+00  0.45593999997E+02  0.45594000000E+02  0.51100000000E-03 0.  1.
         11   -1    0    0    0    0 -0.00000000000E+00 -0.00000000000E+00 -0.45593999997E+02  0.45594000000E+02  0.51100000000E-03 0. -1.
    9900012    2    1    2    0    0  0.33079140106E+02  0.18731761866E+02 -0.14424219778E+02  0.50528849382E+02  0.29999968182E+02 0.  0.
         12    1    1    2    0    0 -0.33079140106E+02 -0.18731761866E+02  0.14424219778E+02  0.40659150618E+02  0.00000000000E+00 0. -1.
         11    1    3    3    0    0  0.39356907876E+01  0.12767760552E+02  0.42767729343E+01  0.14028405415E+02  0.51100000000E-03 0. -1.
        -11    1    3    3    0    0  0.70138975215E+01  0.32131935182E+00 -0.96515012767E+01  0.11935220221E+02  0.51100000000E-03 0.  1.
        -12    1    3    3    0    0  0.22129551797E+02  0.56426819621E+01 -0.90494914353E+01  0.24565223746E+02  0.00000000000E+00 0.  1.
</event>
<event>
 7    1  0.5329250E-013  0.5052887E+02  0.7816164E-02  0.1300439E+00
        -11   -1    0    0    0    0  0.00000000000E+00  0.00000000000E+00  0.45593999997E+02  0.45594000000E+02  0.51100000000E-03 0.  1.
         11   -1    0    0    0    0 -0.00000000000E+00 -0.00000000000E+00 -0.45593999997E+02  0.45594000000E+02  0.51100000000E-03 0. -1.
    9900012    2    1    2    0    0  0.95719395649E+01 -0.25273872750E+02  0.30377204000E+02  0.50528865803E+02  0.30000018094E+02 0.  0.
         12    1    1    2    0    0 -0.95719395649E+01  0.25273872750E+02 -0.30377204000E+02  0.40659134197E+02  0.00000000000E+00 0. -1.
         11    1    3    3    0    0  0.10024580696E+02 -0.14580168535E+02  0.93522657872E+01  0.20013455680E+02  0.51100000000E-03 0. -1.
        -11    1    3    3    0    0  0.53246494573E+01 -0.12389332826E+02  0.20410780077E+02  0.24463184652E+02  0.51100000000E-03 0.  1.
         12    1    3    3    0    0 -0.57772905888E+01  0.16956286105E+01  0.61415813560E+00  0.60522254707E+01  0.00000000000E+00 0. -1.
</event>
<event>
 7    1  0.5329250E-013  0.5052886E+02  0.7816164E-02  0.1300439E+00
        -11   -1    0    0    0    0  0.00000000000E+00  0.00000000000E+00  0.45593999997E+02  0.45594000000E+02  0.51100000000E-03 0. -1.
         11   -1    0    0    0    0 -0.00000000000E+00 -0.00000000000E+00 -0.45593999997E+02  0.45594000000E+02  0.51100000000E-03 0.  1.
    9900012    2    1    2    0    0 -0.43883476274E+01 -0.15962313707E+02 -0.37136407425E+02  0.50528858221E+02  0.29999995047E+02 0.  0.
         12    1    1    2    0    0  0.43883476274E+01  0.15962313707E+02  0.37136407425E+02  0.40659141779E+02  0.00000000000E+00 0. -1.
         11    1    3    3    0    0 -0.10852272071E+02  0.29894541466E+01 -0.66396978382E+01  0.13068826759E+02  0.51100000000E-03 0. -1.
        -11    1    3    3    0    0  0.41854960123E+01 -0.23338233591E+01 -0.89713825139E+01  0.10171077269E+02  0.51100000000E-03 0.  1.
        -12    1    3    3    0    0  0.22784284316E+01 -0.16617944494E+02 -0.21525327073E+02  0.27288954193E+02  0.00000000000E+00 0.  1.
</event>
<event>
 7    1  0.5329250E-013  0.5052895E+02  0.7816164E-02  0.1300438E+00
        -11   -1    0    0    0    0  0.00000000000E+00  0.00000000000E+00  0.45593999997E+02  0.45594000000E+02  0.51100000000E-03 0.  1.
         11   -1    0    0    0    0 -0.00000000000E+00 -0.00000000000E+00 -0.45593999997E+02  0.45594000000E+02  0.51100000000E-03 0. -1.
    9900012    2    1    2    0    0 -0.64639625285E+01  0.96817591986E+01  0.38956882517E+02  0.50528954657E+02  0.30000288175E+02 0.  0.
         12    1    1    2    0    0  0.64639625285E+01 -0.96817591986E+01 -0.38956882517E+02  0.40659045343E+02  0.00000000000E+00 0. -1.
         11    1    3    3    0    0  0.66009663977E+01 -0.43156900537E+01  0.59691332136E+01  0.98908285601E+01  0.51100000000E-03 0. -1.
        -11    1    3    3    0    0  0.62665219650E+00  0.80374063728E+01  0.70524421404E+01  0.10711187356E+02  0.51100000000E-03 0.  1.
        -12    1    3    3    0    0 -0.13691581123E+02  0.59600428795E+01  0.25935307163E+02  0.29926938741E+02  0.00000000000E+00 0.  1.
</event>
<event>
 7    1  0.5329250E-013  0.5052886E+02  0.7816164E-02  0.1300439E+00
        -11   -1    0    0    0    0  0.00000000000E+00  0.00000000000E+00  0.45593999997E+02  0.45594000000E+02  0.51100000000E-03 0.  1.
         11   -1    0    0    0    0 -0.00000000000E+00 -0.00000000000E+00 -0.45593999997E+02  0.45594000000E+02  0.51100000000E-03 0. -1.
    9900012    2    1    2    0    0  0.84537732425E+01  0.21924217553E+01  0.39710111260E+02  0.50528856730E+02  0.29999990517E+02 0.  0.
         12    1    1    2    0    0 -0.84537732425E+01 -0.21924217553E+01 -0.39710111260E+02  0.40659143270E+02  0.00000000000E+00 0. -1.
         11    1    3    3    0    0 -0.58629911418E+01  0.11436331526E+02  0.13440323600E+02  0.18595877033E+02  0.51100000000E-03 0. -1.
        -11    1    3    3    0    0  0.75080939763E+00 -0.16486130902E+01  0.66911991355E+01  0.69320838141E+01  0.51100000000E-03 0.  1.
         12    1    3    3    0    0  0.13565954987E+02 -0.75952966801E+01  0.19578588524E+02  0.25000895883E+02  0.00000000000E+00 0. -1.
</event>
<event>
 7    1  0.5329250E-013  0.5052885E+02  0.7816164E-02  0.1300439E+00
        -11   -1    0    0    0    0  0.00000000000E+00  0.00000000000E+00  0.45593999997E+02  0.45594000000E+02  0.51100000000E-03 0. -1.
         11   -1    0    0    0    0 -0.00000000000E+00 -0.00000000000E+00 -0.45593999997E+02  0.45594000000E+02  0.51100000000E-03 0.  1.
    9900012    2    1    2    0    0 -0.83558500820E+01  0.34950741134E+02 -0.19020827581E+02  0.50528850743E+02  0.29999972319E+02 0.  0.
         12    1    1    2    0    0  0.83558500820E+01 -0.34950741134E+02  0.19020827581E+02  0.40659149257E+02  0.00000000000E+00 0. -1.
         11    1    3    3    0    0 -0.15791508782E+01  0.46784258642E+01 -0.14790880051E+02  0.15593316485E+02  0.51100000000E-03 0. -1.
        -11    1    3    3    0    0 -0.43310718687E+01  0.28644192231E+02 -0.80960108920E+01  0.30079782658E+02  0.51100000000E-03 0.  1.
         12    1    3    3    0    0 -0.24456273351E+01  0.16281230386E+01  0.38660633617E+01  0.48557516007E+01  0.00000000000E+00 0. -1.
</event>
<event>
 7    1  0.5329250E-013  0.5052887E+02  0.7816164E-02  0.1300439E+00
        -11   -1    0    0    0    0  0.00000000000E+00  0.00000000000E+00  0.45593999997E+02  0.45594000000E+02  0.51100000000E-03 0. -1.
         11   -1    0    0    0    0 -0.00000000000E+00 -0.00000000000E+00 -0.45593999997E+02  0.45594000000E+02  0.51100000000E-03 0.  1.
    9900012    2    1    2    0    0  0.20079239915E+02  0.26702723440E+02 -0.23172266300E+02  0.50528865231E+02  0.30000016355E+02 0.  0.
         12    1    1    2    0    0 -0.20079239915E+02 -0.26702723440E+02  0.23172266300E+02  0.40659134769E+02  0.00000000000E+00 0. -1.
         11    1    3    3    0    0  0.60349011080E+01  0.13476436704E+02  0.23100497745E+01  0.14945591586E+02  0.51100000000E-03 0. -1.
        -11    1    3    3    0    0  0.11637689635E+02  0.13080522786E+02 -0.10515103917E+02  0.20423107184E+02  0.51100000000E-03 0.  1.
         12    1    3    3    0    0  0.24066491725E+01  0.14576395020E+00 -0.14967212158E+02  0.15160166461E+02  0.00000000000E+00 0. -1.
</event>
<event>
 7    1  0.5329250E-013  0.5052886E+02  0.7816164E-02  0.1300439E+00
        -11   -1    0    0    0    0  0.00000000000E+00  0.00000000000E+00  0.45593999997E+02  0.45594000000E+02  0.51100000000E-03 0. -1.
         11   -1    0    0    0    0 -0.00000000000E+00 -0.00000000000E+00 -0.45593999997E+02  0.45594000000E+02  0.51100000000E-03 0.  1.
    9900012    2    1    2    0    0  0.15747248025E+02  0.37056543432E+02  0.56570616797E+01  0.50528861073E+02  0.30000003717E+02 0.  0.
         12    1    1    2    0    0 -0.15747248025E+02 -0.37056543432E+02 -0.56570616797E+01  0.40659138927E+02  0.00000000000E+00 0. -1.
         11    1    3    3    0    0  0.35916459066E-02  0.34787735288E+01  0.67209238619E+01  0.75678726194E+01  0.51100000000E-03 0. -1.
        -11    1    3    3    0    0  0.15070800439E+02  0.12364952324E+02  0.63148370212E+01  0.20491418660E+02  0.51100000000E-03 0.  1.
        -12    1    3    3    0    0  0.67285593964E+00  0.21212817579E+02 -0.73786992034E+01  0.22469569793E+02  0.00000000000E+00 0.  1.
</event>
<event>
 7    1  0.5329250E-013  0.5052886E+02  0.7816164E-02  0.1300439E+00
        -11   -1    0    0    0    0  0.00000000000E+00  0.00000000000E+00  0.45593999997E+02  0.45594000000E+02  0.51100000000E-03 0. -1.
         11   -1    0    0    0    0 -0.00000000000E+00 -0.00000000000E+00 -0.45593999997E+02  0.45594000000E+02  0.51100000000E-03 0.  1.
    9900012    2    1    2    0    0  0.35663000469E+02 -0.19505364280E+02 -0.92582746813E+00  0.50528855953E+02  0.29999988155E+02 0.  0.
         12    1    1    2    0    0 -0.35663000469E+02  0.19505364280E+02  0.92582746813E+00  0.40659144047E+02  0.00000000000E+00 0. -1.
         11    1    3    3    0    0  0.15166193672E+02 -0.51120486053E+01 -0.20952066431E+01  0.16141138825E+02  0.51100000000E-03 0.  1.
        -11    1    3    3    0    0  0.18885515714E+02 -0.84026995384E+01  0.10498933854E+02  0.23183952977E+02  0.51100000000E-03 0. -1.
         12    1    3    3    0    0  0.16112910829E+01 -0.59906161361E+01 -0.93295546790E+01  0.11203764151E+02  0.00000000000E+00 0. -1.
</event>
<event>
 7    1  0.5329250E-013  0.5052886E+02  0.7816164E-02  0.1300439E+00
        -11   -1    0    0    0    0  0.00000000000E+00  0.00000000000E+00  0.45593999997E+02  0.45594000000E+02  0.51100000000E-03 0. -1.
         11   -1    0    0    0    0 -0.00000000000E+00 -0.00000000000E+00 -0.45593999997E+02  0.45594000000E+02  0.51100000000E-03 0.  1.
    9900012    2    1    2    0    0  0.21655483077E+02  0.34140431300E+02  0.43170042298E+01  0.50528861763E+02  0.30000005815E+02 0.  0.
         12    1    1    2    0    0 -0.21655483077E+02 -0.34140431300E+02 -0.43170042298E+01  0.40659138237E+02  0.00000000000E+00 0. -1.
         11    1    3    3    0    0  0.16610710394E+01  0.33481641792E+00 -0.10076533476E+01  0.19714523990E+01  0.51100000000E-03 0. -1.
        -11    1    3    3    0    0  0.80513950673E+00  0.15985270682E+02 -0.93520145372E+01  0.18537456799E+02  0.51100000000E-03 0.  1.
         12    1    3    3    0    0  0.19189272531E+02  0.17820344200E+02  0.14676672115E+02  0.30019952565E+02  0.00000000000E+00 0. -1.
</event>
<event>
 7    1  0.5329250E-013  0.5052888E+02  0.7816164E-02  0.1300439E+00
        -11   -1    0    0    0    0  0.00000000000E+00  0.00000000000E+00  0.45593999997E+02  0.45594000000E+02  0.51100000000E-03 0.  1.
         11   -1    0    0    0    0 -0.00000000000E+00 -0.00000000000E+00 -0.45593999997E+02  0.45594000000E+02  0.51100000000E-03 0. -1.
    9900012    2    1    2    0    0  0.17685701460E+02 -0.59043905087E+00  0.36606435757E+02  0.50528883024E+02  0.30000070441E+02 0.  0.
         12    1    1    2    0    0 -0.17685701460E+02  0.59043905087E+00 -0.36606435757E+02  0.40659116976E+02  0.00000000000E+00 0. -1.
         11    1    3    3    0    0  0.42139251183E+01 -0.42502063455E+01  0.16024771115E+02  0.17105984579E+02  0.51100000000E-03 0. -1.
        -11    1    3    3    0    0  0.87011350964E+01 -0.87581172846E+01  0.61402171040E+01  0.13788278960E+02  0.51100000000E-03 0.  1.
        -12    1    3    3    0    0  0.47706412449E+01  0.12417884579E+02  0.14441447539E+02  0.19634619485E+02  0.00000000000E+00 0.  1.
</event>
<event>
 7    1  0.5329250E-013  0.5052887E+02  0.7816164E-02  0.1300439E+00
        -11   -1    0    0    0    0  0.00000000000E+00  0.00000000000E+00  0.45593999997E+02  0.45594000000E+02  0.51100000000E-03 0.  1.
         11   -1    0    0    0    0 -0.00000000000E+00 -0.00000000000E+00 -0.45593999997E+02  0.45594000000E+02  0.51100000000E-03 0. -1.
    9900012    2    1    2    0    0  0.11141667739E+02  0.28228574448E+02  0.27058752138E+02  0.50528865200E+02  0.30000016263E+02 0.  0.
         12    1    1    2    0    0 -0.11141667739E+02 -0.28228574448E+02 -0.27058752138E+02  0.40659134800E+02  0.00000000000E+00 0. -1.
         11    1    3    3    0    0  0.75862714158E+01  0.13356695186E+02  0.15488053820E+02  0.21813588235E+02  0.51100000000E-03 0.  1.
        -11    1    3    3    0    0  0.27906002214E+01  0.52863246548E-01 -0.54569036156E+01  0.61292774003E+01  0.51100000000E-03 0. -1.
         12    1    3    3    0    0  0.76479610144E+00  0.14819016015E+02  0.17027601934E+02  0.22585999565E+02  0.00000000000E+00 0. -1.
</event>
<event>
 7    1  0.5329250E-013  0.5052886E+02  0.7816164E-02  0.1300439E+00
        -11   -1    0    0    0    0  0.00000000000E+00  0.00000000000E+00  0.45593999997E+02  0.45594000000E+02  0.51100000000E-03 0.  1.
         11   -1    0    0    0    0 -0.00000000000E+00 -0.00000000000E+00 -0.45593999997E+02  0.45594000000E+02  0.51100000000E-03 0. -1.
    9900012    2    1    2    0    0  0.18426601658E+02  0.30450600967E+02  0.19656725233E+02  0.50528860870E+02  0.30000003100E+02 0.  0.
         12    1    1    2    0    0 -0.18426601658E+02 -0.30450600967E+02 -0.19656725233E+02  0.40659139130E+02  0.00000000000E+00 0. -1.
         11    1    3    3    0    0  0.52437089621E+00  0.17534913264E+01  0.62221774234E+01  0.64857681749E+01  0.51100000000E-03 0.  1.
        -11    1    3    3    0    0 -0.20024829584E+01  0.14766326750E+01 -0.50194119647E+01  0.56022208800E+01  0.51100000000E-03 0. -1.
        -12    1    3    3    0    0  0.19904713721E+02  0.27220476966E+02  0.18453959774E+02  0.38440871815E+02  0.00000000000E+00 0.  1.
</event>
<event>
 7    1  0.5329250E-013  0.5052886E+02  0.7816164E-02  0.1300439E+00
        -11   -1    0    0    0    0  0.00000000000E+00  0.00000000000E+00  0.45593999997E+02  0.45594000000E+02  0.51100000000E-03 0. -1.
         11   -1    0    0    0    0 -0.00000000000E+00 -0.00000000000E+00 -0.45593999997E+02  0.45594000000E+02  0.51100000000E-03 0.  1.
    9900012    2    1    2    0    0  0.34919485796E+02  0.20510660468E+02  0.36204842988E+01  0.50528860958E+02  0.30000003367E+02 0.  0.
         12    1    1    2    0    0 -0.34919485796E+02 -0.20510660468E+02 -0.36204842988E+01  0.40659139042E+02  0.00000000000E+00 0. -1.
         11    1    3    3    0    0 -0.69537215505E+00  0.44173264452E+01  0.72159758714E+01  0.84892062877E+01  0.51100000000E-03 0. -1.
        -11    1    3    3    0    0  0.19340893044E+02  0.43879032312E+01  0.46392545870E+01  0.20367781467E+02  0.51100000000E-03 0.  1.
        -12    1    3    3    0    0  0.16273964908E+02  0.11705430791E+02 -0.82347461596E+01  0.21671873203E+02  0.00000000000E+00 0.  1.
</event>
<event>
 7    1  0.5329250E-013  0.5052886E+02  0.7816164E-02  0.1300439E+00
        -11   -1    0    0    0    0  0.00000000000E+00  0.00000000000E+00  0.45593999997E+02  0.45594000000E+02  0.51100000000E-03 0. -1.
         11   -1    0    0    0    0 -0.00000000000E+00 -0.00000000000E+00 -0.45593999997E+02  0.45594000000E+02  0.51100000000E-03 0.  1.
    9900012    2    1    2    0    0 -0.35535554350E+02  0.33645214571E+01 -0.19469721284E+02  0.50528859891E+02  0.30000000123E+02 0.  0.
         12    1    1    2    0    0  0.35535554350E+02 -0.33645214571E+01  0.19469721284E+02  0.40659140109E+02  0.00000000000E+00 0. -1.
         11    1    3    3    0    0 -0.18582018891E+02  0.52544852910E+01 -0.16183751696E+00  0.19311323968E+02  0.51100000000E-03 0. -1.
        -11    1    3    3    0    0 -0.32060857168E+00 -0.67447511473E+01 -0.28803531377E+01  0.73410416396E+01  0.51100000000E-03 0.  1.
        -12    1    3    3    0    0 -0.16632926887E+02  0.48547873134E+01 -0.16427530629E+02  0.23876494283E+02  0.00000000000E+00 0.  1.
</event>
<event>
 7    1  0.5329250E-013  0.5052886E+02  0.7816164E-02  0.1300439E+00
        -11   -1    0    0    0    0  0.00000000000E+00  0.00000000000E+00  0.45593999997E+02  0.45594000000E+02  0.51100000000E-03 0.  1.
         11   -1    0    0    0    0 -0.00000000000E+00 -0.00000000000E+00 -0.45593999997E+02  0.45594000000E+02  0.51100000000E-03 0. -1.
    9900012    2    1    2    0    0  0.14202139099E+02 -0.17920433427E+02  0.33620281491E+02  0.50528855682E+02  0.29999987330E+02 0.  0.
         12    1    1    2    0    0 -0.14202139099E+02  0.17920433427E+02 -0.33620281491E+02  0.40659144318E+02  0.00000000000E+00 0. -1.
         11    1    3    3    0    0  0.11996752510E+01  0.25618001783E+01 -0.20578753831E-01  0.28288627764E+01  0.51100000000E-03 0. -1.
        -11    1    3    3    0    0  0.18974324314E+02 -0.20293987713E+02  0.26567664674E+02  0.38441016205E+02  0.51100000000E-03 0.  1.
         12    1    3    3    0    0 -0.59718604658E+01 -0.18824589237E+00  0.70731955712E+01  0.92589766998E+01  0.00000000000E+00 0. -1.
</event>
<event>
 7    1  0.5329250E-013  0.5052887E+02  0.7816164E-02  0.1300439E+00
        -11   -1    0    0    0    0  0.00000000000E+00  0.00000000000E+00  0.45593999997E+02  0.45594000000E+02  0.51100000000E-03 0.  1.
         11   -1    0    0    0    0 -0.00000000000E+00 -0.00000000000E+00 -0.45593999997E+02  0.45594000000E+02  0.51100000000E-03 0. -1.
    9900012    2    1    2    0    0  0.98921433605E+01 -0.36499001748E+02  0.14937652210E+02  0.50528867171E+02  0.30000022253E+02 0.  0.
         12    1    1    2    0    0 -0.98921433605E+01  0.36499001748E+02 -0.14937652210E+02  0.40659132829E+02  0.00000000000E+00 0. -1.
         11    1    3    3    0    0 -0.35648440030E+00 -0.92905069424E+01 -0.36205330250E+01  0.99774175026E+01  0.51100000000E-03 0. -1.
        -11    1    3    3    0    0  0.14550722854E+01 -0.27120856016E+02  0.15302827747E+02  0.31174261880E+02  0.51100000000E-03 0.  1.
        -12    1    3    3    0    0  0.87935554754E+01 -0.87638788917E-01  0.32553574880E+01  0.93771877890E+01  0.00000000000E+00 0.  1.
</event>
<event>
 7    1  0.5329250E-013  0.5052886E+02  0.7816164E-02  0.1300439E+00
        -11   -1    0    0    0    0  0.00000000000E+00  0.00000000000E+00  0.45593999997E+02  0.45594000000E+02  0.51100000000E-03 0.  1.
         11   -1    0    0    0    0 -0.00000000000E+00 -0.00000000000E+00 -0.45593999997E+02  0.45594000000E+02  0.51100000000E-03 0. -1.
    9900012    2    1    2    0    0 -0.25946192296E+02  0.21466826233E+01  0.31230633814E+02  0.50528860445E+02  0.30000001808E+02 0.  0.
         12    1    1    2    0    0  0.25946192296E+02 -0.21466826233E+01 -0.31230633814E+02  0.40659139555E+02  0.00000000000E+00 0. -1.
         11    1    3    3    0    0 -0.10012894162E+02 -0.23139951190E+00  0.58224352526E+01  0.11585005299E+02  0.51100000000E-03 0. -1.
        -11    1    3    3    0    0  0.12979241940E+01  0.96566232443E+01  0.13923657303E+02  0.16994211151E+02  0.51100000000E-03 0.  1.
         12    1    3    3    0    0 -0.17231222328E+02 -0.72785411091E+01  0.11484541258E+02  0.21949643995E+02  0.00000000000E+00 0. -1.
</event>
<event>
 7    1  0.5329250E-013  0.5052886E+02  0.7816164E-02  0.1300439E+00
        -11   -1    0    0    0    0  0.00000000000E+00  0.00000000000E+00  0.45593999997E+02  0.45594000000E+02  0.51100000000E-03 0. -1.
         11   -1    0    0    0    0 -0.00000000000E+00 -0.00000000000E+00 -0.45593999997E+02  0.45594000000E+02  0.51100000000E-03 0.  1.
    9900012    2    1    2    0    0  0.27437730368E+02 -0.67699436445E+01  0.29231904203E+02  0.50528863166E+02  0.30000010081E+02 0.  0.
         12    1    1    2    0    0 -0.27437730368E+02  0.67699436445E+01 -0.29231904203E+02  0.40659136834E+02  0.00000000000E+00 0. -1.
         11    1    3    3    0    0 -0.28678418380E+01 -0.22436077482E+01 -0.79536134642E+00  0.37270487611E+01  0.51100000000E-03 0. -1.
        -11    1    3    3    0    0  0.75466993771E+01 -0.99644574019E+01  0.10380324420E+02  0.16247898884E+02  0.51100000000E-03 0.  1.
        -12    1    3    3    0    0  0.22758872829E+02  0.54381215055E+01  0.19646941129E+02  0.30553915522E+02  0.00000000000E+00 0.  1.
</event>
<event>
 7    1  0.5329250E-013  0.5052886E+02  0.7816164E-02  0.1300439E+00
        -11   -1    0    0    0    0  0.00000000000E+00  0.00000000000E+00  0.45593999997E+02  0.45594000000E+02  0.51100000000E-03 0. -1.
         11   -1    0    0    0    0 -0.00000000000E+00 -0.00000000000E+00 -0.45593999997E+02  0.45594000000E+02  0.51100000000E-03 0.  1.
    9900012    2    1    2    0    0  0.37545379726E+00 -0.45641007853E+01 -0.40400419964E+02  0.50528856935E+02  0.29999991139E+02 0.  0.
         12    1    1    2    0    0 -0.37545379726E+00  0.45641007853E+01  0.40400419964E+02  0.40659143065E+02  0.00000000000E+00 0. -1.
         11    1    3    3    0    0 -0.84832322700E+01 -0.61342815688E+01 -0.49687981943E+01  0.11588079904E+02  0.51100000000E-03 0. -1.
        -11    1    3    3    0    0 -0.10293176504E+00  0.35145512159E+01 -0.15543057739E+01  0.38442856159E+01  0.51100000000E-03 0.  1.
        -12    1    3    3    0    0  0.89616178324E+01 -0.19443704324E+01 -0.33877315996E+02  0.35096491415E+02  0.00000000000E+00 0.  1.
</event>
<event>
 7    1  0.5329250E-013  0.5052887E+02  0.7816164E-02  0.1300439E+00
        -11   -1    0    0    0    0  0.00000000000E+00  0.00000000000E+00  0.45593999997E+02  0.45594000000E+02  0.51100000000E-03 0.  1.
         11   -1    0    0    0    0 -0.00000000000E+00 -0.00000000000E+00 -0.45593999997E+02  0.45594000000E+02  0.51100000000E-03 0. -1.
    9900012    2    1    2    0    0 -0.27292348181E+02 -0.24346695576E+02 -0.17763192708E+02  0.50528869784E+02  0.30000030197E+02 0.  0.
         12    1    1    2    0    0  0.27292348181E+02  0.24346695576E+02  0.17763192708E+02  0.40659130216E+02  0.00000000000E+00 0. -1.
         11    1    3    3    0    0 -0.40688999978E+01  0.27330403922E+01  0.72443495872E+00  0.49548222216E+01  0.51100000000E-03 0. -1.
        -11    1    3    3    0    0  0.22819687304E+01 -0.93604184630E+01 -0.41850930049E+00  0.96436489663E+01  0.51100000000E-03 0.  1.
         12    1    3    3    0    0 -0.25505416914E+02 -0.17719317505E+02 -0.18069118366E+02  0.35930398597E+02  0.00000000000E+00 0. -1.
</event>
<event>
 7    1  0.5329250E-013  0.5052886E+02  0.7816164E-02  0.1300439E+00
        -11   -1    0    0    0    0  0.00000000000E+00  0.00000000000E+00  0.45593999997E+02  0.45594000000E+02  0.51100000000E-03 0. -1.
         11   -1    0    0    0    0 -0.00000000000E+00 -0.00000000000E+00 -0.45593999997E+02  0.45594000000E+02  0.51100000000E-03 0.  1.
    9900012    2    1    2    0    0 -0.38332218827E+02  0.95921358398E+01 -0.95810874333E+01  0.50528864414E+02  0.30000013874E+02 0.  0.
         12    1    1    2    0    0  0.38332218827E+02 -0.95921358398E+01  0.95810874333E+01  0.40659135586E+02  0.00000000000E+00 0. -1.
         11    1    3    3    0    0 -0.23720348656E+02  0.10855430233E+02 -0.62354979564E+00  0.26093756351E+02  0.51100000000E-03 0. -1.
        -11    1    3    3    0    0 -0.18439633024E+02  0.63392381698E+00 -0.75727635794E+01  0.19944138837E+02  0.51100000000E-03 0.  1.
         12    1    3    3    0    0  0.38277628529E+01 -0.18972182106E+01 -0.13847740582E+01  0.44909692260E+01  0.00000000000E+00 0. -1.
</event>
<event>
 7    1  0.5329250E-013  0.5052884E+02  0.7816164E-02  0.1300439E+00
        -11   -1    0    0    0    0  0.00000000000E+00  0.00000000000E+00  0.45593999997E+02  0.45594000000E+02  0.51100000000E-03 0.  1.
         11   -1    0    0    0    0 -0.00000000000E+00 -0.00000000000E+00 -0.45593999997E+02  0.45594000000E+02  0.51100000000E-03 0. -1.
    9900012    2    1    2    0    0 -0.24334513620E+02 -0.15700462150E+01  0.32535110186E+02  0.50528843675E+02  0.29999950834E+02 0.  0.
         12    1    1    2    0    0  0.24334513620E+02  0.15700462150E+01 -0.32535110186E+02  0.40659156325E+02  0.00000000000E+00 0. -1.
         11    1    3    3    0    0 -0.59182201422E+01 -0.94927124742E+01  0.69922609960E+01  0.13191991278E+02  0.51100000000E-03 0. -1.
        -11    1    3    3    0    0 -0.16197880302E+02 -0.14385217012E+00  0.83668234563E+01  0.18231723856E+02  0.51100000000E-03 0.  1.
        -12    1    3    3    0    0 -0.22184131757E+01  0.80665184293E+01  0.17176025734E+02  0.19105128542E+02  0.00000000000E+00 0.  1.
</event>
<event>
 7    1  0.5329250E-013  0.5052885E+02  0.7816164E-02  0.1300439E+00
        -11   -1    0    0    0    0  0.00000000000E+00  0.00000000000E+00  0.45593999997E+02  0.45594000000E+02  0.51100000000E-03 0. -1.
         11   -1    0    0    0    0 -0.00000000000E+00 -0.00000000000E+00 -0.45593999997E+02  0.45594000000E+02  0.51100000000E-03 0.  1.
    9900012    2    1    2    0    0  0.27039452310E+02  0.91954483207E+01 -0.28939218139E+02  0.50528848539E+02  0.29999965618E+02 0.  0.
         12    1    1    2    0    0 -0.27039452310E+02 -0.91954483207E+01  0.28939218139E+02  0.40659151461E+02  0.00000000000E+00 0. -1.
         11    1    3    3    0    0  0.92124641308E+01  0.11846830231E+02 -0.13002296423E+02  0.19856399331E+02  0.51100000000E-03 0. -1.
        -11    1    3    3    0    0  0.67881610867E+01  0.13406473034E+01 -0.17511394319E+02  0.18828844824E+02  0.51100000000E-03 0.  1.
         12    1    3    3    0    0  0.11038827093E+02 -0.39920292133E+01  0.15744726030E+01  0.11843604384E+02  0.00000000000E+00 0. -1.
</event>
<event>
 7    1  0.5329250E-013  0.5052887E+02  0.7816164E-02  0.1300439E+00
        -11   -1    0    0    0    0  0.00000000000E+00  0.00000000000E+00  0.45593999997E+02  0.45594000000E+02  0.51100000000E-03 0. -1.
         11   -1    0    0    0    0 -0.00000000000E+00 -0.00000000000E+00 -0.45593999997E+02  0.45594000000E+02  0.51100000000E-03 0.  1.
    9900012    2    1    2    0    0  0.19315223741E+01 -0.40497063838E+02  0.30695673202E+01  0.50528865704E+02  0.30000017794E+02 0.  0.
         12    1    1    2    0    0 -0.19315223741E+01  0.40497063838E+02 -0.30695673202E+01  0.40659134296E+02  0.00000000000E+00 0. -1.
         11    1    3    3    0    0 -0.54307070527E-01 -0.84478048877E+01  0.25932778054E+01  0.88370496612E+01  0.51100000000E-03 0. -1.
        -11    1    3    3    0    0  0.61376591883E+01 -0.11484773991E+02  0.12041272761E+02  0.17735928053E+02  0.51100000000E-03 0.  1.
        -12    1    3    3    0    0 -0.41518297437E+01 -0.20564484960E+02 -0.11564983247E+02  0.23955887990E+02  0.00000000000E+00 0.  1.
</event>
<event>
 7    1  0.5329250E-013  0.5052886E+02  0.7816164E-02  0.1300439E+00
        -11   -1    0    0    0    0  0.00000000000E+00  0.00000000000E+00  0.45593999997E+02  0.45594000000E+02  0.51100000000E-03 0.  1.
         11   -1    0    0    0    0 -0.00000000000E+00 -0.00000000000E+00 -0.45593999997E+02  0.45594000000E+02  0.51100000000E-03 0. -1.
    9900012    2    1    2    0    0 -0.98615695509E+01 -0.34720645026E+02 -0.18718759779E+02  0.50528859420E+02  0.29999998692E+02 0.  0.
         12    1    1    2    0    0  0.98615695509E+01  0.34720645026E+02  0.18718759779E+02  0.40659140580E+02  0.00000000000E+00 0. -1.
         11    1    3    3    0    0  0.21508334901E+01  0.14640419906E+01 -0.32246381846E+01  0.41434038344E+01  0.51100000000E-03 0. -1.
        -11    1    3    3    0    0 -0.90828743898E+00 -0.28048143908E+02 -0.37923916185E+01  0.28317937729E+02  0.51100000000E-03 0.  1.
         12    1    3    3    0    0 -0.11104115602E+02 -0.81365431088E+01 -0.11701729976E+02  0.18067517856E+02  0.00000000000E+00 0. -1.
</event>
<event>
 7    1  0.5329250E-013  0.5052886E+02  0.7816164E-02  0.1300439E+00
        -11   -1    0    0    0    0  0.00000000000E+00  0.00000000000E+00  0.45593999997E+02  0.45594000000E+02  0.51100000000E-03 0. -1.
         11   -1    0    0    0    0 -0.00000000000E+00 -0.00000000000E+00 -0.45593999997E+02  0.45594000000E+02  0.51100000000E-03 0.  1.
    9900012    2    1    2    0    0  0.25849016992E+02  0.29130161707E+02  0.11680219405E+02  0.50528861718E+02  0.30000005677E+02 0.  0.
         12    1    1    2    0    0 -0.25849016992E+02 -0.29130161707E+02 -0.11680219405E+02  0.40659138282E+02  0.00000000000E+00 0. -1.
         11    1    3    3    0    0 -0.15177284478E+01  0.83184268971E+01 -0.43549141811E+01  0.95113092406E+01  0.51100000000E-03 0. -1.
        -11    1    3    3    0    0  0.10789594171E+02  0.32422800794E+01 -0.12199934743E+01  0.11332083075E+02  0.51100000000E-03 0.  1.
         12    1    3    3    0    0  0.16577151269E+02  0.17569454730E+02  0.17255127061E+02  0.29685469402E+02  0.00000000000E+00 0. -1.
</event>
<event>
 7    1  0.5329250E-013  0.5052886E+02  0.7816164E-02  0.1300439E+00
        -11   -1    0    0    0    0  0.00000000000E+00  0.00000000000E+00  0.45593999997E+02  0.45594000000E+02  0.51100000000E-03 0. -1.
         11   -1    0    0    0    0 -0.00000000000E+00 -0.00000000000E+00 -0.45593999997E+02  0.45594000000E+02  0.51100000000E-03 0.  1.
    9900012    2    1    2    0    0 -0.15532440183E+02 -0.13348513999E+02 -0.35124440553E+02  0.50528857754E+02  0.29999993630E+02 0.  0.
         12    1    1    2    0    0  0.15532440183E+02  0.13348513999E+02  0.35124440553E+02  0.40659142246E+02  0.00000000000E+00 0. -1.
         11    1    3    3    0    0  0.53443036764E+01 -0.83301480936E+01 -0.73148460164E+01  0.12306905442E+02  0.51100000000E-03 0. -1.
        -11    1    3    3    0    0 -0.10265597047E+01  0.41756723331E+01 -0.54312591432E+01  0.69273833734E+01  0.51100000000E-03 0.  1.
         12    1    3    3    0    0 -0.19850184155E+02 -0.91940382389E+01 -0.22378335393E+02  0.31294568939E+02  0.00000000000E+00 0. -1.
</event>
<event>
 7    1  0.5329250E-013  0.5052879E+02  0.7816164E-02  0.1300439E+00
        -11   -1    0    0    0    0  0.00000000000E+00  0.00000000000E+00  0.45593999997E+02  0.45594000000E+02  0.51100000000E-03 0.  1.
         11   -1    0    0    0    0 -0.00000000000E+00 -0.00000000000E+00 -0.45593999997E+02  0.45594000000E+02  0.51100000000E-03 0. -1.
    9900012    2    1    2    0    0 -0.40055474185E+02 -0.80616348311E-01 -0.69802245222E+01  0.50528793840E+02  0.29999799356E+02 0.  0.
         12    1    1    2    0    0  0.40055474185E+02  0.80616348311E-01  0.69802245222E+01  0.40659206160E+02  0.00000000000E+00 0. -1.
         11    1    3    3    0    0  0.84815430838E+00 -0.30087658522E+01  0.14212952836E+00  0.31292553025E+01  0.51100000000E-03 0. -1.
        -11    1    3    3    0    0 -0.22126814047E+02 -0.96130341668E+01 -0.17426779643E+01  0.24187667364E+02  0.51100000000E-03 0.  1.
        -12    1    3    3    0    0 -0.18776814446E+02  0.12541183671E+02 -0.53796760863E+01  0.23211871174E+02  0.00000000000E+00 0.  1.
</event>
<event>
 7    1  0.5329250E-013  0.5052886E+02  0.7816164E-02  0.1300439E+00
        -11   -1    0    0    0    0  0.00000000000E+00  0.00000000000E+00  0.45593999997E+02  0.45594000000E+02  0.51100000000E-03 0. -1.
         11   -1    0    0    0    0 -0.00000000000E+00 -0.00000000000E+00 -0.45593999997E+02  0.45594000000E+02  0.51100000000E-03 0.  1.
    9900012    2    1    2    0    0 -0.11381752356E+02  0.20908788132E+02 -0.32961250794E+02  0.50528858817E+02  0.29999996861E+02 0.  0.
         12    1    1    2    0    0  0.11381752356E+02 -0.20908788132E+02  0.32961250794E+02  0.40659141183E+02  0.00000000000E+00 0. -1.
         11    1    3    3    0    0 -0.52595205810E+01  0.14300835363E+02 -0.53800473312E+01  0.16159249932E+02  0.51100000000E-03 0. -1.
        -11    1    3    3    0    0 -0.11611852649E+02  0.56779877203E+01 -0.11320967489E+02  0.17182519363E+02  0.51100000000E-03 0.  1.
        -12    1    3    3    0    0  0.54896208748E+01  0.92996504837E+00 -0.16260235974E+02  0.17187089523E+02  0.00000000000E+00 0.  1.
</event>
<event>
 7    1  0.5329250E-013  0.5052886E+02  0.7816164E-02  0.1300439E+00
        -11   -1    0    0    0    0  0.00000000000E+00  0.00000000000E+00  0.45593999997E+02  0.45594000000E+02  0.51100000000E-03 0.  1.
         11   -1    0    0    0    0 -0.00000000000E+00 -0.00000000000E+00 -0.45593999997E+02  0.45594000000E+02  0.51100000000E-03 0. -1.
    9900012    2    1    2    0    0 -0.27389654372E+02 -0.26107408531E+02  0.14878712948E+02  0.50528855323E+02  0.29999986241E+02 0.  0.
         12    1    1    2    0    0  0.27389654372E+02  0.26107408531E+02 -0.14878712948E+02  0.40659144677E+02  0.00000000000E+00 0. -1.
         11    1    3    3    0    0 -0.38710391100E+01 -0.14021920259E+02 -0.74538097340E+00  0.14565534134E+02  0.51100000000E-03 0. -1.
        -11    1    3    3    0    0 -0.58400087261E+01 -0.90291698120E+01  0.14411981007E+02  0.17981568514E+02  0.51100000000E-03 0.  1.
         12    1    3    3    0    0 -0.17678606536E+02 -0.30563184601E+01  0.12121129148E+01  0.17981752676E+02  0.00000000000E+00 0. -1.
</event>
<event>
 7    1  0.5366470E-013  0.5052884E+02  0.7816164E-02  0.1300439E+00
        -11   -1    0    0    0    0  0.00000000000E+00  0.00000000000E+00  0.45593999997E+02  0.45594000000E+02  0.51100000000E-03 0. -1.
         11   -1    0    0    0    0 -0.00000000000E+00 -0.00000000000E+00 -0.45593999997E+02  0.45594000000E+02  0.51100000000E-03 0.  1.
    9900012    2    1    2    0    0 -0.23765511883E+02  0.10452523686E+02 -0.31290775616E+02  0.50528838116E+02  0.29999933939E+02 0.  0.
         12    1    1    2    0    0  0.23765511883E+02 -0.10452523686E+02  0.31290775616E+02  0.40659161884E+02  0.00000000000E+00 0. -1.
         11    1    3    3    0    0  0.21304141531E+00  0.58216755170E+01 -0.44713922227E+01  0.73437484393E+01  0.51100000000E-03 0. -1.
        -11    1    3    3    0    0 -0.94567203822E+01  0.50939152644E+01 -0.26564133465E+02  0.28653633628E+02  0.51100000000E-03 0.  1.
        -12    1    3    3    0    0 -0.14521832916E+02 -0.46306709548E+00 -0.25524992799E+00  0.14531456049E+02  0.00000000000E+00 0.  1.
</event>
<event>
 7    1  0.5329250E-013  0.5052883E+02  0.7816164E-02  0.1300439E+00
        -11   -1    0    0    0    0  0.00000000000E+00  0.00000000000E+00  0.45593999997E+02  0.45594000000E+02  0.51100000000E-03 0.  1.
         11   -1    0    0    0    0 -0.00000000000E+00 -0.00000000000E+00 -0.45593999997E+02  0.45594000000E+02  0.51100000000E-03 0. -1.
    9900012    2    1    2    0    0  0.33538710753E+02  0.22118203045E+01  0.22878603691E+02  0.50528834060E+02  0.29999921609E+02 0.  0.
         12    1    1    2    0    0 -0.33538710753E+02 -0.22118203045E+01 -0.22878603691E+02  0.40659165940E+02  0.00000000000E+00 0. -1.
         11    1    3    3    0    0  0.14067349235E+02 -0.66348095324E+01  0.93380948375E+01  0.18141417461E+02  0.51100000000E-03 0. -1.
        -11    1    3    3    0    0  0.19473623440E+02 -0.23241958125E+00  0.12742598985E+02  0.23273372293E+02  0.51100000000E-03 0.  1.
        -12    1    3    3    0    0 -0.22619219220E-02  0.90790494182E+01  0.79790986885E+00  0.91140443060E+01  0.00000000000E+00 0.  1.
</event>
<event>
 7    1  0.5329250E-013  0.5052886E+02  0.7816164E-02  0.1300439E+00
        -11   -1    0    0    0    0  0.00000000000E+00  0.00000000000E+00  0.45593999997E+02  0.45594000000E+02  0.51100000000E-03 0.  1.
         11   -1    0    0    0    0 -0.00000000000E+00 -0.00000000000E+00 -0.45593999997E+02  0.45594000000E+02  0.51100000000E-03 0. -1.
    9900012    2    1    2    0    0  0.51173164419E+01  0.57076922374E+01  0.39929952207E+02  0.50528858820E+02  0.29999996868E+02 0.  0.
         12    1    1    2    0    0 -0.51173164419E+01 -0.57076922374E+01 -0.39929952207E+02  0.40659141180E+02  0.00000000000E+00 0. -1.
         11    1    3    3    0    0  0.10050648661E+02  0.16925314586E+01  0.19863475898E+02  0.22325722301E+02  0.51100000000E-03 0. -1.
        -11    1    3    3    0    0  0.17777923195E+01 -0.68021431637E+01  0.81830678277E+01  0.10788526150E+02  0.51100000000E-03 0.  1.
         12    1    3    3    0    0 -0.67111245390E+01  0.10817303942E+02  0.11883408482E+02  0.17414610369E+02  0.00000000000E+00 0. -1.
</event>
<event>
 7    1  0.5329250E-013  0.5052881E+02  0.7816164E-02  0.1300439E+00
        -11   -1    0    0    0    0  0.00000000000E+00  0.00000000000E+00  0.45593999997E+02  0.45594000000E+02  0.51100000000E-03 0. -1.
         11   -1    0    0    0    0 -0.00000000000E+00 -0.00000000000E+00 -0.45593999997E+02  0.45594000000E+02  0.51100000000E-03 0.  1.
    9900012    2    1    2    0    0 -0.24051106429E+02 -0.32093426784E+02 -0.66877339574E+01  0.50528812248E+02  0.29999855308E+02 0.  0.
         12    1    1    2    0    0  0.24051106429E+02  0.32093426784E+02  0.66877339574E+01  0.40659187752E+02  0.00000000000E+00 0. -1.
         11    1    3    3    0    0 -0.47071168534E+01 -0.12662456466E+02  0.18561440713E+01  0.13635982689E+02  0.51100000000E-03 0. -1.
        -11    1    3    3    0    0  0.52761556270E+00 -0.11549791762E+02 -0.10244988489E+02  0.15447843129E+02  0.51100000000E-03 0.  1.
         12    1    3    3    0    0 -0.19871605138E+02 -0.78811785568E+01  0.17011104608E+01  0.21444986430E+02  0.00000000000E+00 0. -1.
</event>
<event>
 7    1  0.5329250E-013  0.5052901E+02  0.7816164E-02  0.1300438E+00
        -11   -1    0    0    0    0  0.00000000000E+00  0.00000000000E+00  0.45593999997E+02  0.45594000000E+02  0.51100000000E-03 0.  1.
         11   -1    0    0    0    0 -0.00000000000E+00 -0.00000000000E+00 -0.45593999997E+02  0.45594000000E+02  0.51100000000E-03 0. -1.
    9900012    2    1    2    0    0  0.12754841361E+02  0.68611380284E+01  0.37992007506E+02  0.50529005577E+02  0.30000442947E+02 0.  0.
         12    1    1    2    0    0 -0.12754841361E+02 -0.68611380284E+01 -0.37992007506E+02  0.40658994423E+02  0.00000000000E+00 0. -1.
         11    1    3    3    0    0  0.65752817391E+01  0.12389976100E+02  0.23069308465E+02  0.26998867217E+02  0.51100000000E-03 0.  1.
        -11    1    3    3    0    0 -0.48610097207E+01 -0.35451051811E+01  0.90529734427E+01  0.10869844280E+02  0.51100000000E-03 0. -1.
         12    1    3    3    0    0  0.11040569342E+02 -0.19837328902E+01  0.58697255982E+01  0.12660294079E+02  0.00000000000E+00 0. -1.
</event>
<event>
 7    1  0.5329250E-013  0.5052886E+02  0.7816164E-02  0.1300439E+00
        -11   -1    0    0    0    0  0.00000000000E+00  0.00000000000E+00  0.45593999997E+02  0.45594000000E+02  0.51100000000E-03 0. -1.
         11   -1    0    0    0    0 -0.00000000000E+00 -0.00000000000E+00 -0.45593999997E+02  0.45594000000E+02  0.51100000000E-03 0.  1.
    9900012    2    1    2    0    0  0.20853474758E+02  0.32822833788E+02 -0.11872654967E+02  0.50528858797E+02  0.29999996800E+02 0.  0.
         12    1    1    2    0    0 -0.20853474758E+02 -0.32822833788E+02  0.11872654967E+02  0.40659141203E+02  0.00000000000E+00 0. -1.
         11    1    3    3    0    0  0.63758094061E+00  0.53633700453E+01 -0.10991755460E+01  0.55118449579E+01  0.51100000000E-03 0. -1.
        -11    1    3    3    0    0  0.82283382501E+01  0.21038383301E+01  0.76747550612E+01  0.11446988756E+02  0.51100000000E-03 0.  1.
        -12    1    3    3    0    0  0.11987555567E+02  0.25355625413E+02 -0.18448234482E+02  0.33570025083E+02  0.00000000000E+00 0.  1.
</event>
<event>
 7    1  0.5329250E-013  0.5052886E+02  0.7816164E-02  0.1300439E+00
        -11   -1    0    0    0    0  0.00000000000E+00  0.00000000000E+00  0.45593999997E+02  0.45594000000E+02  0.51100000000E-03 0.  1.
         11   -1    0    0    0    0 -0.00000000000E+00 -0.00000000000E+00 -0.45593999997E+02  0.45594000000E+02  0.51100000000E-03 0. -1.
    9900012    2    1    2    0    0  0.24872242570E+02  0.32159610070E+02 -0.54488304012E+00  0.50528857512E+02  0.29999992894E+02 0.  0.
         12    1    1    2    0    0 -0.24872242570E+02 -0.32159610070E+02  0.54488304012E+00  0.40659142488E+02  0.00000000000E+00 0. -1.
         11    1    3    3    0    0  0.15288355266E+02  0.15337506841E+02  0.93666654769E+01  0.23594646538E+02  0.51100000000E-03 0. -1.
        -11    1    3    3    0    0  0.59950512635E+01 -0.10630885143E+01  0.17206196660E+00  0.60910099674E+01  0.51100000000E-03 0.  1.
         12    1    3    3    0    0  0.35888360404E+01  0.17885191743E+02 -0.10083610484E+02  0.20843201007E+02  0.00000000000E+00 0. -1.
</event>
<event>
 7    1  0.5329250E-013  0.5052887E+02  0.7816164E-02  0.1300439E+00
        -11   -1    0    0    0    0  0.00000000000E+00  0.00000000000E+00  0.45593999997E+02  0.45594000000E+02  0.51100000000E-03 0.  1.
         11   -1    0    0    0    0 -0.00000000000E+00 -0.00000000000E+00 -0.45593999997E+02  0.45594000000E+02  0.51100000000E-03 0. -1.
    9900012    2    1    2    0    0 -0.35208378675E+02 -0.86493243992E+01  0.18404466338E+02  0.50528866675E+02  0.30000020747E+02 0.  0.
         12    1    1    2    0    0  0.35208378675E+02  0.86493243992E+01 -0.18404466338E+02  0.40659133325E+02  0.00000000000E+00 0. -1.
         11    1    3    3    0    0 -0.21766934844E+01  0.73821207039E+01  0.13107063812E+01  0.78071539046E+01  0.51100000000E-03 0. -1.
        -11    1    3    3    0    0 -0.15177628788E+02 -0.16569371184E+00  0.80574486123E+01  0.17184596254E+02  0.51100000000E-03 0.  1.
         12    1    3    3    0    0 -0.17854056403E+02 -0.15865751391E+02  0.90363113448E+01  0.25537116516E+02  0.00000000000E+00 0. -1.
</event>
<event>
 7    1  0.5329250E-013  0.5052877E+02  0.7816164E-02  0.1300439E+00
        -11   -1    0    0    0    0  0.00000000000E+00  0.00000000000E+00  0.45593999997E+02  0.45594000000E+02  0.51100000000E-03 0. -1.
         11   -1    0    0    0    0 -0.00000000000E+00 -0.00000000000E+00 -0.45593999997E+02  0.45594000000E+02  0.51100000000E-03 0.  1.
    9900012    2    1    2    0    0  0.26085093011E+02 -0.60935443909E+01 -0.30587742889E+02  0.50528765186E+02  0.29999712257E+02 0.  0.
         12    1    1    2    0    0 -0.26085093011E+02  0.60935443909E+01  0.30587742889E+02  0.40659234814E+02  0.00000000000E+00 0. -1.
         11    1    3    3    0    0  0.49783035452E+01  0.58203623038E+00 -0.10595370089E+02  0.11721098069E+02  0.51100000000E-03 0. -1.
        -11    1    3    3    0    0 -0.44242432565E+00 -0.99036925896E+01 -0.12077261050E+02  0.15624951229E+02  0.51100000000E-03 0.  1.
        -12    1    3    3    0    0  0.21549213791E+02  0.32281119684E+01 -0.79151117510E+01  0.23182715888E+02  0.00000000000E+00 0.  1.
</event>
<event>
 7    1  0.5329250E-013  0.5052889E+02  0.7816164E-02  0.1300439E+00
        -11   -1    0    0    0    0  0.00000000000E+00  0.00000000000E+00  0.45593999997E+02  0.45594000000E+02  0.51100000000E-03 0. -1.
         11   -1    0    0    0    0 -0.00000000000E+00 -0.00000000000E+00 -0.45593999997E+02  0.45594000000E+02  0.51100000000E-03 0.  1.
    9900012    2    1    2    0    0 -0.16793965644E+02  0.15248658169E+02 -0.33743209802E+02  0.50528891971E+02  0.30000097635E+02 0.  0.
         12    1    1    2    0    0  0.16793965644E+02 -0.15248658169E+02  0.33743209802E+02  0.40659108029E+02  0.00000000000E+00 0. -1.
         11    1    3    3    0    0  0.31382081406E+00 -0.14604400888E+01  0.29869022392E+01  0.33396038693E+01  0.51100000000E-03 0. -1.
        -11    1    3    3    0    0 -0.11669128309E+02  0.60186259663E+00 -0.93702210772E+01  0.14977711353E+02  0.51100000000E-03 0.  1.
        -12    1    3    3    0    0 -0.54386581490E+01  0.16107235662E+02 -0.27359890963E+02  0.32211576749E+02  0.00000000000E+00 0.  1.
</event>
<event>
 7    1  0.5329250E-013  0.5052887E+02  0.7816164E-02  0.1300439E+00
        -11   -1    0    0    0    0  0.00000000000E+00  0.00000000000E+00  0.45593999997E+02  0.45594000000E+02  0.51100000000E-03 0. -1.
         11   -1    0    0    0    0 -0.00000000000E+00 -0.00000000000E+00 -0.45593999997E+02  0.45594000000E+02  0.51100000000E-03 0.  1.
    9900012    2    1    2    0    0 -0.20767083810E+02  0.25399891977E+02 -0.24015384798E+02  0.50528868314E+02  0.30000025729E+02 0.  0.
         12    1    1    2    0    0  0.20767083810E+02 -0.25399891977E+02  0.24015384798E+02  0.40659131686E+02  0.00000000000E+00 0. -1.
         11    1    3    3    0    0 -0.84110106662E+01  0.14634435041E+02  0.18866822972E+01  0.16984444640E+02  0.51100000000E-03 0. -1.
        -11    1    3    3    0    0 -0.11336930309E+02  0.45712892224E+01 -0.80897898524E+01  0.14658355095E+02  0.51100000000E-03 0.  1.
        -12    1    3    3    0    0 -0.10191428351E+01  0.61941677138E+01 -0.17812277243E+02  0.18886068579E+02  0.00000000000E+00 0.  1.
</event>
<event>
 7    1  0.5329250E-013  0.5052886E+02  0.7816164E-02  0.1300439E+00
        -11   -1    0    0    0    0  0.00000000000E+00  0.00000000000E+00  0.45593999997E+02  0.45594000000E+02  0.51100000000E-03 0.  1.
         11   -1    0    0    0    0 -0.00000000000E+00 -0.00000000000E+00 -0.45593999997E+02  0.45594000000E+02  0.51100000000E-03 0. -1.
    9900012    2    1    2    0    0  0.31539081276E+02 -0.11346715781E+02 -0.23015301087E+02  0.50528859688E+02  0.29999999508E+02 0.  0.
         12    1    1    2    0    0 -0.31539081276E+02  0.11346715781E+02  0.23015301087E+02  0.40659140312E+02  0.00000000000E+00 0. -1.
         11    1    3    3    0    0  0.50970986439E+01  0.75066765401E+01 -0.11303636677E+02  0.14494923582E+02  0.51100000000E-03 0. -1.
        -11    1    3    3    0    0  0.98791140273E+01 -0.16272509641E+01 -0.51149272820E+01  0.11243101041E+02  0.51100000000E-03 0.  1.
        -12    1    3    3    0    0  0.16562868605E+02 -0.17226141357E+02 -0.65967371282E+01  0.24790835065E+02  0.00000000000E+00 0.  1.
</event>
<event>
 7    1  0.5329250E-013  0.5052885E+02  0.7816164E-02  0.1300439E+00
        -11   -1    0    0    0    0  0.00000000000E+00  0.00000000000E+00  0.45593999997E+02  0.45594000000E+02  0.51100000000E-03 0.  1.
         11   -1    0    0    0    0 -0.00000000000E+00 -0.00000000000E+00 -0.45593999997E+02  0.45594000000E+02  0.51100000000E-03 0. -1.
    9900012    2    1    2    0    0  0.20005818201E+02 -0.13690630221E+02  0.32641998289E+02  0.50528853796E+02  0.29999981598E+02 0.  0.
         12    1    1    2    0    0 -0.20005818201E+02  0.13690630221E+02 -0.32641998289E+02  0.40659146204E+02  0.00000000000E+00 0. -1.
         11    1    3    3    0    0 -0.34501859883E+01 -0.28347776299E+01 -0.68505954322E+00  0.45176381444E+01  0.51100000000E-03 0. -1.
        -11    1    3    3    0    0  0.13112649753E+02  0.55709958550E+00  0.55504097126E+01  0.14249876902E+02  0.51100000000E-03 0.  1.
        -12    1    3    3    0    0  0.10343354436E+02 -0.11412952177E+02  0.27776648120E+02  0.31761338749E+02  0.00000000000E+00 0.  1.
</event>
<event>
 7    1  0.5329250E-013  0.5052888E+02  0.7816164E-02  0.1300439E+00
        -11   -1    0    0    0    0  0.00000000000E+00  0.00000000000E+00  0.45593999997E+02  0.45594000000E+02  0.51100000000E-03 0.  1.
         11   -1    0    0    0    0 -0.00000000000E+00 -0.00000000000E+00 -0.45593999997E+02  0.45594000000E+02  0.51100000000E-03 0. -1.
    9900012    2    1    2    0    0  0.20393831238E+02 -0.29989323935E+02  0.18381946477E+02  0.50528882217E+02  0.30000067988E+02 0.  0.
         12    1    1    2    0    0 -0.20393831238E+02  0.29989323935E+02 -0.18381946477E+02  0.40659117783E+02  0.00000000000E+00 0. -1.
         11    1    3    3    0    0 -0.11516399956E+00 -0.59378522262E+01  0.76846237535E+01  0.97120952580E+01  0.51100000000E-03 0. -1.
        -11    1    3    3    0    0 -0.40160909861E+01 -0.49987217509E+01 -0.27465025220E+01  0.69756349042E+01  0.51100000000E-03 0.  1.
         12    1    3    3    0    0  0.24525086223E+02 -0.19052749958E+02  0.13443825245E+02  0.33841152055E+02  0.00000000000E+00 0. -1.
</event>
<event>
 7    1  0.5329250E-013  0.5052886E+02  0.7816164E-02  0.1300439E+00
        -11   -1    0    0    0    0  0.00000000000E+00  0.00000000000E+00  0.45593999997E+02  0.45594000000E+02  0.51100000000E-03 0. -1.
         11   -1    0    0    0    0 -0.00000000000E+00 -0.00000000000E+00 -0.45593999997E+02  0.45594000000E+02  0.51100000000E-03 0.  1.
    9900012    2    1    2    0    0 -0.14718876964E+02 -0.37769975798E+02 -0.31542648462E+01  0.50528858376E+02  0.29999995521E+02 0.  0.
         12    1    1    2    0    0  0.14718876964E+02  0.37769975798E+02  0.31542648462E+01  0.40659141624E+02  0.00000000000E+00 0. -1.
         11    1    3    3    0    0 -0.94829882223E+01 -0.11568840456E+02 -0.18927011338E+01  0.15078045396E+02  0.51100000000E-03 0. -1.
        -11    1    3    3    0    0  0.23440662215E+00 -0.23236517060E+02 -0.95188782280E+01  0.25111744553E+02  0.51100000000E-03 0.  1.
         12    1    3    3    0    0 -0.54702953639E+01 -0.29646182816E+01  0.82573145156E+01  0.10339068427E+02  0.00000000000E+00 0. -1.
</event>
<event>
 7    1  0.5329250E-013  0.5052886E+02  0.7816164E-02  0.1300439E+00
        -11   -1    0    0    0    0  0.00000000000E+00  0.00000000000E+00  0.45593999997E+02  0.45594000000E+02  0.51100000000E-03 0.  1.
         11   -1    0    0    0    0 -0.00000000000E+00 -0.00000000000E+00 -0.45593999997E+02  0.45594000000E+02  0.51100000000E-03 0. -1.
    9900012    2    1    2    0    0  0.25677290259E+02  0.18363261587E+02  0.25624859853E+02  0.50528855227E+02  0.29999985949E+02 0.  0.
         12    1    1    2    0    0 -0.25677290259E+02 -0.18363261587E+02 -0.25624859853E+02  0.40659144773E+02  0.00000000000E+00 0. -1.
         11    1    3    3    0    0 -0.23464382033E+01 -0.16474370100E+01 -0.23076100650E+01  0.36803376770E+01  0.51100000000E-03 0. -1.
        -11    1    3    3    0    0  0.17221846620E+02  0.77109112494E+01  0.23004326578E+02  0.29753137564E+02  0.51100000000E-03 0.  1.
        -12    1    3    3    0    0  0.10801881842E+02  0.12299787347E+02  0.49281433401E+01  0.17095379987E+02  0.00000000000E+00 0.  1.
</event>
<event>
 7    1  0.5329250E-013  0.5052886E+02  0.7816164E-02  0.1300439E+00
        -11   -1    0    0    0    0  0.00000000000E+00  0.00000000000E+00  0.45593999997E+02  0.45594000000E+02  0.51100000000E-03 0. -1.
         11   -1    0    0    0    0 -0.00000000000E+00 -0.00000000000E+00 -0.45593999997E+02  0.45594000000E+02  0.51100000000E-03 0.  1.
    9900012    2    1    2    0    0  0.12404309945E+02  0.24823178350E+02 -0.29717142046E+02  0.50528860560E+02  0.30000002159E+02 0.  0.
         12    1    1    2    0    0 -0.12404309945E+02 -0.24823178350E+02  0.29717142046E+02  0.40659139440E+02  0.00000000000E+00 0. -1.
         11    1    3    3    0    0  0.31118878122E+01  0.18827058649E+02 -0.16771748719E+02  0.25405384045E+02  0.51100000000E-03 0. -1.
        -11    1    3    3    0    0  0.82977986309E+01  0.11004794781E+02 -0.32424310065E+01  0.14158825141E+02  0.51100000000E-03 0.  1.
         12    1    3    3    0    0  0.99462350157E+00 -0.50086750795E+01 -0.97029623204E+01  0.10964651374E+02  0.00000000000E+00 0. -1.
</event>
<event>
 7    1  0.5329250E-013  0.5052888E+02  0.7816164E-02  0.1300439E+00
        -11   -1    0    0    0    0  0.00000000000E+00  0.00000000000E+00  0.45593999997E+02  0.45594000000E+02  0.51100000000E-03 0.  1.
         11   -1    0    0    0    0 -0.00000000000E+00 -0.00000000000E+00 -0.45593999997E+02  0.45594000000E+02  0.51100000000E-03 0. -1.
    9900012    2    1    2    0    0 -0.35891168957E+02 -0.59982416690E+01 -0.18138613970E+02  0.50528877666E+02  0.30000054153E+02 0.  0.
         12    1    1    2    0    0  0.35891168957E+02  0.59982416690E+01  0.18138613970E+02  0.40659122334E+02  0.00000000000E+00 0. -1.
         11    1    3    3    0    0  0.11735485308E+01  0.12077984636E+01 -0.35029363560E+01  0.38867154074E+01  0.51100000000E-03 0. -1.
        -11    1    3    3    0    0 -0.10360324652E+02 -0.12719458440E+02 -0.17963209690E+01  0.16502960922E+02  0.51100000000E-03 0.  1.
        -12    1    3    3    0    0 -0.26704392836E+02  0.55134183073E+01 -0.12839356646E+02  0.30139201337E+02  0.00000000000E+00 0.  1.
</event>
<event>
 7    1  0.5329250E-013  0.5052887E+02  0.7816164E-02  0.1300439E+00
        -11   -1    0    0    0    0  0.00000000000E+00  0.00000000000E+00  0.45593999997E+02  0.45594000000E+02  0.51100000000E-03 0.  1.
         11   -1    0    0    0    0 -0.00000000000E+00 -0.00000000000E+00 -0.45593999997E+02  0.45594000000E+02  0.51100000000E-03 0. -1.
    9900012    2    1    2    0    0  0.57522023306E+01  0.32796207004E+01  0.40116346732E+02  0.50528867955E+02  0.30000024635E+02 0.  0.
         12    1    1    2    0    0 -0.57522023306E+01 -0.32796207004E+01 -0.40116346732E+02  0.40659132045E+02  0.00000000000E+00 0. -1.
         11    1    3    3    0    0  0.70386941508E+01 -0.21119196710E+01  0.18225867996E+02  0.19651607682E+02  0.51100000000E-03 0. -1.
        -11    1    3    3    0    0  0.74415475363E+01  0.92558592450E+01  0.14857491264E+02  0.19020846643E+02  0.51100000000E-03 0.  1.
         12    1    3    3    0    0 -0.87280393565E+01 -0.38643188737E+01  0.70329874718E+01  0.11856413629E+02  0.00000000000E+00 0. -1.
</event>
<event>
 7    1  0.5329250E-013  0.5052881E+02  0.7816164E-02  0.1300439E+00
        -11   -1    0    0    0    0  0.00000000000E+00  0.00000000000E+00  0.45593999997E+02  0.45594000000E+02  0.51100000000E-03 0. -1.
         11   -1    0    0    0    0 -0.00000000000E+00 -0.00000000000E+00 -0.45593999997E+02  0.45594000000E+02  0.51100000000E-03 0.  1.
    9900012    2    1    2    0    0 -0.15189495553E+02 -0.37686763147E+02 -0.14686242761E+01  0.50528809785E+02  0.29999847823E+02 0.  0.
         12    1    1    2    0    0  0.15189495553E+02  0.37686763147E+02  0.14686242761E+01  0.40659190215E+02  0.00000000000E+00 0. -1.
         11    1    3    3    0    0 -0.18316037878E+01  0.29239497600E+01  0.29170880917E+01  0.45181476105E+01  0.51100000000E-03 0. -1.
        -11    1    3    3    0    0  0.30175828404E+01 -0.15710872415E+02 -0.16866458731E+01  0.16086705468E+02  0.51100000000E-03 0.  1.
        -12    1    3    3    0    0 -0.16375474606E+02 -0.24899840491E+02 -0.26990664946E+01  0.29923956707E+02  0.00000000000E+00 0.  1.
</event>
<event>
 7    1  0.5329250E-013  0.5052886E+02  0.7816164E-02  0.1300439E+00
        -11   -1    0    0    0    0  0.00000000000E+00  0.00000000000E+00  0.45593999997E+02  0.45594000000E+02  0.51100000000E-03 0.  1.
         11   -1    0    0    0    0 -0.00000000000E+00 -0.00000000000E+00 -0.45593999997E+02  0.45594000000E+02  0.51100000000E-03 0. -1.
    9900012    2    1    2    0    0 -0.61175641409E+01  0.38203427769E+02 -0.12499582178E+02  0.50528855408E+02  0.29999986497E+02 0.  0.
         12    1    1    2    0    0  0.61175641409E+01 -0.38203427769E+02  0.12499582178E+02  0.40659144592E+02  0.00000000000E+00 0. -1.
         11    1    3    3    0    0 -0.84068005275E+01  0.14447230487E+02 -0.12779375135E+02  0.21040655716E+02  0.51100000000E-03 0. -1.
        -11    1    3    3    0    0 -0.65078694962E+01  0.17494238925E+02 -0.38603513380E+00  0.18669488057E+02  0.51100000000E-03 0.  1.
        -12    1    3    3    0    0  0.87971058828E+01  0.62619583578E+01  0.66582809013E+00  0.10818711635E+02  0.00000000000E+00 0.  1.
</event>
<event>
 7    1  0.5329250E-013  0.5052887E+02  0.7816164E-02  0.1300439E+00
        -11   -1    0    0    0    0  0.00000000000E+00  0.00000000000E+00  0.45593999997E+02  0.45594000000E+02  0.51100000000E-03 0.  1.
         11   -1    0    0    0    0 -0.00000000000E+00 -0.00000000000E+00 -0.45593999997E+02  0.45594000000E+02  0.51100000000E-03 0. -1.
    9900012    2    1    2    0    0  0.19621715004E+02  0.87044289346E+01  0.34530947029E+02  0.50528867133E+02  0.30000022138E+02 0.  0.
         12    1    1    2    0    0 -0.19621715004E+02 -0.87044289346E+01 -0.34530947029E+02  0.40659132867E+02  0.00000000000E+00 0. -1.
         11    1    3    3    0    0  0.23648476614E+01  0.29054926823E+01 -0.71422015615E+00  0.38137255907E+01  0.51100000000E-03 0. -1.
        -11    1    3    3    0    0  0.23316210474E+02  0.17807679803E+01  0.27277692505E+02  0.35928948136E+02  0.51100000000E-03 0.  1.
         12    1    3    3    0    0 -0.60593431312E+01  0.40181682720E+01  0.79674746794E+01  0.10786193407E+02  0.00000000000E+00 0. -1.
</event>
<event>
 7    1  0.5329250E-013  0.5052890E+02  0.7816164E-02  0.1300439E+00
        -11   -1    0    0    0    0  0.00000000000E+00  0.00000000000E+00  0.45593999997E+02  0.45594000000E+02  0.51100000000E-03 0. -1.
         11   -1    0    0    0    0 -0.00000000000E+00 -0.00000000000E+00 -0.45593999997E+02  0.45594000000E+02  0.51100000000E-03 0.  1.
    9900012    2    1    2    0    0 -0.34407875880E+02 -0.17448646325E+02 -0.12837659951E+02  0.50528896540E+02  0.30000111524E+02 0.  0.
         12    1    1    2    0    0  0.34407875880E+02  0.17448646325E+02  0.12837659951E+02  0.40659103460E+02  0.00000000000E+00 0. -1.
         11    1    3    3    0    0 -0.85217672150E+01 -0.83274698097E+01  0.72876631829E+00  0.11937268134E+02  0.51100000000E-03 0. -1.
        -11    1    3    3    0    0  0.33016973743E+01 -0.30958061177E+01 -0.65701337167E+01  0.79782127314E+01  0.51100000000E-03 0.  1.
        -12    1    3    3    0    0 -0.29187806039E+02 -0.60253703972E+01 -0.69962925525E+01  0.30613415675E+02  0.00000000000E+00 0.  1.
</event>
<event>
 7    1  0.5329250E-013  0.5052886E+02  0.7816164E-02  0.1300439E+00
        -11   -1    0    0    0    0  0.00000000000E+00  0.00000000000E+00  0.45593999997E+02  0.45594000000E+02  0.51100000000E-03 0. -1.
         11   -1    0    0    0    0 -0.00000000000E+00 -0.00000000000E+00 -0.45593999997E+02  0.45594000000E+02  0.51100000000E-03 0.  1.
    9900012    2    1    2    0    0  0.94716015071E+01 -0.36984553746E+02 -0.13985615242E+02  0.50528857306E+02  0.29999992268E+02 0.  0.
         12    1    1    2    0    0 -0.94716015071E+01  0.36984553746E+02  0.13985615242E+02  0.40659142694E+02  0.00000000000E+00 0. -1.
         11    1    3    3    0    0 -0.14231796245E-01 -0.15709501354E+01  0.13645374726E+01  0.20808771341E+01  0.51100000000E-03 0. -1.
        -11    1    3    3    0    0  0.14304121310E+02 -0.53307384097E+01 -0.29115434746E+01  0.15540326384E+02  0.51100000000E-03 0.  1.
         12    1    3    3    0    0 -0.48182880070E+01 -0.30082865201E+02 -0.12438609240E+02  0.32907653788E+02  0.00000000000E+00 0. -1.
</event>
<event>
 7    1  0.5329250E-013  0.5052887E+02  0.7816164E-02  0.1300439E+00
        -11   -1    0    0    0    0  0.00000000000E+00  0.00000000000E+00  0.45593999997E+02  0.45594000000E+02  0.51100000000E-03 0.  1.
         11   -1    0    0    0    0 -0.00000000000E+00 -0.00000000000E+00 -0.45593999997E+02  0.45594000000E+02  0.51100000000E-03 0. -1.
    9900012    2    1    2    0    0 -0.29026758975E+02  0.16244754014E+02  0.23382041440E+02  0.50528872716E+02  0.30000039107E+02 0.  0.
         12    1    1    2    0    0  0.29026758975E+02 -0.16244754014E+02 -0.23382041440E+02  0.40659127284E+02  0.00000000000E+00 0. -1.
         11    1    3    3    0    0  0.82969176589E+00 -0.75786740047E+00  0.24474980375E+01  0.26931391215E+01  0.51100000000E-03 0. -1.
        -11    1    3    3    0    0 -0.75854873750E+01  0.14629894843E+02 -0.96982527089E+00  0.16507998157E+02  0.51100000000E-03 0.  1.
        -12    1    3    3    0    0 -0.22270963366E+02  0.23727265719E+01  0.21904368674E+02  0.31327735438E+02  0.00000000000E+00 0.  1.
</event>
<event>
 7    1  0.6271862E-013  0.5052886E+02  0.7816164E-02  0.1300439E+00
        -11   -1    0    0    0    0  0.00000000000E+00  0.00000000000E+00  0.45593999997E+02  0.45594000000E+02  0.51100000000E-03 0. -1.
         11   -1    0    0    0    0 -0.00000000000E+00 -0.00000000000E+00 -0.45593999997E+02  0.45594000000E+02  0.51100000000E-03 0.  1.
    9900012    2    1    2    0    0 -0.12950782192E+02  0.18586620499E+02 -0.33763593884E+02  0.50528862123E+02  0.30000006908E+02 0.  0.
         12    1    1    2    0    0  0.12950782192E+02 -0.18586620499E+02  0.33763593884E+02  0.40659137877E+02  0.00000000000E+00 0. -1.
         11    1    3    3    0    0 -0.22071086068E+00  0.89073060093E+01 -0.96374900261E+00  0.89620101555E+01  0.51100000000E-03 0. -1.
        -11    1    3    3    0    0 -0.10663637697E+01  0.99498324300E+01 -0.26459365822E+02  0.28288413477E+02  0.51100000000E-03 0.  1.
         12    1    3    3    0    0 -0.11663707562E+02 -0.27051794055E+00 -0.63404790596E+01  0.13278438490E+02  0.00000000000E+00 0. -1.
</event>
<event>
 7    1  0.5329250E-013  0.5052886E+02  0.7816164E-02  0.1300439E+00
        -11   -1    0    0    0    0  0.00000000000E+00  0.00000000000E+00  0.45593999997E+02  0.45594000000E+02  0.51100000000E-03 0.  1.
         11   -1    0    0    0    0 -0.00000000000E+00 -0.00000000000E+00 -0.45593999997E+02  0.45594000000E+02  0.51100000000E-03 0. -1.
    9900012    2    1    2    0    0 -0.33854922558E+02 -0.14660941583E+01 -0.22469092407E+02  0.50528864162E+02  0.30000013108E+02 0.  0.
         12    1    1    2    0    0  0.33854922558E+02  0.14660941583E+01  0.22469092407E+02  0.40659135838E+02  0.00000000000E+00 0. -1.
         11    1    3    3    0    0 -0.15013796507E+02 -0.45869003197E+01 -0.88898658243E+01  0.18041160016E+02  0.51100000000E-03 0. -1.
        -11    1    3    3    0    0 -0.23299597453E+02 -0.78338511467E+00 -0.89657246658E+01  0.24977372816E+02  0.51100000000E-03 0.  1.
         12    1    3    3    0    0  0.44584714022E+01  0.39041912761E+01 -0.46135019167E+01  0.75103313309E+01  0.00000000000E+00 0. -1.
</event>
<event>
 7    1  0.5329250E-013  0.5052881E+02  0.7816164E-02  0.1300439E+00
        -11   -1    0    0    0    0  0.00000000000E+00  0.00000000000E+00  0.45593999997E+02  0.45594000000E+02  0.51100000000E-03 0.  1.
         11   -1    0    0    0    0 -0.00000000000E+00 -0.00000000000E+00 -0.45593999997E+02  0.45594000000E+02  0.51100000000E-03 0. -1.
    9900012    2    1    2    0    0  0.24205536500E+02 -0.32081331346E+02 -0.61684890696E+01  0.50528805768E+02  0.29999835613E+02 0.  0.
         12    1    1    2    0    0 -0.24205536500E+02  0.32081331346E+02  0.61684890696E+01  0.40659194232E+02  0.00000000000E+00 0. -1.
         11    1    3    3    0    0 -0.21333377157E+01 -0.48476873497E+01  0.33558418073E+01  0.62699981616E+01  0.51100000000E-03 0. -1.
        -11    1    3    3    0    0  0.21791116122E+02 -0.16205913930E+02  0.25620385460E+01  0.27277251143E+02  0.51100000000E-03 0.  1.
         12    1    3    3    0    0  0.45477580929E+01 -0.11027730066E+02 -0.12086369423E+02  0.16981556463E+02  0.00000000000E+00 0. -1.
</event>
<event>
 7    1  0.5329250E-013  0.5052886E+02  0.7816164E-02  0.1300439E+00
        -11   -1    0    0    0    0  0.00000000000E+00  0.00000000000E+00  0.45593999997E+02  0.45594000000E+02  0.51100000000E-03 0. -1.
         11   -1    0    0    0    0 -0.00000000000E+00 -0.00000000000E+00 -0.45593999997E+02  0.45594000000E+02  0.51100000000E-03 0.  1.
    9900012    2    1    2    0    0 -0.23353911479E+02  0.31366259549E+02 -0.11131871096E+02  0.50528856213E+02  0.29999988944E+02 0.  0.
         12    1    1    2    0    0  0.23353911479E+02 -0.31366259549E+02  0.11131871096E+02  0.40659143787E+02  0.00000000000E+00 0. -1.
         11    1    3    3    0    0 -0.11730906661E+02 -0.86446394324E+00 -0.82879608732E+01  0.14389293405E+02  0.51100000000E-03 0. -1.
        -11    1    3    3    0    0 -0.76319438056E+01  0.83276637724E+01 -0.37117607145E+01  0.11890068041E+02  0.51100000000E-03 0.  1.
         12    1    3    3    0    0 -0.39910610119E+01  0.23903059719E+02  0.86785049174E+00  0.24249494766E+02  0.00000000000E+00 0. -1.
</event>
<event>
 7    1  0.5329250E-013  0.5052886E+02  0.7816164E-02  0.1300439E+00
        -11   -1    0    0    0    0  0.00000000000E+00  0.00000000000E+00  0.45593999997E+02  0.45594000000E+02  0.51100000000E-03 0.  1.
         11   -1    0    0    0    0 -0.00000000000E+00 -0.00000000000E+00 -0.45593999997E+02  0.45594000000E+02  0.51100000000E-03 0. -1.
    9900012    2    1    2    0    0 -0.35198214478E+02 -0.51789989441E+01  0.19683225034E+02  0.50528859819E+02  0.29999999907E+02 0.  0.
         12    1    1    2    0    0  0.35198214478E+02  0.51789989441E+01 -0.19683225034E+02  0.40659140181E+02  0.00000000000E+00 0. -1.
         11    1    3    3    0    0 -0.83206411213E+01  0.32963562971E+01  0.54783636992E+01  0.10493402813E+02  0.51100000000E-03 0.  1.
        -11    1    3    3    0    0 -0.15930387460E+02 -0.28254932408E+01  0.20568993885E+02  0.26169527439E+02  0.51100000000E-03 0. -1.
         12    1    3    3    0    0 -0.10947185897E+02 -0.56498620004E+01 -0.63641325499E+01  0.13865929568E+02  0.00000000000E+00 0. -1.
</event>
<event>
 7    1  0.5329250E-013  0.5052887E+02  0.7816164E-02  0.1300439E+00
        -11   -1    0    0    0    0  0.00000000000E+00  0.00000000000E+00  0.45593999997E+02  0.45594000000E+02  0.51100000000E-03 0. -1.
         11   -1    0    0    0    0 -0.00000000000E+00 -0.00000000000E+00 -0.45593999997E+02  0.45594000000E+02  0.51100000000E-03 0.  1.
    9900012    2    1    2    0    0 -0.27478342010E+02 -0.28941405442E+02  0.77782277835E+01  0.50528867495E+02  0.30000023238E+02 0.  0.
         12    1    1    2    0    0  0.27478342010E+02  0.28941405442E+02 -0.77782277835E+01  0.40659132505E+02  0.00000000000E+00 0. -1.
         11    1    3    3    0    0 -0.91910855624E-01  0.36371509848E+01  0.27544685857E+01  0.45633772956E+01  0.51100000000E-03 0. -1.
        -11    1    3    3    0    0 -0.79404130075E+01 -0.16332896427E+02 -0.48070438698E+01  0.18786200666E+02  0.51100000000E-03 0.  1.
        -12    1    3    3    0    0 -0.19446018147E+02 -0.16245660000E+02  0.98308030677E+01  0.27179289534E+02  0.00000000000E+00 0.  1.
</event>
<event>
 7    1  0.5329250E-013  0.5052888E+02  0.7816164E-02  0.1300439E+00
        -11   -1    0    0    0    0  0.00000000000E+00  0.00000000000E+00  0.45593999997E+02  0.45594000000E+02  0.51100000000E-03 0.  1.
         11   -1    0    0    0    0 -0.00000000000E+00 -0.00000000000E+00 -0.45593999997E+02  0.45594000000E+02  0.51100000000E-03 0. -1.
    9900012    2    1    2    0    0 -0.32901401012E+02  0.10365669439E+02  0.21522418396E+02  0.50528883124E+02  0.30000070744E+02 0.  0.
         12    1    1    2    0    0  0.32901401012E+02 -0.10365669439E+02 -0.21522418396E+02  0.40659116876E+02  0.00000000000E+00 0. -1.
         11    1    3    3    0    0 -0.38243852010E+01 -0.45174725254E+01  0.11523400684E+01  0.60300388123E+01  0.51100000000E-03 0. -1.
        -11    1    3    3    0    0 -0.16278024288E+02  0.47916684167E+01 -0.17101302098E+01  0.17054580222E+02  0.51100000000E-03 0.  1.
         12    1    3    3    0    0 -0.12798991523E+02  0.10091473548E+02  0.22080208538E+02  0.27444264090E+02  0.00000000000E+00 0. -1.
</event>
<event>
 7    1  0.5329250E-013  0.5052886E+02  0.7816164E-02  0.1300439E+00
        -11   -1    0    0    0    0  0.00000000000E+00  0.00000000000E+00  0.45593999997E+02  0.45594000000E+02  0.51100000000E-03 0. -1.
         11   -1    0    0    0    0 -0.00000000000E+00 -0.00000000000E+00 -0.45593999997E+02  0.45594000000E+02  0.51100000000E-03 0.  1.
    9900012    2    1    2    0    0 -0.15241210631E+02  0.32043129297E+02 -0.19852187451E+02  0.50528856093E+02  0.29999988581E+02 0.  0.
         12    1    1    2    0    0  0.15241210631E+02 -0.32043129297E+02  0.19852187451E+02  0.40659143907E+02  0.00000000000E+00 0. -1.
         11    1    3    3    0    0  0.43138353507E+01  0.16346444716E+01 -0.57755510872E+01  0.73917676237E+01  0.51100000000E-03 0. -1.
        -11    1    3    3    0    0 -0.10384756553E+02  0.18742552029E+02 -0.17779772166E+02  0.27843252751E+02  0.51100000000E-03 0.  1.
        -12    1    3    3    0    0 -0.91702894291E+01  0.11665932796E+02  0.37031358019E+01  0.15293835719E+02  0.00000000000E+00 0.  1.
</event>
<event>
 7    1  0.5329250E-013  0.5052887E+02  0.7816164E-02  0.1300439E+00
        -11   -1    0    0    0    0  0.00000000000E+00  0.00000000000E+00  0.45593999997E+02  0.45594000000E+02  0.51100000000E-03 0. -1.
         11   -1    0    0    0    0 -0.00000000000E+00 -0.00000000000E+00 -0.45593999997E+02  0.45594000000E+02  0.51100000000E-03 0.  1.
    9900012    2    1    2    0    0  0.27736590626E+02  0.18824937224E+02 -0.23010181280E+02  0.50528866173E+02  0.30000019220E+02 0.  0.
         12    1    1    2    0    0 -0.27736590626E+02 -0.18824937224E+02  0.23010181280E+02  0.40659133827E+02  0.00000000000E+00 0. -1.
         11    1    3    3    0    0  0.67075690331E+01  0.14963601449E+01 -0.14415963439E+02  0.15970303008E+02  0.51100000000E-03 0. -1.
        -11    1    3    3    0    0  0.20122095465E+02  0.21355279566E+02 -0.73713449194E+01  0.30253651307E+02  0.51100000000E-03 0.  1.
         12    1    3    3    0    0  0.90692612797E+00 -0.40267024875E+01 -0.12228729212E+01  0.43049118581E+01  0.00000000000E+00 0. -1.
</event>
<event>
 7    1  0.5329250E-013  0.5052886E+02  0.7816164E-02  0.1300439E+00
        -11   -1    0    0    0    0  0.00000000000E+00  0.00000000000E+00  0.45593999997E+02  0.45594000000E+02  0.51100000000E-03 0.  1.
         11   -1    0    0    0    0 -0.00000000000E+00 -0.00000000000E+00 -0.45593999997E+02  0.45594000000E+02  0.51100000000E-03 0. -1.
    9900012    2    1    2    0    0  0.34314794892E+02 -0.10008950933E+02  0.19377334560E+02  0.50528863980E+02  0.30000012552E+02 0.  0.
         12    1    1    2    0    0 -0.34314794892E+02  0.10008950933E+02 -0.19377334560E+02  0.40659136020E+02  0.00000000000E+00 0. -1.
         11    1    3    3    0    0  0.10825092694E+02 -0.67589205858E+01  0.35665933408E+01  0.13250895352E+02  0.51100000000E-03 0. -1.
        -11    1    3    3    0    0  0.12233217482E+01 -0.15368357131E+01 -0.58473691617E+01  0.61684768366E+01  0.51100000000E-03 0.  1.
        -12    1    3    3    0    0  0.22266380450E+02 -0.17131946340E+01  0.21658110381E+02  0.31109491791E+02  0.00000000000E+00 0.  1.
</event>
<event>
 7    1  0.5329250E-013  0.5052888E+02  0.7816164E-02  0.1300439E+00
        -11   -1    0    0    0    0  0.00000000000E+00  0.00000000000E+00  0.45593999997E+02  0.45594000000E+02  0.51100000000E-03 0.  1.
         11   -1    0    0    0    0 -0.00000000000E+00 -0.00000000000E+00 -0.45593999997E+02  0.45594000000E+02  0.51100000000E-03 0. -1.
    9900012    2    1    2    0    0 -0.31441628032E+02  0.12574624111E+02  0.22504811340E+02  0.50528884438E+02  0.30000074737E+02 0.  0.
         12    1    1    2    0    0  0.31441628032E+02 -0.12574624111E+02 -0.22504811340E+02  0.40659115562E+02  0.00000000000E+00 0. -1.
         11    1    3    3    0    0 -0.16724963955E+02 -0.13711296346E+01  0.53605212840E+01  0.17616458341E+02  0.51100000000E-03 0. -1.
        -11    1    3    3    0    0 -0.88772464535E+01  0.11747759214E+02  0.60359613239E-01  0.14724774860E+02  0.51100000000E-03 0.  1.
        -12    1    3    3    0    0 -0.58394176235E+01  0.21979945320E+01  0.17083930443E+02  0.18187651237E+02  0.00000000000E+00 0.  1.
</event>
<event>
 7    1  0.5329250E-013  0.5052887E+02  0.7816164E-02  0.1300439E+00
        -11   -1    0    0    0    0  0.00000000000E+00  0.00000000000E+00  0.45593999997E+02  0.45594000000E+02  0.51100000000E-03 0.  1.
         11   -1    0    0    0    0 -0.00000000000E+00 -0.00000000000E+00 -0.45593999997E+02  0.45594000000E+02  0.51100000000E-03 0. -1.
    9900012    2    1    2    0    0  0.29550411469E+02 -0.27016026607E+02  0.70762032118E+01  0.50528866173E+02  0.30000019221E+02 0.  0.
         12    1    1    2    0    0 -0.29550411469E+02  0.27016026607E+02 -0.70762032118E+01  0.40659133827E+02  0.00000000000E+00 0. -1.
         11    1    3    3    0    0  0.27576692128E+01 -0.62570686992E+00  0.95884171923E+01  0.99966991096E+01  0.51100000000E-03 0. -1.
        -11    1    3    3    0    0  0.99331004837E+01 -0.17028720709E+02  0.41185448198E+01  0.20139667969E+02  0.51100000000E-03 0.  1.
        -12    1    3    3    0    0  0.16859641773E+02 -0.93615990278E+01 -0.66307588003E+01  0.20392499095E+02  0.00000000000E+00 0.  1.
</event>
<event>
 7    1  0.5329250E-013  0.5052886E+02  0.7816164E-02  0.1300439E+00
        -11   -1    0    0    0    0  0.00000000000E+00  0.00000000000E+00  0.45593999997E+02  0.45594000000E+02  0.51100000000E-03 0.  1.
         11   -1    0    0    0    0 -0.00000000000E+00 -0.00000000000E+00 -0.45593999997E+02  0.45594000000E+02  0.51100000000E-03 0. -1.
    9900012    2    1    2    0    0  0.11745804838E+02  0.32732937750E+02  0.21065534492E+02  0.50528857259E+02  0.29999992123E+02 0.  0.
         12    1    1    2    0    0 -0.11745804838E+02 -0.32732937750E+02 -0.21065534492E+02  0.40659142741E+02  0.00000000000E+00 0. -1.
         11    1    3    3    0    0 -0.45682278360E+01  0.13368333854E-01  0.40239157864E+01  0.60877567947E+01  0.51100000000E-03 0. -1.
        -11    1    3    3    0    0  0.88536168150E+01  0.27512303368E+01  0.21969178126E+00  0.92738375990E+01  0.51100000000E-03 0.  1.
        -12    1    3    3    0    0  0.74604158590E+01  0.29968339079E+02  0.16821926925E+02  0.35167262865E+02  0.00000000000E+00 0.  1.
</event>
<event>
 7    1  0.5329250E-013  0.5052899E+02  0.7816164E-02  0.1300438E+00
        -11   -1    0    0    0    0  0.00000000000E+00  0.00000000000E+00  0.45593999997E+02  0.45594000000E+02  0.51100000000E-03 0.  1.
         11   -1    0    0    0    0 -0.00000000000E+00 -0.00000000000E+00 -0.45593999997E+02  0.45594000000E+02  0.51100000000E-03 0. -1.
    9900012    2    1    2    0    0 -0.36596625875E+01 -0.18094356375E+02  0.36226455995E+02  0.50528991443E+02  0.30000399988E+02 0.  0.
         12    1    1    2    0    0  0.36596625875E+01  0.18094356375E+02 -0.36226455995E+02  0.40659008557E+02  0.00000000000E+00 0. -1.
         11    1    3    3    0    0 -0.75749261001E+00  0.23285302255E+01  0.19806072113E+02  0.19956862000E+02  0.51100000000E-03 0. -1.
        -11    1    3    3    0    0 -0.36719317106E+01 -0.18829188738E+02  0.19287030723E+02  0.27203142932E+02  0.51100000000E-03 0.  1.
         12    1    3    3    0    0  0.76976173309E+00 -0.15936978625E+01 -0.28666468412E+01  0.33689865115E+01  0.00000000000E+00 0. -1.
</event>
<event>
 7    1  0.5329250E-013  0.5052885E+02  0.7816164E-02  0.1300439E+00
        -11   -1    0    0    0    0  0.00000000000E+00  0.00000000000E+00  0.45593999997E+02  0.45594000000E+02  0.51100000000E-03 0.  1.
         11   -1    0    0    0    0 -0.00000000000E+00 -0.00000000000E+00 -0.45593999997E+02  0.45594000000E+02  0.51100000000E-03 0. -1.
    9900012    2    1    2    0    0 -0.18017623101E+02 -0.31635677605E+02  0.18102911784E+02  0.50528852754E+02  0.29999978430E+02 0.  0.
         12    1    1    2    0    0  0.18017623101E+02  0.31635677605E+02 -0.18102911784E+02  0.40659147246E+02  0.00000000000E+00 0. -1.
         11    1    3    3    0    0  0.12922925452E+01 -0.20261879778E+00  0.11327997535E+01  0.17304074498E+01  0.51100000000E-03 0. -1.
        -11    1    3    3    0    0  0.26581420257E+01 -0.15153102388E+02  0.14835663103E+02  0.21372391794E+02  0.51100000000E-03 0.  1.
        -12    1    3    3    0    0 -0.21968057672E+02 -0.16279956419E+02  0.21344489269E+01  0.27426053510E+02  0.00000000000E+00 0.  1.
</event>
<event>
 7    1  0.5329250E-013  0.5052886E+02  0.7816164E-02  0.1300439E+00
        -11   -1    0    0    0    0  0.00000000000E+00  0.00000000000E+00  0.45593999997E+02  0.45594000000E+02  0.51100000000E-03 0.  1.
         11   -1    0    0    0    0 -0.00000000000E+00 -0.00000000000E+00 -0.45593999997E+02  0.45594000000E+02  0.51100000000E-03 0. -1.
    9900012    2    1    2    0    0  0.14354771931E+02  0.25182394571E+02  0.28512336937E+02  0.50528857964E+02  0.29999994266E+02 0.  0.
         12    1    1    2    0    0 -0.14354771931E+02 -0.25182394571E+02 -0.28512336937E+02  0.40659142036E+02  0.00000000000E+00 0. -1.
         11    1    3    3    0    0  0.19027089843E+01  0.28142799717E+01  0.12776399388E+02  0.13220319770E+02  0.51100000000E-03 0.  1.
        -11    1    3    3    0    0  0.10853268413E+01  0.42336414225E+01  0.15289077619E+02  0.15901495173E+02  0.51100000000E-03 0. -1.
        -12    1    3    3    0    0  0.11366736105E+02  0.18134473177E+02  0.44685993041E+00  0.21407043020E+02  0.00000000000E+00 0.  1.
</event>
<event>
 7    1  0.5329250E-013  0.5052881E+02  0.7816164E-02  0.1300439E+00
        -11   -1    0    0    0    0  0.00000000000E+00  0.00000000000E+00  0.45593999997E+02  0.45594000000E+02  0.51100000000E-03 0.  1.
         11   -1    0    0    0    0 -0.00000000000E+00 -0.00000000000E+00 -0.45593999997E+02  0.45594000000E+02  0.51100000000E-03 0. -1.
    9900012    2    1    2    0    0 -0.11426958740E+02 -0.43629320302E+01  0.38775752911E+02  0.50528811915E+02  0.29999854295E+02 0.  0.
         12    1    1    2    0    0  0.11426958740E+02  0.43629320302E+01 -0.38775752911E+02  0.40659188085E+02  0.00000000000E+00 0. -1.
         11    1    3    3    0    0 -0.99647432718E+01 -0.59303164276E+01  0.45045578070E+01  0.12440088533E+02  0.51100000000E-03 0. -1.
        -11    1    3    3    0    0  0.38447884249E+01  0.20372024885E+01  0.10941494107E+01  0.44866195744E+01  0.51100000000E-03 0.  1.
        -12    1    3    3    0    0 -0.53070038926E+01 -0.46981809112E+00  0.33177045693E+02  0.33602103808E+02  0.00000000000E+00 0.  1.
</event>
<event>
 7    1  0.5329250E-013  0.5052887E+02  0.7816164E-02  0.1300439E+00
        -11   -1    0    0    0    0  0.00000000000E+00  0.00000000000E+00  0.45593999997E+02  0.45594000000E+02  0.51100000000E-03 0. -1.
         11   -1    0    0    0    0 -0.00000000000E+00 -0.00000000000E+00 -0.45593999997E+02  0.45594000000E+02  0.51100000000E-03 0.  1.
    9900012    2    1    2    0    0  0.21790696682E+02  0.17268316691E+02 -0.29667083431E+02  0.50528867416E+02  0.30000022997E+02 0.  0.
         12    1    1    2    0    0 -0.21790696682E+02 -0.17268316691E+02  0.29667083431E+02  0.40659132584E+02  0.00000000000E+00 0. -1.
         11    1    3    3    0    0 -0.28464857373E+01 -0.48834785649E+00 -0.74913514171E+00  0.29836501811E+01  0.51100000000E-03 0. -1.
        -11    1    3    3    0    0  0.10311778712E+02 -0.44920783189E+01 -0.95082062335E+01  0.14728120514E+02  0.51100000000E-03 0.  1.
        -12    1    3    3    0    0  0.14325403707E+02  0.22248742867E+02 -0.19409742056E+02  0.32817096721E+02  0.00000000000E+00 0.  1.
</event>
<event>
 7    1  0.5329250E-013  0.5052886E+02  0.7816164E-02  0.1300439E+00
        -11   -1    0    0    0    0  0.00000000000E+00  0.00000000000E+00  0.45593999997E+02  0.45594000000E+02  0.51100000000E-03 0.  1.
         11   -1    0    0    0    0 -0.00000000000E+00 -0.00000000000E+00 -0.45593999997E+02  0.45594000000E+02  0.51100000000E-03 0. -1.
    9900012    2    1    2    0    0  0.59138374744E+01 -0.15132041129E+02  0.37272149744E+02  0.50528864631E+02  0.30000014533E+02 0.  0.
         12    1    1    2    0    0 -0.59138374744E+01  0.15132041129E+02 -0.37272149744E+02  0.40659135369E+02  0.00000000000E+00 0. -1.
         11    1    3    3    0    0 -0.19702362294E+01  0.10777406176E+01 -0.20640194884E+00  0.22552067896E+01  0.51100000000E-03 0. -1.
        -11    1    3    3    0    0  0.99386787175E+01  0.35540158632E+01  0.13049235153E+02  0.16783649834E+02  0.51100000000E-03 0.  1.
        -12    1    3    3    0    0 -0.20546050137E+01 -0.19763797610E+02  0.24429316540E+02  0.31490008008E+02  0.00000000000E+00 0.  1.
</event>
<event>
 7    1  0.5329250E-013  0.5052886E+02  0.7816164E-02  0.1300439E+00
        -11   -1    0    0    0    0  0.00000000000E+00  0.00000000000E+00  0.45593999997E+02  0.45594000000E+02  0.51100000000E-03 0.  1.
         11   -1    0    0    0    0 -0.00000000000E+00 -0.00000000000E+00 -0.45593999997E+02  0.45594000000E+02  0.51100000000E-03 0. -1.
    9900012    2    1    2    0    0 -0.28872512550E+02  0.25276101108E+02  0.13441077181E+02  0.50528858052E+02  0.29999994535E+02 0.  0.
         12    1    1    2    0    0  0.28872512550E+02 -0.25276101108E+02 -0.13441077181E+02  0.40659141948E+02  0.00000000000E+00 0. -1.
         11    1    3    3    0    0 -0.97719121615E+01 -0.33190442985E+01  0.22143948399E+01  0.10555087262E+02  0.51100000000E-03 0. -1.
        -11    1    3    3    0    0 -0.36286735364E+01  0.83969233174E+01 -0.43627460257E+01  0.10134552086E+02  0.51100000000E-03 0.  1.
         12    1    3    3    0    0 -0.15471926852E+02  0.20198222089E+02  0.15589428367E+02  0.29839218704E+02  0.00000000000E+00 0. -1.
</event>
<event>
 7    1  0.5329250E-013  0.5052886E+02  0.7816164E-02  0.1300439E+00
        -11   -1    0    0    0    0  0.00000000000E+00  0.00000000000E+00  0.45593999997E+02  0.45594000000E+02  0.51100000000E-03 0.  1.
         11   -1    0    0    0    0 -0.00000000000E+00 -0.00000000000E+00 -0.45593999997E+02  0.45594000000E+02  0.51100000000E-03 0. -1.
    9900012    2    1    2    0    0  0.75784049856E+00 -0.33115766918E+02  0.23578320264E+02  0.50528861701E+02  0.30000005625E+02 0.  0.
         12    1    1    2    0    0 -0.75784049856E+00  0.33115766918E+02 -0.23578320264E+02  0.40659138299E+02  0.00000000000E+00 0. -1.
         11    1    3    3    0    0 -0.42010292826E+01 -0.10078508002E+02  0.87344194149E+00  0.10953897556E+02  0.51100000000E-03 0. -1.
        -11    1    3    3    0    0  0.13646857328E+01  0.13562903377E+01 -0.32490116572E+01  0.37759724097E+01  0.51100000000E-03 0.  1.
        -12    1    3    3    0    0  0.35941840483E+01 -0.24393549254E+02  0.25953889980E+02  0.35798991735E+02  0.00000000000E+00 0.  1.
</event>
<event>
 7    1  0.5329250E-013  0.5052886E+02  0.7816164E-02  0.1300439E+00
        -11   -1    0    0    0    0  0.00000000000E+00  0.00000000000E+00  0.45593999997E+02  0.45594000000E+02  0.51100000000E-03 0. -1.
         11   -1    0    0    0    0 -0.00000000000E+00 -0.00000000000E+00 -0.45593999997E+02  0.45594000000E+02  0.51100000000E-03 0.  1.
    9900012    2    1    2    0    0 -0.10275747896E+02 -0.28796991451E+02 -0.26801261898E+02  0.50528863871E+02  0.30000012222E+02 0.  0.
         12    1    1    2    0    0  0.10275747896E+02  0.28796991451E+02  0.26801261898E+02  0.40659136129E+02  0.00000000000E+00 0. -1.
         11    1    3    3    0    0 -0.20852329988E+01 -0.16566941427E+02 -0.11567120586E+01  0.16737673911E+02  0.51100000000E-03 0. -1.
        -11    1    3    3    0    0 -0.71481693463E+01 -0.19119386209E+01 -0.15506535119E+01  0.75601825949E+01  0.51100000000E-03 0.  1.
        -12    1    3    3    0    0 -0.10423455505E+01 -0.10318111403E+02 -0.24093896327E+02  0.26231007365E+02  0.00000000000E+00 0.  1.
</event>
<event>
 7    1  0.5329250E-013  0.5052885E+02  0.7816164E-02  0.1300439E+00
        -11   -1    0    0    0    0  0.00000000000E+00  0.00000000000E+00  0.45593999997E+02  0.45594000000E+02  0.51100000000E-03 0.  1.
         11   -1    0    0    0    0 -0.00000000000E+00 -0.00000000000E+00 -0.45593999997E+02  0.45594000000E+02  0.51100000000E-03 0. -1.
    9900012    2    1    2    0    0  0.91200390055E+01 -0.36119114030E+02  0.16291122632E+02  0.50528853595E+02  0.29999980988E+02 0.  0.
         12    1    1    2    0    0 -0.91200390055E+01  0.36119114030E+02 -0.16291122632E+02  0.40659146405E+02  0.00000000000E+00 0. -1.
         11    1    3    3    0    0 -0.82396295135E+00 -0.12300369260E+02  0.26801503655E+01  0.12615910793E+02  0.51100000000E-03 0. -1.
        -11    1    3    3    0    0  0.14498118036E+02 -0.23322591595E+02  0.46549777503E+01  0.27853321586E+02  0.51100000000E-03 0.  1.
         12    1    3    3    0    0 -0.45541160795E+01 -0.49615317479E+00  0.89559945164E+01  0.10059621216E+02  0.00000000000E+00 0. -1.
</event>
<event>
 7    1  0.5329250E-013  0.5052887E+02  0.7816164E-02  0.1300439E+00
        -11   -1    0    0    0    0  0.00000000000E+00  0.00000000000E+00  0.45593999997E+02  0.45594000000E+02  0.51100000000E-03 0.  1.
         11   -1    0    0    0    0 -0.00000000000E+00 -0.00000000000E+00 -0.45593999997E+02  0.45594000000E+02  0.51100000000E-03 0. -1.
    9900012    2    1    2    0    0 -0.15916961695E+01 -0.38233164628E+02 -0.13742505295E+02  0.50528870325E+02  0.30000031840E+02 0.  0.
         12    1    1    2    0    0  0.15916961695E+01  0.38233164628E+02  0.13742505295E+02  0.40659129675E+02  0.00000000000E+00 0. -1.
         11    1    3    3    0    0 -0.19918915225E+01 -0.21612938082E+02  0.40194330298E+01  0.22073571675E+02  0.51100000000E-03 0.  1.
        -11    1    3    3    0    0  0.42605018902E+00 -0.18290473837E+02 -0.10691805349E+02  0.21190508579E+02  0.51100000000E-03 0. -1.
        -12    1    3    3    0    0 -0.25854836012E-01  0.16702472910E+01 -0.70701329754E+01  0.72647900710E+01  0.00000000000E+00 0.  1.
</event>
<event>
 7    1  0.5329250E-013  0.5052887E+02  0.7816164E-02  0.1300439E+00
        -11   -1    0    0    0    0  0.00000000000E+00  0.00000000000E+00  0.45593999997E+02  0.45594000000E+02  0.51100000000E-03 0.  1.
         11   -1    0    0    0    0 -0.00000000000E+00 -0.00000000000E+00 -0.45593999997E+02  0.45594000000E+02  0.51100000000E-03 0. -1.
    9900012    2    1    2    0    0 -0.15132146190E+02 -0.30546355171E+02  0.22160855383E+02  0.50528866046E+02  0.30000018834E+02 0.  0.
         12    1    1    2    0    0  0.15132146190E+02  0.30546355171E+02 -0.22160855383E+02  0.40659133954E+02  0.00000000000E+00 0. -1.
         11    1    3    3    0    0  0.44344802044E+00 -0.12654147677E+02  0.19815857578E+02  0.23515788555E+02  0.51100000000E-03 0. -1.
        -11    1    3    3    0    0 -0.75406300857E+01 -0.44846483593E+01  0.64060803531E+01  0.10863288579E+02  0.51100000000E-03 0.  1.
         12    1    3    3    0    0 -0.80349641247E+01 -0.13407559135E+02 -0.40610825476E+01  0.16149788912E+02  0.00000000000E+00 0. -1.
</event>
<event>
 7    1  0.5329250E-013  0.5052886E+02  0.7816164E-02  0.1300439E+00
        -11   -1    0    0    0    0  0.00000000000E+00  0.00000000000E+00  0.45593999997E+02  0.45594000000E+02  0.51100000000E-03 0. -1.
         11   -1    0    0    0    0 -0.00000000000E+00 -0.00000000000E+00 -0.45593999997E+02  0.45594000000E+02  0.51100000000E-03 0.  1.
    9900012    2    1    2    0    0  0.32929848431E+02  0.22499833003E+02  0.79087537127E+01  0.50528858493E+02  0.29999995874E+02 0.  0.
         12    1    1    2    0    0 -0.32929848431E+02 -0.22499833003E+02 -0.79087537127E+01  0.40659141507E+02  0.00000000000E+00 0. -1.
         11    1    3    3    0    0  0.65452333664E+01  0.15670071626E+02 -0.29745643231E+01  0.17240628114E+02  0.51100000000E-03 0. -1.
        -11    1    3    3    0    0  0.77290539668E+01  0.36304941790E+01  0.11531765833E+02  0.14349229481E+02  0.51100000000E-03 0.  1.
        -12    1    3    3    0    0  0.18655561098E+02  0.31992671975E+01 -0.64844779716E+00  0.18939000898E+02  0.00000000000E+00 0.  1.
</event>
<event>
 7    1  0.5329250E-013  0.5052885E+02  0.7816164E-02  0.1300439E+00
        -11   -1    0    0    0    0  0.00000000000E+00  0.00000000000E+00  0.45593999997E+02  0.45594000000E+02  0.51100000000E-03 0.  1.
         11   -1    0    0    0    0 -0.00000000000E+00 -0.00000000000E+00 -0.45593999997E+02  0.45594000000E+02  0.51100000000E-03 0. -1.
    9900012    2    1    2    0    0  0.20764330337E+02  0.24168395374E+02  0.25256630064E+02  0.50528854516E+02  0.29999983788E+02 0.  0.
         12    1    1    2    0    0 -0.20764330337E+02 -0.24168395374E+02 -0.25256630064E+02  0.40659145484E+02  0.00000000000E+00 0. -1.
         11    1    3    3    0    0  0.85151066568E+01  0.91700843198E+00  0.54723154151E+01  0.10163374543E+02  0.51100000000E-03 0. -1.
        -11    1    3    3    0    0  0.63022087099E+01  0.61989257461E+01 -0.46445710795E+01  0.99858177332E+01  0.51100000000E-03 0.  1.
        -12    1    3    3    0    0  0.59470149702E+01  0.17052461196E+02  0.24428885728E+02  0.30379662240E+02  0.00000000000E+00 0.  1.
</event>
<event>
 7    1  0.5329250E-013  0.5052887E+02  0.7816164E-02  0.1300439E+00
        -11   -1    0    0    0    0  0.00000000000E+00  0.00000000000E+00  0.45593999997E+02  0.45594000000E+02  0.51100000000E-03 0.  1.
         11   -1    0    0    0    0 -0.00000000000E+00 -0.00000000000E+00 -0.45593999997E+02  0.45594000000E+02  0.51100000000E-03 0. -1.
    9900012    2    1    2    0    0  0.27953252120E+01 -0.96929552181E+01  0.39387787122E+02  0.50528868206E+02  0.30000025399E+02 0.  0.
         12    1    1    2    0    0 -0.27953252120E+01  0.96929552181E+01 -0.39387787122E+02  0.40659131794E+02  0.00000000000E+00 0. -1.
         11    1    3    3    0    0 -0.30670184186E+00 -0.10622135337E+02  0.11405141373E+02  0.15588491753E+02  0.51100000000E-03 0. -1.
        -11    1    3    3    0    0 -0.56829297255E+01 -0.17801464029E+01  0.24329743852E+02  0.25047974921E+02  0.51100000000E-03 0.  1.
         12    1    3    3    0    0  0.87849567794E+01  0.27093265216E+01  0.36529018974E+01  0.98924015329E+01  0.00000000000E+00 0. -1.
</event>
<event>
 7    1  0.5329250E-013  0.5052884E+02  0.7816164E-02  0.1300439E+00
        -11   -1    0    0    0    0  0.00000000000E+00  0.00000000000E+00  0.45593999997E+02  0.45594000000E+02  0.51100000000E-03 0. -1.
         11   -1    0    0    0    0 -0.00000000000E+00 -0.00000000000E+00 -0.45593999997E+02  0.45594000000E+02  0.51100000000E-03 0.  1.
    9900012    2    1    2    0    0 -0.25355309008E+02 -0.29243552320E+02  0.12453522875E+02  0.50528840157E+02  0.29999940140E+02 0.  0.
         12    1    1    2    0    0  0.25355309008E+02  0.29243552320E+02 -0.12453522875E+02  0.40659159843E+02  0.00000000000E+00 0. -1.
         11    1    3    3    0    0 -0.11412024030E+02 -0.22450809139E+02  0.81278918908E-01  0.25184910759E+02  0.51100000000E-03 0.  1.
        -11    1    3    3    0    0  0.26456104586E+01 -0.44952449603E+01  0.42641995779E+01  0.67372012181E+01  0.51100000000E-03 0. -1.
        -12    1    3    3    0    0 -0.16588895437E+02 -0.22974982209E+01  0.81080443780E+01  0.18606728179E+02  0.00000000000E+00 0.  1.
</event>
<event>
 7    1  0.5329250E-013  0.5052887E+02  0.7816164E-02  0.1300439E+00
        -11   -1    0    0    0    0  0.00000000000E+00  0.00000000000E+00  0.45593999997E+02  0.45594000000E+02  0.51100000000E-03 0.  1.
         11   -1    0    0    0    0 -0.00000000000E+00 -0.00000000000E+00 -0.45593999997E+02  0.45594000000E+02  0.51100000000E-03 0. -1.
    9900012    2    1    2    0    0  0.32078212984E+02 -0.24102922354E+02  0.65728704514E+01  0.50528865230E+02  0.30000016354E+02 0.  0.
         12    1    1    2    0    0 -0.32078212984E+02  0.24102922354E+02 -0.65728704514E+01  0.40659134770E+02  0.00000000000E+00 0. -1.
         11    1    3    3    0    0  0.22820811965E+02 -0.63219108177E+01  0.18776690313E+01  0.23754613370E+02  0.51100000000E-03 0. -1.
        -11    1    3    3    0    0  0.13679911582E+02 -0.14294351262E+02  0.57070969776E+00  0.19793791166E+02  0.51100000000E-03 0.  1.
        -12    1    3    3    0    0 -0.44225105622E+01 -0.34866602739E+01  0.41244917224E+01  0.69804606944E+01  0.00000000000E+00 0.  1.
</event>
<event>
 7    1  0.5329250E-013  0.5052885E+02  0.7816164E-02  0.1300439E+00
        -11   -1    0    0    0    0  0.00000000000E+00  0.00000000000E+00  0.45593999997E+02  0.45594000000E+02  0.51100000000E-03 0. -1.
         11   -1    0    0    0    0 -0.00000000000E+00 -0.00000000000E+00 -0.45593999997E+02  0.45594000000E+02  0.51100000000E-03 0.  1.
    9900012    2    1    2    0    0  0.27372781181E+02 -0.20130537048E+02 -0.22330663800E+02  0.50528853216E+02  0.29999979836E+02 0.  0.
         12    1    1    2    0    0 -0.27372781181E+02  0.20130537048E+02  0.22330663800E+02  0.40659146784E+02  0.00000000000E+00 0. -1.
         11    1    3    3    0    0  0.72704862020E+01 -0.20170992005E+02 -0.12002323694E+02  0.24572030083E+02  0.51100000000E-03 0. -1.
        -11    1    3    3    0    0  0.12522152410E+02 -0.46428833588E+01 -0.10587591212E+02  0.17042821210E+02  0.51100000000E-03 0.  1.
         12    1    3    3    0    0  0.75801425689E+01  0.46833383160E+01  0.25925110644E+00  0.89140019230E+01  0.00000000000E+00 0. -1.
</event>
<event>
 7    1  0.5329250E-013  0.5052886E+02  0.7816164E-02  0.1300439E+00
        -11   -1    0    0    0    0  0.00000000000E+00  0.00000000000E+00  0.45593999997E+02  0.45594000000E+02  0.51100000000E-03 0. -1.
         11   -1    0    0    0    0 -0.00000000000E+00 -0.00000000000E+00 -0.45593999997E+02  0.45594000000E+02  0.51100000000E-03 0.  1.
    9900012    2    1    2    0    0  0.10396873889E+02 -0.27056254769E+02 -0.28513680862E+02  0.50528857054E+02  0.29999991502E+02 0.  0.
         12    1    1    2    0    0 -0.10396873889E+02  0.27056254769E+02  0.28513680862E+02  0.40659142946E+02  0.00000000000E+00 0. -1.
         11    1    3    3    0    0  0.11500470126E+02 -0.22275904747E+02 -0.17097070313E+02  0.30344465047E+02  0.51100000000E-03 0. -1.
        -11    1    3    3    0    0  0.23643401190E+01 -0.99559770181E+01 -0.85126146831E+01  0.13310754734E+02  0.51100000000E-03 0.  1.
         12    1    3    3    0    0 -0.34679363558E+01  0.51756269966E+01 -0.29039958665E+01  0.68736372736E+01  0.00000000000E+00 0. -1.
</event>
<event>
 7    1  0.5329250E-013  0.5052889E+02  0.7816164E-02  0.1300439E+00
        -11   -1    0    0    0    0  0.00000000000E+00  0.00000000000E+00  0.45593999997E+02  0.45594000000E+02  0.51100000000E-03 0.  1.
         11   -1    0    0    0    0 -0.00000000000E+00 -0.00000000000E+00 -0.45593999997E+02  0.45594000000E+02  0.51100000000E-03 0. -1.
    9900012    2    1    2    0    0 -0.25858560909E+02  0.19293306285E+02  0.24744020280E+02  0.50528888115E+02  0.30000085914E+02 0.  0.
         12    1    1    2    0    0  0.25858560909E+02 -0.19293306285E+02 -0.24744020280E+02  0.40659111885E+02  0.00000000000E+00 0. -1.
         11    1    3    3    0    0 -0.18531313265E+01  0.57659431655E+01  0.70359044141E+01  0.92835417534E+01  0.51100000000E-03 0. -1.
        -11    1    3    3    0    0 -0.37395335661E+01  0.10436853514E+02 -0.36198705030E+01  0.11662567697E+02  0.51100000000E-03 0.  1.
        -12    1    3    3    0    0 -0.20265896016E+02  0.30905096053E+01  0.21327986369E+02  0.29582778664E+02  0.00000000000E+00 0.  1.
</event>
<event>
 7    1  0.5329250E-013  0.5052887E+02  0.7816164E-02  0.1300439E+00
        -11   -1    0    0    0    0  0.00000000000E+00  0.00000000000E+00  0.45593999997E+02  0.45594000000E+02  0.51100000000E-03 0.  1.
         11   -1    0    0    0    0 -0.00000000000E+00 -0.00000000000E+00 -0.45593999997E+02  0.45594000000E+02  0.51100000000E-03 0. -1.
    9900012    2    1    2    0    0  0.17776310753E+01  0.91615068870E+01  0.39573625953E+02  0.50528867548E+02  0.30000023400E+02 0.  0.
         12    1    1    2    0    0 -0.17776310753E+01 -0.91615068870E+01 -0.39573625953E+02  0.40659132452E+02  0.00000000000E+00 0. -1.
         11    1    3    3    0    0  0.51651545216E+01 -0.45043821711E+00  0.40115218115E+01  0.65554575222E+01  0.51100000000E-03 0. -1.
        -11    1    3    3    0    0 -0.52068493569E+01 -0.68188467783E+01  0.74582887051E+01  0.11368114280E+02  0.51100000000E-03 0.  1.
        -12    1    3    3    0    0  0.18193259106E+01  0.16430791882E+02  0.28103815436E+02  0.32605295746E+02  0.00000000000E+00 0.  1.
</event>
<event>
 7    1  0.5329250E-013  0.5052886E+02  0.7816164E-02  0.1300439E+00
        -11   -1    0    0    0    0  0.00000000000E+00  0.00000000000E+00  0.45593999997E+02  0.45594000000E+02  0.51100000000E-03 0.  1.
         11   -1    0    0    0    0 -0.00000000000E+00 -0.00000000000E+00 -0.45593999997E+02  0.45594000000E+02  0.51100000000E-03 0. -1.
    9900012    2    1    2    0    0  0.11025487424E+02  0.37335479449E+02  0.11733137038E+02  0.50528857075E+02  0.29999991565E+02 0.  0.
         12    1    1    2    0    0 -0.11025487424E+02 -0.37335479449E+02 -0.11733137038E+02  0.40659142925E+02  0.00000000000E+00 0. -1.
         11    1    3    3    0    0  0.12369635569E+02  0.63757797707E+01  0.93446062300E+01  0.16762461563E+02  0.51100000000E-03 0. -1.
        -11    1    3    3    0    0  0.25865399680E+01  0.65521786168E+01 -0.41742447384E+01  0.81881348932E+01  0.51100000000E-03 0.  1.
        -12    1    3    3    0    0 -0.39306881127E+01  0.24407521062E+02  0.65627755464E+01  0.25578260619E+02  0.00000000000E+00 0.  1.
</event>
<event>
 7    1  0.5329250E-013  0.5052887E+02  0.7816164E-02  0.1300439E+00
        -11   -1    0    0    0    0  0.00000000000E+00  0.00000000000E+00  0.45593999997E+02  0.45594000000E+02  0.51100000000E-03 0. -1.
         11   -1    0    0    0    0 -0.00000000000E+00 -0.00000000000E+00 -0.45593999997E+02  0.45594000000E+02  0.51100000000E-03 0.  1.
    9900012    2    1    2    0    0  0.66944862756E+01 -0.37732651414E+02 -0.13586590926E+02  0.50528873322E+02  0.30000040950E+02 0.  0.
         12    1    1    2    0    0 -0.66944862756E+01  0.37732651414E+02  0.13586590926E+02  0.40659126678E+02  0.00000000000E+00 0. -1.
         11    1    3    3    0    0 -0.31069529562E+01 -0.25092478424E+02 -0.34260089255E+01  0.25515155645E+02  0.51100000000E-03 0.  1.
        -11    1    3    3    0    0 -0.27726405741E+01 -0.35215263859E+01 -0.82173060724E+01  0.93601711090E+01  0.51100000000E-03 0. -1.
         12    1    3    3    0    0  0.12574079806E+02 -0.91186466034E+01 -0.19432759284E+01  0.15653546569E+02  0.00000000000E+00 0. -1.
</event>
<event>
 7    1  0.5329250E-013  0.5052887E+02  0.7816164E-02  0.1300439E+00
        -11   -1    0    0    0    0  0.00000000000E+00  0.00000000000E+00  0.45593999997E+02  0.45594000000E+02  0.51100000000E-03 0.  1.
         11   -1    0    0    0    0 -0.00000000000E+00 -0.00000000000E+00 -0.45593999997E+02  0.45594000000E+02  0.51100000000E-03 0. -1.
    9900012    2    1    2    0    0  0.38596845338E+02  0.65964026860E+01  0.10951530637E+02  0.50528867917E+02  0.30000024521E+02 0.  0.
         12    1    1    2    0    0 -0.38596845338E+02 -0.65964026860E+01 -0.10951530637E+02  0.40659132083E+02  0.00000000000E+00 0. -1.
         11    1    3    3    0    0 -0.18720023940E+00  0.40932092356E+01  0.40631134399E+01  0.57704676468E+01  0.51100000000E-03 0.  1.
        -11    1    3    3    0    0  0.36622880653E+01 -0.60384458223E+01 -0.23641542742E+01  0.74474430186E+01  0.51100000000E-03 0. -1.
        -12    1    3    3    0    0  0.35121757512E+02  0.85416392727E+01  0.92525714709E+01  0.37310957252E+02  0.00000000000E+00 0.  1.
</event>
<event>
 7    1  0.5329250E-013  0.5052887E+02  0.7816164E-02  0.1300439E+00
        -11   -1    0    0    0    0  0.00000000000E+00  0.00000000000E+00  0.45593999997E+02  0.45594000000E+02  0.51100000000E-03 0.  1.
         11   -1    0    0    0    0 -0.00000000000E+00 -0.00000000000E+00 -0.45593999997E+02  0.45594000000E+02  0.51100000000E-03 0. -1.
    9900012    2    1    2    0    0  0.19361713859E+01 -0.13476349577E+02  0.38311933955E+02  0.50528867681E+02  0.30000023803E+02 0.  0.
         12    1    1    2    0    0 -0.19361713859E+01  0.13476349577E+02 -0.38311933955E+02  0.40659132319E+02  0.00000000000E+00 0. -1.
         11    1    3    3    0    0 -0.17412171711E+01 -0.15331063814E+02  0.33126897032E+02  0.36544009935E+02  0.51100000000E-03 0. -1.
        -11    1    3    3    0    0  0.23540207484E+01  0.24019735749E+01  0.91610133290E+01  0.97588450245E+01  0.51100000000E-03 0.  1.
         12    1    3    3    0    0  0.13233678086E+01 -0.54725933750E+00 -0.39759764059E+01  0.42260127212E+01  0.00000000000E+00 0. -1.
</event>
<event>
 7    1  0.5329250E-013  0.5052887E+02  0.7816164E-02  0.1300439E+00
        -11   -1    0    0    0    0  0.00000000000E+00  0.00000000000E+00  0.45593999997E+02  0.45594000000E+02  0.51100000000E-03 0. -1.
         11   -1    0    0    0    0 -0.00000000000E+00 -0.00000000000E+00 -0.45593999997E+02  0.45594000000E+02  0.51100000000E-03 0.  1.
    9900012    2    1    2    0    0  0.24393434089E+02 -0.30320653260E+02 -0.11780643451E+02  0.50528865714E+02  0.30000017826E+02 0.  0.
         12    1    1    2    0    0 -0.24393434089E+02  0.30320653260E+02  0.11780643451E+02  0.40659134286E+02  0.00000000000E+00 0. -1.
         11    1    3    3    0    0  0.95378387192E+01 -0.27868886217E+01 -0.43563970187E+01  0.10849668699E+02  0.51100000000E-03 0. -1.
        -11    1    3    3    0    0  0.17721053915E+02 -0.18354156965E+02  0.27724877281E+01  0.25663154877E+02  0.51100000000E-03 0.  1.
         12    1    3    3    0    0 -0.28654585457E+01 -0.91796076727E+01 -0.10196734160E+02  0.14016042139E+02  0.00000000000E+00 0. -1.
</event>
<event>
 7    1  0.5329250E-013  0.5052886E+02  0.7816164E-02  0.1300439E+00
        -11   -1    0    0    0    0  0.00000000000E+00  0.00000000000E+00  0.45593999997E+02  0.45594000000E+02  0.51100000000E-03 0. -1.
         11   -1    0    0    0    0 -0.00000000000E+00 -0.00000000000E+00 -0.45593999997E+02  0.45594000000E+02  0.51100000000E-03 0.  1.
    9900012    2    1    2    0    0  0.31244249782E+02  0.25907510521E+02 -0.24007269121E+01  0.50528859139E+02  0.29999997838E+02 0.  0.
         12    1    1    2    0    0 -0.31244249782E+02 -0.25907510521E+02  0.24007269121E+01  0.40659140861E+02  0.00000000000E+00 0. -1.
         11    1    3    3    0    0 -0.25871699112E+01 -0.79471977336E+00  0.75553005032E+00  0.28099561537E+01  0.51100000000E-03 0. -1.
        -11    1    3    3    0    0 -0.13555442717E+01  0.72968096571E+01 -0.14640411727E+00  0.74230967845E+01  0.51100000000E-03 0.  1.
        -12    1    3    3    0    0  0.35186963965E+02  0.19405420637E+02 -0.30098528452E+01  0.40295806201E+02  0.00000000000E+00 0.  1.
</event>
<event>
 7    1  0.5329250E-013  0.5052886E+02  0.7816164E-02  0.1300439E+00
        -11   -1    0    0    0    0  0.00000000000E+00  0.00000000000E+00  0.45593999997E+02  0.45594000000E+02  0.51100000000E-03 0.  1.
         11   -1    0    0    0    0 -0.00000000000E+00 -0.00000000000E+00 -0.45593999997E+02  0.45594000000E+02  0.51100000000E-03 0. -1.
    9900012    2    1    2    0    0 -0.36983210528E+00  0.24704199709E+02  0.32291353056E+02  0.50528859069E+02  0.29999997628E+02 0.  0.
         12    1    1    2    0    0  0.36983210528E+00 -0.24704199709E+02 -0.32291353056E+02  0.40659140931E+02  0.00000000000E+00 0. -1.
         11    1    3    3    0    0  0.13606144701E+01  0.17277287443E+01  0.99240463531E+01  0.10164792896E+02  0.51100000000E-03 0. -1.
        -11    1    3    3    0    0  0.11204885528E+02  0.11099151502E+02  0.80553471094E+01  0.17709580488E+02  0.51100000000E-03 0.  1.
         12    1    3    3    0    0 -0.12935332103E+02  0.11877319462E+02  0.14311959593E+02  0.22654485685E+02  0.00000000000E+00 0. -1.
</event>
<event>
 7    1  0.5329250E-013  0.5052886E+02  0.7816164E-02  0.1300439E+00
        -11   -1    0    0    0    0  0.00000000000E+00  0.00000000000E+00  0.45593999997E+02  0.45594000000E+02  0.51100000000E-03 0.  1.
         11   -1    0    0    0    0 -0.00000000000E+00 -0.00000000000E+00 -0.45593999997E+02  0.45594000000E+02  0.51100000000E-03 0. -1.
    9900012    2    1    2    0    0  0.50415836137E+01  0.88473909381E+01  0.39363334809E+02  0.50528855653E+02  0.29999987244E+02 0.  0.
         12    1    1    2    0    0 -0.50415836137E+01 -0.88473909381E+01 -0.39363334809E+02  0.40659144347E+02  0.00000000000E+00 0. -1.
         11    1    3    3    0    0 -0.52201911072E+01  0.48922433664E+01  0.25600717656E+01  0.75985793447E+01  0.51100000000E-03 0. -1.
        -11    1    3    3    0    0  0.15896289568E+02  0.26832611701E+01  0.24355329975E+02  0.29207430749E+02  0.51100000000E-03 0.  1.
         12    1    3    3    0    0 -0.56345148466E+01  0.12718864016E+01  0.12447933068E+02  0.13722845559E+02  0.00000000000E+00 0. -1.
</event>
<event>
 7    1  0.5329250E-013  0.5052888E+02  0.7816164E-02  0.1300439E+00
        -11   -1    0    0    0    0  0.00000000000E+00  0.00000000000E+00  0.45593999997E+02  0.45594000000E+02  0.51100000000E-03 0.  1.
         11   -1    0    0    0    0 -0.00000000000E+00 -0.00000000000E+00 -0.45593999997E+02  0.45594000000E+02  0.51100000000E-03 0. -1.
    9900012    2    1    2    0    0  0.15766364849E+02  0.20921511244E+02  0.31094637555E+02  0.50528875834E+02  0.30000048584E+02 0.  0.
         12    1    1    2    0    0 -0.15766364849E+02 -0.20921511244E+02 -0.31094637555E+02  0.40659124166E+02  0.00000000000E+00 0. -1.
         11    1    3    3    0    0 -0.39452564180E+01  0.11507544364E+02  0.11578093351E+02  0.16794072508E+02  0.51100000000E-03 0. -1.
        -11    1    3    3    0    0  0.13004692927E+02  0.10397356194E+02  0.44821144901E+01  0.17242865322E+02  0.51100000000E-03 0.  1.
         12    1    3    3    0    0  0.67069283401E+01 -0.98338931376E+00  0.15034429714E+02  0.16491938004E+02  0.00000000000E+00 0. -1.
</event>
<event>
 7    1  0.5329250E-013  0.5052888E+02  0.7816164E-02  0.1300439E+00
        -11   -1    0    0    0    0  0.00000000000E+00  0.00000000000E+00  0.45593999997E+02  0.45594000000E+02  0.51100000000E-03 0.  1.
         11   -1    0    0    0    0 -0.00000000000E+00 -0.00000000000E+00 -0.45593999997E+02  0.45594000000E+02  0.51100000000E-03 0. -1.
    9900012    2    1    2    0    0 -0.39701986407E+02  0.61818804270E+01 -0.62209860468E+01  0.50528880019E+02  0.30000061305E+02 0.  0.
         12    1    1    2    0    0  0.39701986407E+02 -0.61818804270E+01  0.62209860468E+01  0.40659119981E+02  0.00000000000E+00 0. -1.
         11    1    3    3    0    0 -0.11155049478E+02 -0.40419107674E+01 -0.95620078310E+01  0.15238246800E+02  0.51100000000E-03 0. -1.
        -11    1    3    3    0    0 -0.12808798676E+02  0.67697536027E+01 -0.70560214190E+01  0.16114661830E+02  0.51100000000E-03 0.  1.
        -12    1    3    3    0    0 -0.15738138253E+02  0.34540375917E+01  0.10397043203E+02  0.19175971389E+02  0.00000000000E+00 0.  1.
</event>
<event>
 7    1  0.5329250E-013  0.5052888E+02  0.7816164E-02  0.1300439E+00
        -11   -1    0    0    0    0  0.00000000000E+00  0.00000000000E+00  0.45593999997E+02  0.45594000000E+02  0.51100000000E-03 0.  1.
         11   -1    0    0    0    0 -0.00000000000E+00 -0.00000000000E+00 -0.45593999997E+02  0.45594000000E+02  0.51100000000E-03 0. -1.
    9900012    2    1    2    0    0 -0.14150164165E+02 -0.14976334220E+01  0.38087981750E+02  0.50528875494E+02  0.30000047553E+02 0.  0.
         12    1    1    2    0    0  0.14150164165E+02  0.14976334220E+01 -0.38087981750E+02  0.40659124506E+02  0.00000000000E+00 0. -1.
         11    1    3    3    0    0 -0.22778584320E+01  0.70228550219E+01  0.88564736950E+01  0.11530232360E+02  0.51100000000E-03 0. -1.
        -11    1    3    3    0    0 -0.50231361939E+01  0.47871989782E+01  0.95360044595E+00  0.70041791347E+01  0.51100000000E-03 0.  1.
        -12    1    3    3    0    0 -0.68491695387E+01 -0.13307687422E+02  0.28277907609E+02  0.31994464000E+02  0.00000000000E+00 0.  1.
</event>
<event>
 7    1  0.5329250E-013  0.5052887E+02  0.7816164E-02  0.1300439E+00
        -11   -1    0    0    0    0  0.00000000000E+00  0.00000000000E+00  0.45593999997E+02  0.45594000000E+02  0.51100000000E-03 0.  1.
         11   -1    0    0    0    0 -0.00000000000E+00 -0.00000000000E+00 -0.45593999997E+02  0.45594000000E+02  0.51100000000E-03 0. -1.
    9900012    2    1    2    0    0 -0.15407704644E+02  0.31308353110E+02  0.20869948860E+02  0.50528866927E+02  0.30000021510E+02 0.  0.
         12    1    1    2    0    0  0.15407704644E+02 -0.31308353110E+02 -0.20869948860E+02  0.40659133073E+02  0.00000000000E+00 0. -1.
         11    1    3    3    0    0  0.14678669369E+01 -0.16034484780E+01  0.37785846488E+01  0.43592869343E+01  0.51100000000E-03 0. -1.
        -11    1    3    3    0    0 -0.22255583086E+01  0.10973539346E+02 -0.45125659490E+01  0.12072072203E+02  0.51100000000E-03 0.  1.
        -12    1    3    3    0    0 -0.14650013273E+02  0.21938262242E+02  0.21603930160E+02  0.34097507789E+02  0.00000000000E+00 0.  1.
</event>
<event>
 7    1  0.5329250E-013  0.5052886E+02  0.7816164E-02  0.1300439E+00
        -11   -1    0    0    0    0  0.00000000000E+00  0.00000000000E+00  0.45593999997E+02  0.45594000000E+02  0.51100000000E-03 0.  1.
         11   -1    0    0    0    0 -0.00000000000E+00 -0.00000000000E+00 -0.45593999997E+02  0.45594000000E+02  0.51100000000E-03 0. -1.
    9900012    2    1    2    0    0 -0.18721637691E+02  0.69983026303E+01  0.35407475336E+02  0.50528864898E+02  0.30000015344E+02 0.  0.
         12    1    1    2    0    0  0.18721637691E+02 -0.69983026303E+01 -0.35407475336E+02  0.40659135102E+02  0.00000000000E+00 0. -1.
         11    1    3    3    0    0  0.26138007417E+01  0.12056916137E+02  0.14711827259E+02  0.19199975068E+02  0.51100000000E-03 0. -1.
        -11    1    3    3    0    0 -0.12608850539E+02 -0.43587098454E+01  0.17508848551E+02  0.22012297501E+02  0.51100000000E-03 0.  1.
        -12    1    3    3    0    0 -0.87265878933E+01 -0.69990366142E+00  0.31867995256E+01  0.93165923283E+01  0.00000000000E+00 0.  1.
</event>
<event>
 7    1  0.5329250E-013  0.5052885E+02  0.7816164E-02  0.1300439E+00
        -11   -1    0    0    0    0  0.00000000000E+00  0.00000000000E+00  0.45593999997E+02  0.45594000000E+02  0.51100000000E-03 0.  1.
         11   -1    0    0    0    0 -0.00000000000E+00 -0.00000000000E+00 -0.45593999997E+02  0.45594000000E+02  0.51100000000E-03 0. -1.
    9900012    2    1    2    0    0 -0.44271037743E+01 -0.24905234329E+02  0.31832316686E+02  0.50528851823E+02  0.29999975602E+02 0.  0.
         12    1    1    2    0    0  0.44271037743E+01  0.24905234329E+02 -0.31832316686E+02  0.40659148177E+02  0.00000000000E+00 0. -1.
         11    1    3    3    0    0 -0.87418927657E+01 -0.16273306068E+02  0.53059425448E+01  0.19219630747E+02  0.51100000000E-03 0. -1.
        -11    1    3    3    0    0 -0.45026213596E+01 -0.32318928855E+00  0.69709387239E+01  0.83049405402E+01  0.51100000000E-03 0.  1.
         12    1    3    3    0    0  0.88174103510E+01 -0.83087389734E+01  0.19555435418E+02  0.23004280536E+02  0.00000000000E+00 0. -1.
</event>
<event>
 7    1  0.5329250E-013  0.5052886E+02  0.7816164E-02  0.1300439E+00
        -11   -1    0    0    0    0  0.00000000000E+00  0.00000000000E+00  0.45593999997E+02  0.45594000000E+02  0.51100000000E-03 0. -1.
         11   -1    0    0    0    0 -0.00000000000E+00 -0.00000000000E+00 -0.45593999997E+02  0.45594000000E+02  0.51100000000E-03 0.  1.
    9900012    2    1    2    0    0 -0.20957900892E+02 -0.30981637152E+02 -0.15939583554E+02  0.50528858663E+02  0.29999996392E+02 0.  0.
         12    1    1    2    0    0  0.20957900892E+02  0.30981637152E+02  0.15939583554E+02  0.40659141337E+02  0.00000000000E+00 0. -1.
         11    1    3    3    0    0 -0.18649910923E+02 -0.19641724910E+02  0.17333618202E+01  0.27140764145E+02  0.51100000000E-03 0. -1.
        -11    1    3    3    0    0 -0.29392625481E+01  0.72873158029E+00 -0.21424449921E+01  0.37094992719E+01  0.51100000000E-03 0.  1.
         12    1    3    3    0    0  0.63127257862E+00 -0.12068643821E+02 -0.15530500382E+02  0.19678595246E+02  0.00000000000E+00 0. -1.
</event>
<event>
 7    1  0.5329250E-013  0.5052884E+02  0.7816164E-02  0.1300439E+00
        -11   -1    0    0    0    0  0.00000000000E+00  0.00000000000E+00  0.45593999997E+02  0.45594000000E+02  0.51100000000E-03 0.  1.
         11   -1    0    0    0    0 -0.00000000000E+00 -0.00000000000E+00 -0.45593999997E+02  0.45594000000E+02  0.51100000000E-03 0. -1.
    9900012    2    1    2    0    0  0.24892329571E+02 -0.69383129991E+01  0.31391061310E+02  0.50528843726E+02  0.29999950989E+02 0.  0.
         12    1    1    2    0    0 -0.24892329571E+02  0.69383129991E+01 -0.31391061310E+02  0.40659156274E+02  0.00000000000E+00 0. -1.
         11    1    3    3    0    0  0.89801066785E+01 -0.57207593908E+01  0.76564702099E+01  0.13114531646E+02  0.51100000000E-03 0.  1.
        -11    1    3    3    0    0  0.64543275705E+00 -0.16993193537E+01 -0.47537903587E+01  0.50894786320E+01  0.51100000000E-03 0. -1.
         12    1    3    3    0    0  0.15266790135E+02  0.48176574540E+00  0.28488381459E+02  0.32324833448E+02  0.00000000000E+00 0. -1.
</event>
<event>
 7    1  0.5329250E-013  0.5052885E+02  0.7816164E-02  0.1300439E+00
        -11   -1    0    0    0    0  0.00000000000E+00  0.00000000000E+00  0.45593999997E+02  0.45594000000E+02  0.51100000000E-03 0.  1.
         11   -1    0    0    0    0 -0.00000000000E+00 -0.00000000000E+00 -0.45593999997E+02  0.45594000000E+02  0.51100000000E-03 0. -1.
    9900012    2    1    2    0    0  0.38253268729E+02  0.86491763835E+01  0.10725921699E+02  0.50528853220E+02  0.29999979847E+02 0.  0.
         12    1    1    2    0    0 -0.38253268729E+02 -0.86491763835E+01 -0.10725921699E+02  0.40659146780E+02  0.00000000000E+00 0. -1.
         11    1    3    3    0    0  0.15077465456E+02  0.10030959403E+01 -0.68909135761E+00  0.15126500362E+02  0.51100000000E-03 0. -1.
        -11    1    3    3    0    0  0.25184470948E+01  0.73856874122E+01 -0.47810876228E+01  0.91514891378E+01  0.51100000000E-03 0.  1.
        -12    1    3    3    0    0  0.20657356179E+02  0.26039303100E+00  0.16196100680E+02  0.26250863720E+02  0.00000000000E+00 0.  1.
</event>
<event>
 7    1  0.5329250E-013  0.5052886E+02  0.7816164E-02  0.1300439E+00
        -11   -1    0    0    0    0  0.00000000000E+00  0.00000000000E+00  0.45593999997E+02  0.45594000000E+02  0.51100000000E-03 0.  1.
         11   -1    0    0    0    0 -0.00000000000E+00 -0.00000000000E+00 -0.45593999997E+02  0.45594000000E+02  0.51100000000E-03 0. -1.
    9900012    2    1    2    0    0  0.11958897638E+02  0.36503536760E+02 -0.13328240723E+02  0.50528862903E+02  0.30000009280E+02 0.  0.
         12    1    1    2    0    0 -0.11958897638E+02 -0.36503536760E+02  0.13328240723E+02  0.40659137097E+02  0.00000000000E+00 0. -1.
         11    1    3    3    0    0  0.12437031292E+02  0.19643651389E+02 -0.95550242616E+00  0.23269417105E+02  0.51100000000E-03 0. -1.
        -11    1    3    3    0    0  0.34124947336E+01 -0.26695017624E+01 -0.15961597822E+01  0.46172596069E+01  0.51100000000E-03 0.  1.
         12    1    3    3    0    0 -0.38906283874E+01  0.19529387133E+02 -0.10776578515E+02  0.22642186191E+02  0.00000000000E+00 0. -1.
</event>
<event>
 7    1  0.5329250E-013  0.5052886E+02  0.7816164E-02  0.1300439E+00
        -11   -1    0    0    0    0  0.00000000000E+00  0.00000000000E+00  0.45593999997E+02  0.45594000000E+02  0.51100000000E-03 0.  1.
         11   -1    0    0    0    0 -0.00000000000E+00 -0.00000000000E+00 -0.45593999997E+02  0.45594000000E+02  0.51100000000E-03 0. -1.
    9900012    2    1    2    0    0  0.21593982502E+02  0.30238397732E+02  0.16507725408E+02  0.50528858644E+02  0.29999996334E+02 0.  0.
         12    1    1    2    0    0 -0.21593982502E+02 -0.30238397732E+02 -0.16507725408E+02  0.40659141356E+02  0.00000000000E+00 0. -1.
         11    1    3    3    0    0  0.20090840480E+02  0.17120638091E+02  0.29176074446E+01  0.26556930420E+02  0.51100000000E-03 0. -1.
        -11    1    3    3    0    0  0.10979148412E+01  0.10781999290E+02  0.69424585172E+00  0.10859967921E+02  0.51100000000E-03 0.  1.
         12    1    3    3    0    0  0.40522718031E+00  0.23357603510E+01  0.12895872111E+02  0.13111960303E+02  0.00000000000E+00 0. -1.
</event>
<event>
 7    1  0.5329250E-013  0.5052886E+02  0.7816164E-02  0.1300439E+00
        -11   -1    0    0    0    0  0.00000000000E+00  0.00000000000E+00  0.45593999997E+02  0.45594000000E+02  0.51100000000E-03 0.  1.
         11   -1    0    0    0    0 -0.00000000000E+00 -0.00000000000E+00 -0.45593999997E+02  0.45594000000E+02  0.51100000000E-03 0. -1.
    9900012    2    1    2    0    0 -0.10167935416E+02  0.18553319530E+02  0.34721077774E+02  0.50528858125E+02  0.29999994757E+02 0.  0.
         12    1    1    2    0    0  0.10167935416E+02 -0.18553319530E+02 -0.34721077774E+02  0.40659141875E+02  0.00000000000E+00 0. -1.
         11    1    3    3    0    0 -0.49178818852E+01  0.42655057162E+01  0.25820611076E+02  0.26628632294E+02  0.51100000000E-03 0. -1.
        -11    1    3    3    0    0  0.55090359196E+01  0.21799717960E+01  0.16227410470E+01  0.61428855241E+01  0.51100000000E-03 0.  1.
         12    1    3    3    0    0 -0.10759089450E+02  0.12107842018E+02  0.72777256517E+01  0.17757340307E+02  0.00000000000E+00 0. -1.
</event>
<event>
 7    1  0.5329250E-013  0.5052886E+02  0.7816164E-02  0.1300439E+00
        -11   -1    0    0    0    0  0.00000000000E+00  0.00000000000E+00  0.45593999997E+02  0.45594000000E+02  0.51100000000E-03 0.  1.
         11   -1    0    0    0    0 -0.00000000000E+00 -0.00000000000E+00 -0.45593999997E+02  0.45594000000E+02  0.51100000000E-03 0. -1.
    9900012    2    1    2    0    0  0.48917590255E+01  0.28551576770E+02  0.28531456046E+02  0.50528858020E+02  0.29999994439E+02 0.  0.
         12    1    1    2    0    0 -0.48917590255E+01 -0.28551576770E+02 -0.28531456046E+02  0.40659141980E+02  0.00000000000E+00 0. -1.
         11    1    3    3    0    0  0.25113734470E+01 -0.50092504763E+01 -0.20838931915E+00  0.56074070027E+01  0.51100000000E-03 0. -1.
        -11    1    3    3    0    0 -0.24501672141E+01  0.14915785370E+02  0.10586677519E+02  0.18454314231E+02  0.51100000000E-03 0.  1.
        -12    1    3    3    0    0  0.48305527926E+01  0.18645041876E+02  0.18153167846E+02  0.26467136786E+02  0.00000000000E+00 0.  1.
</event>
<event>
 7    1  0.5329250E-013  0.5052886E+02  0.7816164E-02  0.1300439E+00
        -11   -1    0    0    0    0  0.00000000000E+00  0.00000000000E+00  0.45593999997E+02  0.45594000000E+02  0.51100000000E-03 0.  1.
         11   -1    0    0    0    0 -0.00000000000E+00 -0.00000000000E+00 -0.45593999997E+02  0.45594000000E+02  0.51100000000E-03 0. -1.
    9900012    2    1    2    0    0  0.16479604023E+02  0.37013269121E+02  0.34067899689E+01  0.50528860097E+02  0.30000000752E+02 0.  0.
         12    1    1    2    0    0 -0.16479604023E+02 -0.37013269121E+02 -0.34067899689E+01  0.40659139903E+02  0.00000000000E+00 0. -1.
         11    1    3    3    0    0  0.27190491466E+01  0.17546642272E+02  0.86086701310E+01  0.19732893477E+02  0.51100000000E-03 0. -1.
        -11    1    3    3    0    0  0.25515988696E+01  0.18774215264E+02 -0.48611110814E+01  0.19560475883E+02  0.51100000000E-03 0.  1.
         12    1    3    3    0    0  0.11208956006E+02  0.69241158535E+00 -0.34076908066E+00  0.11235490738E+02  0.00000000000E+00 0. -1.
</event>
<event>
 7    1  0.5329250E-013  0.5052886E+02  0.7816164E-02  0.1300439E+00
        -11   -1    0    0    0    0  0.00000000000E+00  0.00000000000E+00  0.45593999997E+02  0.45594000000E+02  0.51100000000E-03 0.  1.
         11   -1    0    0    0    0 -0.00000000000E+00 -0.00000000000E+00 -0.45593999997E+02  0.45594000000E+02  0.51100000000E-03 0. -1.
    9900012    2    1    2    0    0 -0.21200033761E+02  0.80110708441E+00  0.34685474053E+02  0.50528864319E+02  0.30000013585E+02 0.  0.
         12    1    1    2    0    0  0.21200033761E+02 -0.80110708441E+00 -0.34685474053E+02  0.40659135681E+02  0.00000000000E+00 0. -1.
         11    1    3    3    0    0  0.25522336832E+01 -0.93730212599E+00 -0.50994472994E+00  0.27663108896E+01  0.51100000000E-03 0. -1.
        -11    1    3    3    0    0 -0.11979549672E+02  0.56244961282E+01  0.34416272899E+01  0.13674405497E+02  0.51100000000E-03 0.  1.
        -12    1    3    3    0    0 -0.11772717772E+02 -0.38860869178E+01  0.31753791493E+02  0.34088147932E+02  0.00000000000E+00 0.  1.
</event>
<event>
 7    1  0.5329250E-013  0.5052887E+02  0.7816164E-02  0.1300439E+00
        -11   -1    0    0    0    0  0.00000000000E+00  0.00000000000E+00  0.45593999997E+02  0.45594000000E+02  0.51100000000E-03 0. -1.
         11   -1    0    0    0    0 -0.00000000000E+00 -0.00000000000E+00 -0.45593999997E+02  0.45594000000E+02  0.51100000000E-03 0.  1.
    9900012    2    1    2    0    0  0.38673335967E+02 -0.88493167872E+01 -0.89010053013E+01  0.50528865507E+02  0.30000017194E+02 0.  0.
         12    1    1    2    0    0 -0.38673335967E+02  0.88493167872E+01  0.89010053013E+01  0.40659134493E+02  0.00000000000E+00 0. -1.
         11    1    3    3    0    0  0.31955953311E+02 -0.11287436649E+02 -0.37196815769E+01  0.34094357442E+02  0.51100000000E-03 0. -1.
        -11    1    3    3    0    0  0.20330834854E+01  0.36670262153E+01  0.41637854866E+01  0.59091132636E+01  0.51100000000E-03 0.  1.
        -12    1    3    3    0    0  0.46842991702E+01 -0.12289063537E+01 -0.93451092110E+01  0.10525394801E+02  0.00000000000E+00 0.  1.
</event>
<event>
 7    1  0.5329250E-013  0.5052886E+02  0.7816164E-02  0.1300439E+00
        -11   -1    0    0    0    0  0.00000000000E+00  0.00000000000E+00  0.45593999997E+02  0.45594000000E+02  0.51100000000E-03 0. -1.
         11   -1    0    0    0    0 -0.00000000000E+00 -0.00000000000E+00 -0.45593999997E+02  0.45594000000E+02  0.51100000000E-03 0.  1.
    9900012    2    1    2    0    0 -0.39753508965E+02 -0.58161569440E+01 -0.62447343431E+01  0.50528857564E+02  0.29999993050E+02 0.  0.
         12    1    1    2    0    0  0.39753508965E+02  0.58161569440E+01  0.62447343431E+01  0.40659142436E+02  0.00000000000E+00 0. -1.
         11    1    3    3    0    0 -0.22670373580E+01 -0.49060883708E+01 -0.29078149701E+01  0.61371450729E+01  0.51100000000E-03 0. -1.
        -11    1    3    3    0    0 -0.51546001438E+01 -0.78090757447E+00  0.84912022090E+01  0.99639467330E+01  0.51100000000E-03 0.  1.
        -12    1    3    3    0    0 -0.32331871464E+02 -0.12916099869E+00 -0.11828121582E+02  0.34427765758E+02  0.00000000000E+00 0.  1.
</event>
<event>
 7    1  0.5329250E-013  0.5052886E+02  0.7816164E-02  0.1300439E+00
        -11   -1    0    0    0    0  0.00000000000E+00  0.00000000000E+00  0.45593999997E+02  0.45594000000E+02  0.51100000000E-03 0. -1.
         11   -1    0    0    0    0 -0.00000000000E+00 -0.00000000000E+00 -0.45593999997E+02  0.45594000000E+02  0.51100000000E-03 0.  1.
    9900012    2    1    2    0    0  0.19806302432E+02  0.29109744223E+02 -0.20334671407E+02  0.50528859749E+02  0.29999999692E+02 0.  0.
         12    1    1    2    0    0 -0.19806302432E+02 -0.29109744223E+02  0.20334671407E+02  0.40659140251E+02  0.00000000000E+00 0. -1.
         11    1    3    3    0    0 -0.35665219209E+01  0.40856453266E+01  0.89723329936E+00  0.54970541385E+01  0.51100000000E-03 0. -1.
        -11    1    3    3    0    0  0.94610637983E+01 -0.40109706202E+00 -0.66390037009E+00  0.94928062769E+01  0.51100000000E-03 0.  1.
        -12    1    3    3    0    0  0.13911760554E+02  0.25425195958E+02 -0.20568004336E+02  0.35538999333E+02  0.00000000000E+00 0.  1.
</event>
<event>
 7    1  0.5329250E-013  0.5052888E+02  0.7816164E-02  0.1300439E+00
        -11   -1    0    0    0    0  0.00000000000E+00  0.00000000000E+00  0.45593999997E+02  0.45594000000E+02  0.51100000000E-03 0.  1.
         11   -1    0    0    0    0 -0.00000000000E+00 -0.00000000000E+00 -0.45593999997E+02  0.45594000000E+02  0.51100000000E-03 0. -1.
    9900012    2    1    2    0    0  0.11121623026E+02  0.25620194520E+02  0.29547914022E+02  0.50528879387E+02  0.30000059385E+02 0.  0.
         12    1    1    2    0    0 -0.11121623026E+02 -0.25620194520E+02 -0.29547914022E+02  0.40659120613E+02  0.00000000000E+00 0. -1.
         11    1    3    3    0    0  0.39123867440E+01  0.84404432927E+01  0.19979094017E+02  0.22038875902E+02  0.51100000000E-03 0. -1.
        -11    1    3    3    0    0 -0.26429542291E+01  0.14759415896E+02  0.10495724918E+02  0.18302617476E+02  0.51100000000E-03 0.  1.
         12    1    3    3    0    0  0.98521905110E+01  0.24203353312E+01 -0.92690491346E+00  0.10187386009E+02  0.00000000000E+00 0. -1.
</event>
<event>
 7    1  0.5329250E-013  0.5052886E+02  0.7816164E-02  0.1300439E+00
        -11   -1    0    0    0    0  0.00000000000E+00  0.00000000000E+00  0.45593999997E+02  0.45594000000E+02  0.51100000000E-03 0.  1.
         11   -1    0    0    0    0 -0.00000000000E+00 -0.00000000000E+00 -0.45593999997E+02  0.45594000000E+02  0.51100000000E-03 0. -1.
    9900012    2    1    2    0    0  0.33187548314E+02  0.20240440757E+02  0.11919588104E+02  0.50528863441E+02  0.30000010917E+02 0.  0.
         12    1    1    2    0    0 -0.33187548314E+02 -0.20240440757E+02 -0.11919588104E+02  0.40659136559E+02  0.00000000000E+00 0. -1.
         11    1    3    3    0    0  0.72974600825E+01  0.70994450141E+01 -0.79506533360E+01  0.12917737104E+02  0.51100000000E-03 0. -1.
        -11    1    3    3    0    0  0.15710855659E+02  0.81880579750E+01  0.40765599435E+01  0.18179483496E+02  0.51100000000E-03 0.  1.
         12    1    3    3    0    0  0.10179232572E+02  0.49529377678E+01  0.15793681497E+02  0.19431642841E+02  0.00000000000E+00 0. -1.
</event>
<event>
 7    1  0.5329250E-013  0.5052885E+02  0.7816164E-02  0.1300439E+00
        -11   -1    0    0    0    0  0.00000000000E+00  0.00000000000E+00  0.45593999997E+02  0.45594000000E+02  0.51100000000E-03 0.  1.
         11   -1    0    0    0    0 -0.00000000000E+00 -0.00000000000E+00 -0.45593999997E+02  0.45594000000E+02  0.51100000000E-03 0. -1.
    9900012    2    1    2    0    0  0.38944178764E+02 -0.11105503798E+02  0.36311918314E+01  0.50528845700E+02  0.29999956991E+02 0.  0.
         12    1    1    2    0    0 -0.38944178764E+02  0.11105503798E+02 -0.36311918314E+01  0.40659154300E+02  0.00000000000E+00 0. -1.
         11    1    3    3    0    0  0.36095369340E+01 -0.10371739553E+02 -0.14200589369E+01  0.11073315036E+02  0.51100000000E-03 0. -1.
        -11    1    3    3    0    0  0.16082821825E-01  0.35394017362E+01  0.77535591253E+00  0.36233686481E+01  0.51100000000E-03 0.  1.
        -12    1    3    3    0    0  0.35318559009E+02 -0.42731659807E+01  0.42758948558E+01  0.35832162016E+02  0.00000000000E+00 0.  1.
</event>
<event>
 7    1  0.5329250E-013  0.5052891E+02  0.7816164E-02  0.1300439E+00
        -11   -1    0    0    0    0  0.00000000000E+00  0.00000000000E+00  0.45593999997E+02  0.45594000000E+02  0.51100000000E-03 0. -1.
         11   -1    0    0    0    0 -0.00000000000E+00 -0.00000000000E+00 -0.45593999997E+02  0.45594000000E+02  0.51100000000E-03 0.  1.
    9900012    2    1    2    0    0 -0.36870394657E+02  0.16357130091E+02 -0.51166640777E+01  0.50528905590E+02  0.30000139031E+02 0.  0.
         12    1    1    2    0    0  0.36870394657E+02 -0.16357130091E+02  0.51166640777E+01  0.40659094410E+02  0.00000000000E+00 0. -1.
         11    1    3    3    0    0 -0.72430017486E+01 -0.81346717842E+00  0.67569492188E+01  0.99387708590E+01  0.51100000000E-03 0. -1.
        -11    1    3    3    0    0 -0.10196107779E+01  0.90067546960E+01 -0.26850611079E+01  0.94536125215E+01  0.51100000000E-03 0.  1.
        -12    1    3    3    0    0 -0.28607782130E+02  0.81638425733E+01 -0.91885521886E+01  0.31136522209E+02  0.00000000000E+00 0.  1.
</event>
<event>
 7    1  0.5329250E-013  0.5052887E+02  0.7816164E-02  0.1300439E+00
        -11   -1    0    0    0    0  0.00000000000E+00  0.00000000000E+00  0.45593999997E+02  0.45594000000E+02  0.51100000000E-03 0. -1.
         11   -1    0    0    0    0 -0.00000000000E+00 -0.00000000000E+00 -0.45593999997E+02  0.45594000000E+02  0.51100000000E-03 0.  1.
    9900012    2    1    2    0    0  0.12332953420E+02 -0.17607340379E+02 -0.34511512568E+02  0.50528872181E+02  0.30000037480E+02 0.  0.
         12    1    1    2    0    0 -0.12332953420E+02  0.17607340379E+02  0.34511512568E+02  0.40659127819E+02  0.00000000000E+00 0. -1.
         11    1    3    3    0    0  0.11765617185E+01 -0.68576194923E+01 -0.96405212235E+01  0.11889108137E+02  0.51100000000E-03 0. -1.
        -11    1    3    3    0    0  0.56771017112E+01 -0.18906617943E+02 -0.16289147089E+02  0.25593475712E+02  0.51100000000E-03 0.  1.
         12    1    3    3    0    0  0.54792899902E+01  0.81568970565E+01 -0.85818442560E+01  0.13046288331E+02  0.00000000000E+00 0. -1.
</event>
<event>
 7    1  0.5329250E-013  0.5052886E+02  0.7816164E-02  0.1300439E+00
        -11   -1    0    0    0    0  0.00000000000E+00  0.00000000000E+00  0.45593999997E+02  0.45594000000E+02  0.51100000000E-03 0.  1.
         11   -1    0    0    0    0 -0.00000000000E+00 -0.00000000000E+00 -0.45593999997E+02  0.45594000000E+02  0.51100000000E-03 0. -1.
    9900012    2    1    2    0    0  0.87777137998E+01  0.13358586898E+01  0.39677864955E+02  0.50528859018E+02  0.29999997472E+02 0.  0.
         12    1    1    2    0    0 -0.87777137998E+01 -0.13358586898E+01 -0.39677864955E+02  0.40659140982E+02  0.00000000000E+00 0. -1.
         11    1    3    3    0    0  0.43287650321E+01 -0.79733480938E+01  0.72001545280E+01  0.11582517516E+02  0.51100000000E-03 0. -1.
        -11    1    3    3    0    0  0.51939487176E+01  0.65289083878E+00  0.29191748734E+02  0.29657403193E+02  0.51100000000E-03 0.  1.
         12    1    3    3    0    0 -0.74499994989E+00  0.86563159448E+01  0.32859616926E+01  0.92889383090E+01  0.00000000000E+00 0. -1.
</event>
<event>
 7    1  0.5329250E-013  0.5052889E+02  0.7816164E-02  0.1300439E+00
        -11   -1    0    0    0    0  0.00000000000E+00  0.00000000000E+00  0.45593999997E+02  0.45594000000E+02  0.51100000000E-03 0.  1.
         11   -1    0    0    0    0 -0.00000000000E+00 -0.00000000000E+00 -0.45593999997E+02  0.45594000000E+02  0.51100000000E-03 0. -1.
    9900012    2    1    2    0    0 -0.65384363708E+01  0.27036155310E+02  0.29655663915E+02  0.50528889750E+02  0.30000090883E+02 0.  0.
         12    1    1    2    0    0  0.65384363708E+01 -0.27036155310E+02 -0.29655663915E+02  0.40659110250E+02  0.00000000000E+00 0. -1.
         11    1    3    3    0    0 -0.51347005996E+01  0.35735690941E+01  0.30066457674E+01  0.69408547996E+01  0.51100000000E-03 0.  1.
        -11    1    3    3    0    0 -0.10782857425E+01 -0.48461936179E+01  0.88488813182E+01  0.10146476904E+02  0.51100000000E-03 0. -1.
         12    1    3    3    0    0 -0.32545002870E+00  0.28308779834E+02  0.17800136829E+02  0.33441558046E+02  0.00000000000E+00 0. -1.
</event>
<event>
 7    1  0.5329250E-013  0.5052886E+02  0.7816164E-02  0.1300439E+00
        -11   -1    0    0    0    0  0.00000000000E+00  0.00000000000E+00  0.45593999997E+02  0.45594000000E+02  0.51100000000E-03 0.  1.
         11   -1    0    0    0    0 -0.00000000000E+00 -0.00000000000E+00 -0.45593999997E+02  0.45594000000E+02  0.51100000000E-03 0. -1.
    9900012    2    1    2    0    0 -0.11409817951E+02  0.10325049422E+02  0.37634760146E+02  0.50528858808E+02  0.29999996833E+02 0.  0.
         12    1    1    2    0    0  0.11409817951E+02 -0.10325049422E+02 -0.37634760146E+02  0.40659141192E+02  0.00000000000E+00 0. -1.
         11    1    3    3    0    0 -0.35991790218E+01  0.53438570843E+01 -0.36004179247E+01  0.73806441225E+01  0.51100000000E-03 0. -1.
        -11    1    3    3    0    0  0.15974029277E+01  0.22372641242E+01  0.65090102344E+01  0.70657102521E+01  0.51100000000E-03 0.  1.
        -12    1    3    3    0    0 -0.94080418569E+01  0.27439282139E+01  0.34726167836E+02  0.36082504433E+02  0.00000000000E+00 0.  1.
</event>
<event>
 7    1  0.5329250E-013  0.5052886E+02  0.7816164E-02  0.1300439E+00
        -11   -1    0    0    0    0  0.00000000000E+00  0.00000000000E+00  0.45593999997E+02  0.45594000000E+02  0.51100000000E-03 0.  1.
         11   -1    0    0    0    0 -0.00000000000E+00 -0.00000000000E+00 -0.45593999997E+02  0.45594000000E+02  0.51100000000E-03 0. -1.
    9900012    2    1    2    0    0 -0.37575805652E+02  0.11922195290E+01  0.15485568590E+02  0.50528863360E+02  0.30000010668E+02 0.  0.
         12    1    1    2    0    0  0.37575805652E+02 -0.11922195290E+01 -0.15485568590E+02  0.40659136640E+02  0.00000000000E+00 0. -1.
         11    1    3    3    0    0 -0.13318890410E+02  0.62083255277E+01  0.13005028798E+02  0.19623122124E+02  0.51100000000E-03 0.  1.
        -11    1    3    3    0    0  0.15386676411E+01 -0.46042426459E+01 -0.72540350491E+00  0.49084375271E+01  0.51100000000E-03 0. -1.
         12    1    3    3    0    0 -0.25795582883E+02 -0.41186335283E+00  0.32059432974E+01  0.25997303708E+02  0.00000000000E+00 0. -1.
</event>
<event>
 7    1  0.5329250E-013  0.5052886E+02  0.7816164E-02  0.1300439E+00
        -11   -1    0    0    0    0  0.00000000000E+00  0.00000000000E+00  0.45593999997E+02  0.45594000000E+02  0.51100000000E-03 0.  1.
         11   -1    0    0    0    0 -0.00000000000E+00 -0.00000000000E+00 -0.45593999997E+02  0.45594000000E+02  0.51100000000E-03 0. -1.
    9900012    2    1    2    0    0 -0.19495452655E+02  0.90797502991E+01  0.34505816363E+02  0.50528857085E+02  0.29999991597E+02 0.  0.
         12    1    1    2    0    0  0.19495452655E+02 -0.90797502991E+01 -0.34505816363E+02  0.40659142915E+02  0.00000000000E+00 0. -1.
         11    1    3    3    0    0 -0.32305832782E+01 -0.42890644095E+01  0.11367300490E+02  0.12571724724E+02  0.51100000000E-03 0. -1.
        -11    1    3    3    0    0  0.30320053990E+01  0.43914923875E+01  0.13647759945E+02  0.14653996517E+02  0.51100000000E-03 0.  1.
         12    1    3    3    0    0 -0.19296874775E+02  0.89773223210E+01  0.94907559268E+01  0.23303135845E+02  0.00000000000E+00 0. -1.
</event>
<event>
 7    1  0.5329250E-013  0.5052884E+02  0.7816164E-02  0.1300439E+00
        -11   -1    0    0    0    0  0.00000000000E+00  0.00000000000E+00  0.45593999997E+02  0.45594000000E+02  0.51100000000E-03 0. -1.
         11   -1    0    0    0    0 -0.00000000000E+00 -0.00000000000E+00 -0.45593999997E+02  0.45594000000E+02  0.51100000000E-03 0.  1.
    9900012    2    1    2    0    0 -0.37680221547E+02 -0.12433862988E+02  0.88750972341E+01  0.50528838725E+02  0.29999935789E+02 0.  0.
         12    1    1    2    0    0  0.37680221547E+02  0.12433862988E+02 -0.88750972341E+01  0.40659161275E+02  0.00000000000E+00 0. -1.
         11    1    3    3    0    0 -0.62312893065E+01  0.20945919815E+01  0.13405971260E+02  0.14931053133E+02  0.51100000000E-03 0. -1.
        -11    1    3    3    0    0 -0.13873398207E+02 -0.28598932288E+01 -0.27199798473E+01  0.14423884973E+02  0.51100000000E-03 0.  1.
        -12    1    3    3    0    0 -0.17575534034E+02 -0.11668561741E+02 -0.18108941785E+01  0.21173900619E+02  0.00000000000E+00 0.  1.
</event>
<event>
 7    1  0.5329250E-013  0.5052887E+02  0.7816164E-02  0.1300439E+00
        -11   -1    0    0    0    0  0.00000000000E+00  0.00000000000E+00  0.45593999997E+02  0.45594000000E+02  0.51100000000E-03 0.  1.
         11   -1    0    0    0    0 -0.00000000000E+00 -0.00000000000E+00 -0.45593999997E+02  0.45594000000E+02  0.51100000000E-03 0. -1.
    9900012    2    1    2    0    0 -0.31843554749E+02 -0.22667907839E+02 -0.11194604729E+02  0.50528865726E+02  0.30000017862E+02 0.  0.
         12    1    1    2    0    0  0.31843554749E+02  0.22667907839E+02  0.11194604729E+02  0.40659134274E+02  0.00000000000E+00 0. -1.
         11    1    3    3    0    0 -0.14201715618E+02 -0.20601047606E+02 -0.11366089954E+02  0.27482355978E+02  0.51100000000E-03 0. -1.
        -11    1    3    3    0    0 -0.10295747236E+02 -0.11588062191E+01 -0.71868233012E+01  0.12609348612E+02  0.51100000000E-03 0.  1.
        -12    1    3    3    0    0 -0.73460918953E+01 -0.90805401334E+00  0.73583085263E+01  0.10437161137E+02  0.00000000000E+00 0.  1.
</event>
<event>
 7    1  0.5329250E-013  0.5052887E+02  0.7816164E-02  0.1300439E+00
        -11   -1    0    0    0    0  0.00000000000E+00  0.00000000000E+00  0.45593999997E+02  0.45594000000E+02  0.51100000000E-03 0.  1.
         11   -1    0    0    0    0 -0.00000000000E+00 -0.00000000000E+00 -0.45593999997E+02  0.45594000000E+02  0.51100000000E-03 0. -1.
    9900012    2    1    2    0    0 -0.17426672554E+02  0.34510704781E+02  0.12589184524E+02  0.50528865383E+02  0.30000016819E+02 0.  0.
         12    1    1    2    0    0  0.17426672554E+02 -0.34510704781E+02 -0.12589184524E+02  0.40659134617E+02  0.00000000000E+00 0. -1.
         11    1    3    3    0    0  0.11725702265E+01  0.13912193961E+02 -0.49474662176E+01  0.14812207262E+02  0.51100000000E-03 0. -1.
        -11    1    3    3    0    0 -0.86227621590E+01  0.19152366608E+02  0.11105052535E+02  0.23758942864E+02  0.51100000000E-03 0.  1.
         12    1    3    3    0    0 -0.99764806217E+01  0.14461442122E+01  0.64315982065E+01  0.11957715257E+02  0.00000000000E+00 0. -1.
</event>
<event>
 7    1  0.5329250E-013  0.5052885E+02  0.7816164E-02  0.1300439E+00
        -11   -1    0    0    0    0  0.00000000000E+00  0.00000000000E+00  0.45593999997E+02  0.45594000000E+02  0.51100000000E-03 0.  1.
         11   -1    0    0    0    0 -0.00000000000E+00 -0.00000000000E+00 -0.45593999997E+02  0.45594000000E+02  0.51100000000E-03 0. -1.
    9900012    2    1    2    0    0  0.15965432759E+02 -0.21059429591E+02  0.30899376946E+02  0.50528854491E+02  0.29999983710E+02 0.  0.
         12    1    1    2    0    0 -0.15965432759E+02  0.21059429591E+02 -0.30899376946E+02  0.40659145509E+02  0.00000000000E+00 0. -1.
         11    1    3    3    0    0  0.82790299705E+01 -0.31993249651E+01  0.14176094494E+02  0.16725419960E+02  0.51100000000E-03 0. -1.
        -11    1    3    3    0    0  0.14460177065E+02 -0.93395574083E+01  0.52698526212E+01  0.18002649811E+02  0.51100000000E-03 0.  1.
         12    1    3    3    0    0 -0.67737742762E+01 -0.85205472179E+01  0.11453429831E+02  0.15800784719E+02  0.00000000000E+00 0. -1.
</event>
<event>
 7    1  0.5329250E-013  0.5052886E+02  0.7816164E-02  0.1300439E+00
        -11   -1    0    0    0    0  0.00000000000E+00  0.00000000000E+00  0.45593999997E+02  0.45594000000E+02  0.51100000000E-03 0.  1.
         11   -1    0    0    0    0 -0.00000000000E+00 -0.00000000000E+00 -0.45593999997E+02  0.45594000000E+02  0.51100000000E-03 0. -1.
    9900012    2    1    2    0    0  0.35805997378E+02  0.14896602606E+02  0.12214230786E+02  0.50528860177E+02  0.30000000994E+02 0.  0.
         12    1    1    2    0    0 -0.35805997378E+02 -0.14896602606E+02 -0.12214230786E+02  0.40659139823E+02  0.00000000000E+00 0. -1.
         11    1    3    3    0    0  0.18214502083E+01  0.77456884837E+01 -0.17302345759E+01  0.81429161175E+01  0.51100000000E-03 0. -1.
        -11    1    3    3    0    0 -0.87047426815E+00  0.48368073565E+01  0.30959456059E+01  0.58083827621E+01  0.51100000000E-03 0.  1.
        -12    1    3    3    0    0  0.34855021438E+02  0.23141067658E+01  0.10848519756E+02  0.36577561297E+02  0.00000000000E+00 0.  1.
</event>
<event>
 7    1  0.5329250E-013  0.5052887E+02  0.7816164E-02  0.1300439E+00
        -11   -1    0    0    0    0  0.00000000000E+00  0.00000000000E+00  0.45593999997E+02  0.45594000000E+02  0.51100000000E-03 0.  1.
         11   -1    0    0    0    0 -0.00000000000E+00 -0.00000000000E+00 -0.45593999997E+02  0.45594000000E+02  0.51100000000E-03 0. -1.
    9900012    2    1    2    0    0 -0.82759738101E+01 -0.42747937504E+01  0.39577764070E+02  0.50528868026E+02  0.30000024851E+02 0.  0.
         12    1    1    2    0    0  0.82759738101E+01  0.42747937504E+01 -0.39577764070E+02  0.40659131974E+02  0.00000000000E+00 0. -1.
         11    1    3    3    0    0  0.45687663016E+01 -0.38455345805E+01  0.26637566277E+02  0.27298749040E+02  0.51100000000E-03 0. -1.
        -11    1    3    3    0    0 -0.43344318360E+00  0.46059478937E+01  0.74184482554E+01  0.87427686560E+01  0.51100000000E-03 0.  1.
         12    1    3    3    0    0 -0.12411296928E+02 -0.50352070636E+01  0.55217495375E+01  0.14487350329E+02  0.00000000000E+00 0. -1.
</event>
<event>
 7    1  0.5329250E-013  0.5052885E+02  0.7816164E-02  0.1300439E+00
        -11   -1    0    0    0    0  0.00000000000E+00  0.00000000000E+00  0.45593999997E+02  0.45594000000E+02  0.51100000000E-03 0. -1.
         11   -1    0    0    0    0 -0.00000000000E+00 -0.00000000000E+00 -0.45593999997E+02  0.45594000000E+02  0.51100000000E-03 0.  1.
    9900012    2    1    2    0    0  0.20938893384E+02 -0.41075661445E+01 -0.34610070284E+02  0.50528851941E+02  0.29999975961E+02 0.  0.
         12    1    1    2    0    0 -0.20938893384E+02  0.41075661445E+01  0.34610070284E+02  0.40659148059E+02  0.00000000000E+00 0. -1.
         11    1    3    3    0    0  0.14138823504E+01 -0.36204325112E+01  0.54058112428E+00  0.39241334180E+01  0.51100000000E-03 0.  1.
        -11    1    3    3    0    0  0.16133536372E+02 -0.20954639869E+01 -0.38359255085E+02  0.41666706327E+02  0.51100000000E-03 0. -1.
         12    1    3    3    0    0  0.33914746615E+01  0.16083303536E+01  0.32086036761E+01  0.49380121969E+01  0.00000000000E+00 0. -1.
</event>
<event>
 7    1  0.5329250E-013  0.5052885E+02  0.7816164E-02  0.1300439E+00
        -11   -1    0    0    0    0  0.00000000000E+00  0.00000000000E+00  0.45593999997E+02  0.45594000000E+02  0.51100000000E-03 0. -1.
         11   -1    0    0    0    0 -0.00000000000E+00 -0.00000000000E+00 -0.45593999997E+02  0.45594000000E+02  0.51100000000E-03 0.  1.
    9900012    2    1    2    0    0 -0.10909342722E+01 -0.86569913848E+01 -0.39711869600E+02  0.50528853126E+02  0.29999979562E+02 0.  0.
         12    1    1    2    0    0  0.10909342722E+01  0.86569913848E+01  0.39711869600E+02  0.40659146874E+02  0.00000000000E+00 0. -1.
         11    1    3    3    0    0  0.24808989193E+01  0.30593814282E+01 -0.22508508903E+01  0.45366291630E+01  0.51100000000E-03 0. -1.
        -11    1    3    3    0    0  0.91975450995E+01 -0.44702930953E+01 -0.23940163751E+02  0.26032859945E+02  0.51100000000E-03 0.  1.
        -12    1    3    3    0    0 -0.12769378291E+02 -0.72460797177E+01 -0.13520854958E+02  0.19959364018E+02  0.00000000000E+00 0.  1.
</event>
<event>
 7    1  0.5329250E-013  0.5052886E+02  0.7816164E-02  0.1300439E+00
        -11   -1    0    0    0    0  0.00000000000E+00  0.00000000000E+00  0.45593999997E+02  0.45594000000E+02  0.51100000000E-03 0.  1.
         11   -1    0    0    0    0 -0.00000000000E+00 -0.00000000000E+00 -0.45593999997E+02  0.45594000000E+02  0.51100000000E-03 0. -1.
    9900012    2    1    2    0    0  0.32414844775E+02 -0.37098490453E+01  0.24262737199E+02  0.50528861321E+02  0.30000004472E+02 0.  0.
         12    1    1    2    0    0 -0.32414844775E+02  0.37098490453E+01 -0.24262737199E+02  0.40659138679E+02  0.00000000000E+00 0. -1.
         11    1    3    3    0    0  0.21084091941E+02  0.29148697388E+00  0.28150102487E+02  0.35171752415E+02  0.51100000000E-03 0.  1.
        -11    1    3    3    0    0  0.94387279356E+01  0.90770715411E+00 -0.15828284219E+01  0.96134730142E+01  0.51100000000E-03 0. -1.
        -12    1    3    3    0    0  0.18920248981E+01 -0.49090431732E+01 -0.23045368665E+01  0.57436358921E+01  0.00000000000E+00 0.  1.
</event>
<event>
 7    1  0.5329250E-013  0.5052885E+02  0.7816164E-02  0.1300439E+00
        -11   -1    0    0    0    0  0.00000000000E+00  0.00000000000E+00  0.45593999997E+02  0.45594000000E+02  0.51100000000E-03 0.  1.
         11   -1    0    0    0    0 -0.00000000000E+00 -0.00000000000E+00 -0.45593999997E+02  0.45594000000E+02  0.51100000000E-03 0. -1.
    9900012    2    1    2    0    0 -0.71891935510E+01 -0.83119766733E+01  0.39145791388E+02  0.50528850433E+02  0.29999971376E+02 0.  0.
         12    1    1    2    0    0  0.71891935510E+01  0.83119766733E+01 -0.39145791388E+02  0.40659149567E+02  0.00000000000E+00 0. -1.
         11    1    3    3    0    0  0.29433548450E+01 -0.27770330781E+01 -0.12474742588E+01  0.42345534296E+01  0.51100000000E-03 0. -1.
        -11    1    3    3    0    0 -0.61007869035E+01  0.44607624050E+01  0.44513976971E+01  0.87711426732E+01  0.51100000000E-03 0.  1.
        -12    1    3    3    0    0 -0.40317614925E+01 -0.99957060002E+01  0.35941867950E+02  0.37523154330E+02  0.00000000000E+00 0.  1.
</event>
<event>
 7    1  0.5329250E-013  0.5052887E+02  0.7816164E-02  0.1300439E+00
        -11   -1    0    0    0    0  0.00000000000E+00  0.00000000000E+00  0.45593999997E+02  0.45594000000E+02  0.51100000000E-03 0.  1.
         11   -1    0    0    0    0 -0.00000000000E+00 -0.00000000000E+00 -0.45593999997E+02  0.45594000000E+02  0.51100000000E-03 0. -1.
    9900012    2    1    2    0    0 -0.16269075622E+02 -0.85083283946E+01  0.36277963425E+02  0.50528866906E+02  0.30000021448E+02 0.  0.
         12    1    1    2    0    0  0.16269075622E+02  0.85083283946E+01 -0.36277963425E+02  0.40659133094E+02  0.00000000000E+00 0. -1.
         11    1    3    3    0    0 -0.52603076845E+01 -0.19201566996E+01  0.12901872189E+01  0.57465139004E+01  0.51100000000E-03 0. -1.
        -11    1    3    3    0    0 -0.97968400731E+01  0.78418063960E+01  0.22015813283E+02  0.25341034662E+02  0.51100000000E-03 0.  1.
        -12    1    3    3    0    0 -0.12119278649E+01 -0.14429978091E+02  0.12971962923E+02  0.19441318344E+02  0.00000000000E+00 0.  1.
</event>
<event>
 7    1  0.5329250E-013  0.5052886E+02  0.7816164E-02  0.1300439E+00
        -11   -1    0    0    0    0  0.00000000000E+00  0.00000000000E+00  0.45593999997E+02  0.45594000000E+02  0.51100000000E-03 0.  1.
         11   -1    0    0    0    0 -0.00000000000E+00 -0.00000000000E+00 -0.45593999997E+02  0.45594000000E+02  0.51100000000E-03 0. -1.
    9900012    2    1    2    0    0  0.35198726741E+02  0.18037136634E+02 -0.94274771476E+01  0.50528856041E+02  0.29999988421E+02 0.  0.
         12    1    1    2    0    0 -0.35198726741E+02 -0.18037136634E+02  0.94274771476E+01  0.40659143959E+02  0.00000000000E+00 0. -1.
         11    1    3    3    0    0  0.91975472392E+01  0.45263985052E+01 -0.17251832097E-01  0.10251022219E+02  0.51100000000E-03 0. -1.
        -11    1    3    3    0    0  0.25071548937E+02  0.11772953020E+02  0.28645620599E+01  0.27845838198E+02  0.51100000000E-03 0.  1.
         12    1    3    3    0    0  0.92963056472E+00  0.17377851085E+01 -0.12274787375E+02  0.12431995623E+02  0.00000000000E+00 0. -1.
</event>
<event>
 7    1  0.5329250E-013  0.5052886E+02  0.7816164E-02  0.1300439E+00
        -11   -1    0    0    0    0  0.00000000000E+00  0.00000000000E+00  0.45593999997E+02  0.45594000000E+02  0.51100000000E-03 0.  1.
         11   -1    0    0    0    0 -0.00000000000E+00 -0.00000000000E+00 -0.45593999997E+02  0.45594000000E+02  0.51100000000E-03 0. -1.
    9900012    2    1    2    0    0 -0.39497717810E+02 -0.28943168780E+01  0.92042865368E+01  0.50528859908E+02  0.30000000177E+02 0.  0.
         12    1    1    2    0    0  0.39497717810E+02  0.28943168780E+01 -0.92042865368E+01  0.40659140092E+02  0.00000000000E+00 0. -1.
         11    1    3    3    0    0 -0.57052207933E+00  0.21246734233E+01  0.10597658261E+01  0.24418919849E+01  0.51100000000E-03 0. -1.
        -11    1    3    3    0    0 -0.22095680406E+02 -0.15997980661E+02  0.40470391260E+01  0.27577762849E+02  0.51100000000E-03 0.  1.
        -12    1    3    3    0    0 -0.16831515324E+02  0.10978990359E+02  0.40974815847E+01  0.20509205074E+02  0.00000000000E+00 0.  1.
</event>
<event>
 7    1  0.5329250E-013  0.5052887E+02  0.7816164E-02  0.1300439E+00
        -11   -1    0    0    0    0  0.00000000000E+00  0.00000000000E+00  0.45593999997E+02  0.45594000000E+02  0.51100000000E-03 0. -1.
         11   -1    0    0    0    0 -0.00000000000E+00 -0.00000000000E+00 -0.45593999997E+02  0.45594000000E+02  0.51100000000E-03 0.  1.
    9900012    2    1    2    0    0 -0.14318953325E+01  0.76787035091E+01 -0.39901776189E+02  0.50528873659E+02  0.30000041973E+02 0.  0.
         12    1    1    2    0    0  0.14318953325E+01 -0.76787035091E+01  0.39901776189E+02  0.40659126341E+02  0.00000000000E+00 0. -1.
         11    1    3    3    0    0 -0.12546581826E+02  0.40574498009E+01 -0.13167550630E+02  0.18635020908E+02  0.51100000000E-03 0. -1.
        -11    1    3    3    0    0  0.20571275416E+01 -0.41260168969E+01 -0.35266867126E+01  0.58045937486E+01  0.51100000000E-03 0.  1.
         12    1    3    3    0    0  0.90575589515E+01  0.77472706051E+01 -0.23207538846E+02  0.26089259002E+02  0.00000000000E+00 0. -1.
</event>
<event>
 7    1  0.5329250E-013  0.5052886E+02  0.7816164E-02  0.1300439E+00
        -11   -1    0    0    0    0  0.00000000000E+00  0.00000000000E+00  0.45593999997E+02  0.45594000000E+02  0.51100000000E-03 0.  1.
         11   -1    0    0    0    0 -0.00000000000E+00 -0.00000000000E+00 -0.45593999997E+02  0.45594000000E+02  0.51100000000E-03 0. -1.
    9900012    2    1    2    0    0  0.11665478667E+02  0.26622096406E+02 -0.28431433082E+02  0.50528858387E+02  0.29999995553E+02 0.  0.
         12    1    1    2    0    0 -0.11665478667E+02 -0.26622096406E+02  0.28431433082E+02  0.40659141613E+02  0.00000000000E+00 0. -1.
         11    1    3    3    0    0  0.41210881321E+01 -0.31006466315E+01 -0.40105235108E+01  0.65331214605E+01  0.51100000000E-03 0. -1.
        -11    1    3    3    0    0 -0.41185981073E+00  0.15331247082E+02 -0.98808282696E+00  0.15368574220E+02  0.51100000000E-03 0.  1.
         12    1    3    3    0    0  0.79562503461E+01  0.14391495955E+02 -0.23432826744E+02  0.28627162707E+02  0.00000000000E+00 0. -1.
</event>
<event>
 7    1  0.5329250E-013  0.5052886E+02  0.7816164E-02  0.1300439E+00
        -11   -1    0    0    0    0  0.00000000000E+00  0.00000000000E+00  0.45593999997E+02  0.45594000000E+02  0.51100000000E-03 0.  1.
         11   -1    0    0    0    0 -0.00000000000E+00 -0.00000000000E+00 -0.45593999997E+02  0.45594000000E+02  0.51100000000E-03 0. -1.
    9900012    2    1    2    0    0 -0.21050706181E+01 -0.12508892967E+02  0.38629805953E+02  0.50528860394E+02  0.30000001653E+02 0.  0.
         12    1    1    2    0    0  0.21050706181E+01  0.12508892967E+02 -0.38629805953E+02  0.40659139606E+02  0.00000000000E+00 0. -1.
         11    1    3    3    0    0 -0.31912742512E-01  0.40927834882E+01 -0.27638591161E+01  0.49387055571E+01  0.51100000000E-03 0. -1.
        -11    1    3    3    0    0 -0.56607258347E+00 -0.16448447116E+01  0.15896898191E+02  0.15991789288E+02  0.51100000000E-03 0.  1.
        -12    1    3    3    0    0 -0.15070852921E+01 -0.14956831743E+02  0.25496766879E+02  0.29598365548E+02  0.00000000000E+00 0.  1.
</event>
<event>
 7    1  0.6154719E-013  0.5052884E+02  0.7816164E-02  0.1300439E+00
        -11   -1    0    0    0    0  0.00000000000E+00  0.00000000000E+00  0.45593999997E+02  0.45594000000E+02  0.51100000000E-03 0. -1.
         11   -1    0    0    0    0 -0.00000000000E+00 -0.00000000000E+00 -0.45593999997E+02  0.45594000000E+02  0.51100000000E-03 0.  1.
    9900012    2    1    2    0    0 -0.35514606653E+02 -0.36387245482E+01 -0.19458658234E+02  0.50528843807E+02  0.29999951234E+02 0.  0.
         12    1    1    2    0    0  0.35514606653E+02  0.36387245482E+01  0.19458658234E+02  0.40659156193E+02  0.00000000000E+00 0. -1.
         11    1    3    3    0    0 -0.18253054094E+02 -0.27808914517E+01 -0.15824798020E+01  0.18531367559E+02  0.51100000000E-03 0. -1.
        -11    1    3    3    0    0 -0.19176136845E+02  0.43672060211E+01 -0.17653793966E+02  0.26428264309E+02  0.51100000000E-03 0.  1.
         12    1    3    3    0    0  0.19145842857E+01 -0.52250391177E+01 -0.22238446672E+00  0.55692119388E+01  0.00000000000E+00 0. -1.
</event>
<event>
 7    1  0.5329250E-013  0.5052885E+02  0.7816164E-02  0.1300439E+00
        -11   -1    0    0    0    0  0.00000000000E+00  0.00000000000E+00  0.45593999997E+02  0.45594000000E+02  0.51100000000E-03 0.  1.
         11   -1    0    0    0    0 -0.00000000000E+00 -0.00000000000E+00 -0.45593999997E+02  0.45594000000E+02  0.51100000000E-03 0. -1.
    9900012    2    1    2    0    0 -0.19712568385E+02  0.25389302975E+02  0.24899088646E+02  0.50528847608E+02  0.29999962789E+02 0.  0.
         12    1    1    2    0    0  0.19712568385E+02 -0.25389302975E+02 -0.24899088646E+02  0.40659152392E+02  0.00000000000E+00 0. -1.
         11    1    3    3    0    0 -0.59267745993E+01  0.54678257627E+00  0.63383518220E+01  0.86948451635E+01  0.51100000000E-03 0. -1.
        -11    1    3    3    0    0 -0.18598524590E+02  0.88694303333E+01  0.12410985103E+02  0.24054198445E+02  0.51100000000E-03 0.  1.
        -12    1    3    3    0    0  0.48127308048E+01  0.15973090065E+02  0.61497517206E+01  0.17779803999E+02  0.00000000000E+00 0.  1.
</event>
<event>
 7    1  0.5329250E-013  0.5052884E+02  0.7816164E-02  0.1300439E+00
        -11   -1    0    0    0    0  0.00000000000E+00  0.00000000000E+00  0.45593999997E+02  0.45594000000E+02  0.51100000000E-03 0. -1.
         11   -1    0    0    0    0 -0.00000000000E+00 -0.00000000000E+00 -0.45593999997E+02  0.45594000000E+02  0.51100000000E-03 0.  1.
    9900012    2    1    2    0    0 -0.11219453533E+02 -0.38870174282E+02  0.40498172135E+01  0.50528836140E+02  0.29999927932E+02 0.  0.
         12    1    1    2    0    0  0.11219453533E+02  0.38870174282E+02 -0.40498172135E+01  0.40659163860E+02  0.00000000000E+00 0. -1.
         11    1    3    3    0    0 -0.13923616418E+02 -0.25351151302E+02  0.12771214435E+02  0.31617271939E+02  0.51100000000E-03 0. -1.
        -11    1    3    3    0    0 -0.21017933970E+01  0.32423979208E+00 -0.11202884057E+01  0.24036874379E+01  0.51100000000E-03 0.  1.
        -12    1    3    3    0    0  0.48059562823E+01 -0.13843262773E+02 -0.76011088162E+01  0.16507876763E+02  0.00000000000E+00 0.  1.
</event>
<event>
 7    1  0.5329250E-013  0.5052886E+02  0.7816164E-02  0.1300439E+00
        -11   -1    0    0    0    0  0.00000000000E+00  0.00000000000E+00  0.45593999997E+02  0.45594000000E+02  0.51100000000E-03 0.  1.
         11   -1    0    0    0    0 -0.00000000000E+00 -0.00000000000E+00 -0.45593999997E+02  0.45594000000E+02  0.51100000000E-03 0. -1.
    9900012    2    1    2    0    0  0.19690497076E+02 -0.75436543304E+01  0.34764104331E+02  0.50528863933E+02  0.30000012411E+02 0.  0.
         12    1    1    2    0    0 -0.19690497076E+02  0.75436543304E+01 -0.34764104331E+02  0.40659136067E+02  0.00000000000E+00 0. -1.
         11    1    3    3    0    0 -0.82069352272E+00 -0.84118733713E+01  0.41946657530E+01  0.94354847524E+01  0.51100000000E-03 0. -1.
        -11    1    3    3    0    0  0.77268458156E+01 -0.21602908176E+01  0.22440738767E+00  0.80262918967E+01  0.51100000000E-03 0.  1.
        -12    1    3    3    0    0  0.12784344784E+02  0.30285098585E+01  0.30345031190E+02  0.33067087284E+02  0.00000000000E+00 0.  1.
</event>
<event>
 7    1  0.5329250E-013  0.5052886E+02  0.7816164E-02  0.1300439E+00
        -11   -1    0    0    0    0  0.00000000000E+00  0.00000000000E+00  0.45593999997E+02  0.45594000000E+02  0.51100000000E-03 0. -1.
         11   -1    0    0    0    0 -0.00000000000E+00 -0.00000000000E+00 -0.45593999997E+02  0.45594000000E+02  0.51100000000E-03 0.  1.
    9900012    2    1    2    0    0  0.31625015055E+02  0.89295733104E+01 -0.23943406260E+02  0.50528861297E+02  0.30000004398E+02 0.  0.
         12    1    1    2    0    0 -0.31625015055E+02 -0.89295733104E+01  0.23943406260E+02  0.40659138703E+02  0.00000000000E+00 0. -1.
         11    1    3    3    0    0  0.44044400371E+01  0.11740220847E+02 -0.49680185711E+01  0.13487515945E+02  0.51100000000E-03 0. -1.
        -11    1    3    3    0    0  0.35305581008E+01  0.56448861293E+01 -0.39444453313E+01  0.77387485519E+01  0.51100000000E-03 0.  1.
        -12    1    3    3    0    0  0.23690016917E+02 -0.84555336656E+01 -0.15030942358E+02  0.29302596801E+02  0.00000000000E+00 0.  1.
</event>
<event>
 7    1  0.5329250E-013  0.5052888E+02  0.7816164E-02  0.1300439E+00
        -11   -1    0    0    0    0  0.00000000000E+00  0.00000000000E+00  0.45593999997E+02  0.45594000000E+02  0.51100000000E-03 0.  1.
         11   -1    0    0    0    0 -0.00000000000E+00 -0.00000000000E+00 -0.45593999997E+02  0.45594000000E+02  0.51100000000E-03 0. -1.
    9900012    2    1    2    0    0  0.17132296285E+02  0.91600440793E+01  0.35717531853E+02  0.50528879680E+02  0.30000060275E+02 0.  0.
         12    1    1    2    0    0 -0.17132296285E+02 -0.91600440793E+01 -0.35717531853E+02  0.40659120320E+02  0.00000000000E+00 0. -1.
         11    1    3    3    0    0  0.48287325350E+01  0.38339715398E+01 -0.21113027361E-01  0.61657474554E+01  0.51100000000E-03 0. -1.
        -11    1    3    3    0    0  0.72640496162E+01 -0.80184802377E+01  0.90660346999E+01  0.14115786467E+02  0.51100000000E-03 0.  1.
        -12    1    3    3    0    0  0.50395141342E+01  0.13344552777E+02  0.26672610180E+02  0.30247345757E+02  0.00000000000E+00 0.  1.
</event>
<event>
 7    1  0.5329250E-013  0.5052885E+02  0.7816164E-02  0.1300439E+00
        -11   -1    0    0    0    0  0.00000000000E+00  0.00000000000E+00  0.45593999997E+02  0.45594000000E+02  0.51100000000E-03 0.  1.
         11   -1    0    0    0    0 -0.00000000000E+00 -0.00000000000E+00 -0.45593999997E+02  0.45594000000E+02  0.51100000000E-03 0. -1.
    9900012    2    1    2    0    0  0.53501096797E+01  0.21231493817E+02  0.34260277927E+02  0.50528847932E+02  0.29999963774E+02 0.  0.
         12    1    1    2    0    0 -0.53501096797E+01 -0.21231493817E+02 -0.34260277927E+02  0.40659152068E+02  0.00000000000E+00 0. -1.
         11    1    3    3    0    0  0.18801059248E+01  0.68288268033E+00  0.16323495954E+01  0.25818002452E+01  0.51100000000E-03 0. -1.
        -11    1    3    3    0    0 -0.28182955310E+01 -0.36965329465E+01  0.18738450186E+02  0.19306389128E+02  0.51100000000E-03 0.  1.
        -12    1    3    3    0    0  0.62882992858E+01  0.24245144083E+02  0.13889478145E+02  0.28640658558E+02  0.00000000000E+00 0.  1.
</event>
<event>
 7    1  0.5329250E-013  0.5052887E+02  0.7816164E-02  0.1300439E+00
        -11   -1    0    0    0    0  0.00000000000E+00  0.00000000000E+00  0.45593999997E+02  0.45594000000E+02  0.51100000000E-03 0. -1.
         11   -1    0    0    0    0 -0.00000000000E+00 -0.00000000000E+00 -0.45593999997E+02  0.45594000000E+02  0.51100000000E-03 0.  1.
    9900012    2    1    2    0    0 -0.28189689930E+02  0.26624151319E+02 -0.12233604489E+02  0.50528866578E+02  0.30000020452E+02 0.  0.
         12    1    1    2    0    0  0.28189689930E+02 -0.26624151319E+02  0.12233604489E+02  0.40659133422E+02  0.00000000000E+00 0. -1.
         11    1    3    3    0    0 -0.33039513087E+01  0.78714489328E+01 -0.13217296858E+02  0.15734444352E+02  0.51100000000E-03 0.  1.
        -11    1    3    3    0    0 -0.33896736396E-01  0.19599903448E+01  0.41941102310E+01  0.46296081942E+01  0.51100000000E-03 0. -1.
        -12    1    3    3    0    0 -0.24851841885E+02  0.16792712041E+02 -0.32104178621E+01  0.30164814033E+02  0.00000000000E+00 0.  1.
</event>
<event>
 7    1  0.5329250E-013  0.5052886E+02  0.7816164E-02  0.1300439E+00
        -11   -1    0    0    0    0  0.00000000000E+00  0.00000000000E+00  0.45593999997E+02  0.45594000000E+02  0.51100000000E-03 0.  1.
         11   -1    0    0    0    0 -0.00000000000E+00 -0.00000000000E+00 -0.45593999997E+02  0.45594000000E+02  0.51100000000E-03 0. -1.
    9900012    2    1    2    0    0 -0.24159428607E+02  0.11679022483E+02  0.30546496358E+02  0.50528855930E+02  0.29999988084E+02 0.  0.
         12    1    1    2    0    0  0.24159428607E+02 -0.11679022483E+02 -0.30546496358E+02  0.40659144070E+02  0.00000000000E+00 0. -1.
         11    1    3    3    0    0 -0.35875372816E+01 -0.74500773755E+01  0.11125213013E+02  0.13861617564E+02  0.51100000000E-03 0. -1.
        -11    1    3    3    0    0 -0.47557550215E+01  0.54811375092E+01 -0.11512917945E+01  0.73474857792E+01  0.51100000000E-03 0.  1.
        -12    1    3    3    0    0 -0.15816136304E+02  0.13647962349E+02  0.20572575140E+02  0.29319752586E+02  0.00000000000E+00 0.  1.
</event>
<event>
 7    1  0.5329250E-013  0.5052886E+02  0.7816164E-02  0.1300439E+00
        -11   -1    0    0    0    0  0.00000000000E+00  0.00000000000E+00  0.45593999997E+02  0.45594000000E+02  0.51100000000E-03 0. -1.
         11   -1    0    0    0    0 -0.00000000000E+00 -0.00000000000E+00 -0.45593999997E+02  0.45594000000E+02  0.51100000000E-03 0.  1.
    9900012    2    1    2    0    0  0.26427477964E+02  0.10540822932E+02 -0.29045563330E+02  0.50528864633E+02  0.30000014538E+02 0.  0.
         12    1    1    2    0    0 -0.26427477964E+02 -0.10540822932E+02  0.29045563330E+02  0.40659135367E+02  0.00000000000E+00 0. -1.
         11    1    3    3    0    0 -0.30373162405E+01  0.14627487224E+01 -0.10576889659E+02  0.11101149440E+02  0.51100000000E-03 0. -1.
        -11    1    3    3    0    0  0.15512740447E+02  0.78979082066E+01 -0.18532236100E+02  0.25425692623E+02  0.51100000000E-03 0.  1.
         12    1    3    3    0    0  0.13952053758E+02  0.11801660035E+01  0.63562429662E-01  0.14002022570E+02  0.00000000000E+00 0. -1.
</event>
<event>
 7    1  0.5329250E-013  0.5052885E+02  0.7816164E-02  0.1300439E+00
        -11   -1    0    0    0    0  0.00000000000E+00  0.00000000000E+00  0.45593999997E+02  0.45594000000E+02  0.51100000000E-03 0.  1.
         11   -1    0    0    0    0 -0.00000000000E+00 -0.00000000000E+00 -0.45593999997E+02  0.45594000000E+02  0.51100000000E-03 0. -1.
    9900012    2    1    2    0    0  0.20315701530E+02  0.34015400324E+02 -0.91318780176E+01  0.50528851165E+02  0.29999973602E+02 0.  0.
         12    1    1    2    0    0 -0.20315701530E+02 -0.34015400324E+02  0.91318780176E+01  0.40659148835E+02  0.00000000000E+00 0. -1.
         11    1    3    3    0    0  0.11229308320E+02  0.12775459514E+02 -0.66301120845E+01  0.18255632491E+02  0.51100000000E-03 0. -1.
        -11    1    3    3    0    0  0.17447331239E+01  0.23907739179E+02 -0.40468958236E+01  0.24310521434E+02  0.51100000000E-03 0.  1.
         12    1    3    3    0    0  0.73416600865E+01 -0.26677983694E+01  0.15451298905E+01  0.79626972406E+01  0.00000000000E+00 0. -1.
</event>
<event>
 7    1  0.5329250E-013  0.5052886E+02  0.7816164E-02  0.1300439E+00
        -11   -1    0    0    0    0  0.00000000000E+00  0.00000000000E+00  0.45593999997E+02  0.45594000000E+02  0.51100000000E-03 0. -1.
         11   -1    0    0    0    0 -0.00000000000E+00 -0.00000000000E+00 -0.45593999997E+02  0.45594000000E+02  0.51100000000E-03 0.  1.
    9900012    2    1    2    0    0  0.11306663782E+02  0.52894367204E+00 -0.39051825665E+02  0.50528861850E+02  0.30000006080E+02 0.  0.
         12    1    1    2    0    0 -0.11306663782E+02 -0.52894367204E+00  0.39051825665E+02  0.40659138150E+02  0.00000000000E+00 0. -1.
         11    1    3    3    0    0  0.10448178927E+02  0.34321874740E+01 -0.94396893523E+01  0.14493173879E+02  0.51100000000E-03 0. -1.
        -11    1    3    3    0    0  0.78058043755E+01 -0.92203005558E+00 -0.27362759329E+02  0.28469304870E+02  0.51100000000E-03 0.  1.
        -12    1    3    3    0    0 -0.69473195208E+01 -0.19812137464E+01 -0.22493769836E+01  0.75663831021E+01  0.00000000000E+00 0.  1.
</event>
<event>
 7    1  0.5329250E-013  0.5052885E+02  0.7816164E-02  0.1300439E+00
        -11   -1    0    0    0    0  0.00000000000E+00  0.00000000000E+00  0.45593999997E+02  0.45594000000E+02  0.51100000000E-03 0.  1.
         11   -1    0    0    0    0 -0.00000000000E+00 -0.00000000000E+00 -0.45593999997E+02  0.45594000000E+02  0.51100000000E-03 0. -1.
    9900012    2    1    2    0    0 -0.35465432882E+02 -0.19694498059E+02  0.27378931666E+01  0.50528852908E+02  0.29999978899E+02 0.  0.
         12    1    1    2    0    0  0.35465432882E+02  0.19694498059E+02 -0.27378931666E+01  0.40659147092E+02  0.00000000000E+00 0. -1.
         11    1    3    3    0    0 -0.76675199831E+01 -0.13492867249E+02 -0.46056284086E+01  0.16188271761E+02  0.51100000000E-03 0. -1.
        -11    1    3    3    0    0 -0.17235603443E+02 -0.32841271068E+01 -0.45931404166E+01  0.18136936236E+02  0.51100000000E-03 0.  1.
         12    1    3    3    0    0 -0.10562309456E+02 -0.29175037025E+01  0.11936661992E+02  0.16203644911E+02  0.00000000000E+00 0. -1.
</event>
<event>
 7    1  0.5329250E-013  0.5052884E+02  0.7816164E-02  0.1300439E+00
        -11   -1    0    0    0    0  0.00000000000E+00  0.00000000000E+00  0.45593999997E+02  0.45594000000E+02  0.51100000000E-03 0.  1.
         11   -1    0    0    0    0 -0.00000000000E+00 -0.00000000000E+00 -0.45593999997E+02  0.45594000000E+02  0.51100000000E-03 0. -1.
    9900012    2    1    2    0    0 -0.16585005613E+02 -0.23592608464E+02  0.28661710562E+02  0.50528840667E+02  0.29999941692E+02 0.  0.
         12    1    1    2    0    0  0.16585005613E+02  0.23592608464E+02 -0.28661710562E+02  0.40659159333E+02  0.00000000000E+00 0. -1.
         11    1    3    3    0    0  0.32293565762E+01 -0.47166095575E+01 -0.34426412209E+01  0.66728500996E+01  0.51100000000E-03 0. -1.
        -11    1    3    3    0    0 -0.41663853658E+01 -0.91559629328E+00  0.11828775309E+02  0.12574458603E+02  0.51100000000E-03 0.  1.
        -12    1    3    3    0    0 -0.15647976823E+02 -0.17960402613E+02  0.20275576474E+02  0.31281531964E+02  0.00000000000E+00 0.  1.
</event>
<event>
 7    1  0.5329250E-013  0.5052883E+02  0.7816164E-02  0.1300439E+00
        -11   -1    0    0    0    0  0.00000000000E+00  0.00000000000E+00  0.45593999997E+02  0.45594000000E+02  0.51100000000E-03 0. -1.
         11   -1    0    0    0    0 -0.00000000000E+00 -0.00000000000E+00 -0.45593999997E+02  0.45594000000E+02  0.51100000000E-03 0.  1.
    9900012    2    1    2    0    0  0.39378001719E+02 -0.54263747277E+01  0.85495906264E+01  0.50528830530E+02  0.29999910879E+02 0.  0.
         12    1    1    2    0    0 -0.39378001719E+02  0.54263747277E+01 -0.85495906264E+01  0.40659169470E+02  0.00000000000E+00 0. -1.
         11    1    3    3    0    0  0.49444602602E+01  0.25648431881E+01  0.26709631077E+01  0.61773903898E+01  0.51100000000E-03 0. -1.
        -11    1    3    3    0    0  0.61316726803E+01 -0.32191119846E+01  0.13044663017E+02  0.14768998792E+02  0.51100000000E-03 0.  1.
        -12    1    3    3    0    0  0.28301868779E+02 -0.47721059312E+01 -0.71660354979E+01  0.29582441349E+02  0.00000000000E+00 0.  1.
</event>
<event>
 7    1  0.5329250E-013  0.5052885E+02  0.7816164E-02  0.1300439E+00
        -11   -1    0    0    0    0  0.00000000000E+00  0.00000000000E+00  0.45593999997E+02  0.45594000000E+02  0.51100000000E-03 0. -1.
         11   -1    0    0    0    0 -0.00000000000E+00 -0.00000000000E+00 -0.45593999997E+02  0.45594000000E+02  0.51100000000E-03 0.  1.
    9900012    2    1    2    0    0 -0.60545854819E+01 -0.28580659064E+02 -0.28278158547E+02  0.50528851845E+02  0.29999975667E+02 0.  0.
         12    1    1    2    0    0  0.60545854819E+01  0.28580659064E+02  0.28278158547E+02  0.40659148155E+02  0.00000000000E+00 0. -1.
         11    1    3    3    0    0 -0.74015923680E+01 -0.82107735796E+00  0.19253428960E+01  0.76918582370E+01  0.51100000000E-03 0. -1.
        -11    1    3    3    0    0 -0.23579065507E+01 -0.18538043188E+02 -0.12336569599E+02  0.22392179846E+02  0.51100000000E-03 0.  1.
        -12    1    3    3    0    0  0.37049134368E+01 -0.92215385187E+01 -0.17866931844E+02  0.20444813761E+02  0.00000000000E+00 0.  1.
</event>
<event>
 7    1  0.5329250E-013  0.5052886E+02  0.7816164E-02  0.1300439E+00
        -11   -1    0    0    0    0  0.00000000000E+00  0.00000000000E+00  0.45593999997E+02  0.45594000000E+02  0.51100000000E-03 0.  1.
         11   -1    0    0    0    0 -0.00000000000E+00 -0.00000000000E+00 -0.45593999997E+02  0.45594000000E+02  0.51100000000E-03 0. -1.
    9900012    2    1    2    0    0  0.25110811496E+02  0.21735735069E+02  0.23455714789E+02  0.50528860938E+02  0.30000003307E+02 0.  0.
         12    1    1    2    0    0 -0.25110811496E+02 -0.21735735069E+02 -0.23455714789E+02  0.40659139062E+02  0.00000000000E+00 0. -1.
         11    1    3    3    0    0  0.84533344810E+01 -0.18277956468E+01 -0.20358084756E+01  0.88850558346E+01  0.51100000000E-03 0.  1.
        -11    1    3    3    0    0  0.56469109711E+01  0.16234282850E+02  0.62392773176E+01  0.18285735558E+02  0.51100000000E-03 0. -1.
         12    1    3    3    0    0  0.11010566044E+02  0.73292478658E+01  0.19252245947E+02  0.23358069546E+02  0.00000000000E+00 0. -1.
</event>
<event>
 7    1  0.5329250E-013  0.5052898E+02  0.7816164E-02  0.1300438E+00
        -11   -1    0    0    0    0  0.00000000000E+00  0.00000000000E+00  0.45593999997E+02  0.45594000000E+02  0.51100000000E-03 0.  1.
         11   -1    0    0    0    0 -0.00000000000E+00 -0.00000000000E+00 -0.45593999997E+02  0.45594000000E+02  0.51100000000E-03 0. -1.
    9900012    2    1    2    0    0  0.33380413538E+02  0.68842163438E+01  0.22170056673E+02  0.50528980637E+02  0.30000367143E+02 0.  0.
         12    1    1    2    0    0 -0.33380413538E+02 -0.68842163438E+01 -0.22170056673E+02  0.40659019363E+02  0.00000000000E+00 0. -1.
         11    1    3    3    0    0  0.43578248692E+01 -0.57886014306E+01  0.13116891388E+01  0.73633601549E+01  0.51100000000E-03 0. -1.
        -11    1    3    3    0    0  0.88401134348E+01 -0.22218634666E+01  0.14766058546E+02  0.17352831701E+02  0.51100000000E-03 0.  1.
        -12    1    3    3    0    0  0.20182475234E+02  0.14894681241E+02  0.60923089878E+01  0.25812788781E+02  0.00000000000E+00 0.  1.
</event>
<event>
 7    1  0.5329250E-013  0.5052886E+02  0.7816164E-02  0.1300439E+00
        -11   -1    0    0    0    0  0.00000000000E+00  0.00000000000E+00  0.45593999997E+02  0.45594000000E+02  0.51100000000E-03 0.  1.
         11   -1    0    0    0    0 -0.00000000000E+00 -0.00000000000E+00 -0.45593999997E+02  0.45594000000E+02  0.51100000000E-03 0. -1.
    9900012    2    1    2    0    0 -0.33955409031E+02 -0.23385172974E+01  0.22242469120E+02  0.50528857139E+02  0.29999991760E+02 0.  0.
         12    1    1    2    0    0  0.33955409031E+02  0.23385172974E+01 -0.22242469120E+02  0.40659142861E+02  0.00000000000E+00 0. -1.
         11    1    3    3    0    0 -0.50119749376E+01 -0.89603405557E+01  0.11434706098E+02  0.15367501406E+02  0.51100000000E-03 0. -1.
        -11    1    3    3    0    0 -0.19670356316E+01  0.56011108001E+01  0.44713037345E+01  0.74319734068E+01  0.51100000000E-03 0.  1.
        -12    1    3    3    0    0 -0.26976398462E+02  0.10207124582E+01  0.63364592872E+01  0.27729382327E+02  0.00000000000E+00 0.  1.
</event>
<event>
 7    1  0.5329250E-013  0.5052886E+02  0.7816164E-02  0.1300439E+00
        -11   -1    0    0    0    0  0.00000000000E+00  0.00000000000E+00  0.45593999997E+02  0.45594000000E+02  0.51100000000E-03 0. -1.
         11   -1    0    0    0    0 -0.00000000000E+00 -0.00000000000E+00 -0.45593999997E+02  0.45594000000E+02  0.51100000000E-03 0.  1.
    9900012    2    1    2    0    0 -0.20360869246E+02 -0.15896157849E+02 -0.31399249301E+02  0.50528859731E+02  0.29999999637E+02 0.  0.
         12    1    1    2    0    0  0.20360869246E+02  0.15896157849E+02  0.31399249301E+02  0.40659140269E+02  0.00000000000E+00 0. -1.
         11    1    3    3    0    0 -0.13104311969E+01 -0.40578437649E+01 -0.14677968536E+02  0.15284831911E+02  0.51100000000E-03 0. -1.
        -11    1    3    3    0    0  0.45348083069E+01 -0.39111994641E+01 -0.19010912844E+01  0.62830021456E+01  0.51100000000E-03 0.  1.
        -12    1    3    3    0    0 -0.23585246355E+02 -0.79271146200E+01 -0.14820189480E+02  0.28961025674E+02  0.00000000000E+00 0.  1.
</event>
<event>
 7    1  0.5329250E-013  0.5052885E+02  0.7816164E-02  0.1300439E+00
        -11   -1    0    0    0    0  0.00000000000E+00  0.00000000000E+00  0.45593999997E+02  0.45594000000E+02  0.51100000000E-03 0. -1.
         11   -1    0    0    0    0 -0.00000000000E+00 -0.00000000000E+00 -0.45593999997E+02  0.45594000000E+02  0.51100000000E-03 0.  1.
    9900012    2    1    2    0    0 -0.29366561300E+02 -0.27944467011E+02 -0.31429366667E+01  0.50528853305E+02  0.29999980105E+02 0.  0.
         12    1    1    2    0    0  0.29366561300E+02  0.27944467011E+02  0.31429366667E+01  0.40659146695E+02  0.00000000000E+00 0. -1.
         11    1    3    3    0    0 -0.10491173283E+02 -0.25136818172E+01  0.47333413508E+01  0.11780824833E+02  0.51100000000E-03 0.  1.
        -11    1    3    3    0    0 -0.19051080264E+01  0.31980473182E+01 -0.36268336992E+01  0.51971979167E+01  0.51100000000E-03 0. -1.
        -12    1    3    3    0    0 -0.16970279990E+02 -0.28628832512E+02 -0.42494443182E+01  0.33550830555E+02  0.00000000000E+00 0.  1.
</event>
<event>
 7    1  0.5329250E-013  0.5052884E+02  0.7816164E-02  0.1300439E+00
        -11   -1    0    0    0    0  0.00000000000E+00  0.00000000000E+00  0.45593999997E+02  0.45594000000E+02  0.51100000000E-03 0. -1.
         11   -1    0    0    0    0 -0.00000000000E+00 -0.00000000000E+00 -0.45593999997E+02  0.45594000000E+02  0.51100000000E-03 0.  1.
    9900012    2    1    2    0    0 -0.35155888370E+02  0.19699064554E+02  0.54016245698E+01  0.50528841383E+02  0.29999943868E+02 0.  0.
         12    1    1    2    0    0  0.35155888370E+02 -0.19699064554E+02 -0.54016245698E+01  0.40659158617E+02  0.00000000000E+00 0. -1.
         11    1    3    3    0    0 -0.17507773338E+02 -0.41506186507E+01  0.37808163921E+01  0.18385982033E+02  0.51100000000E-03 0. -1.
        -11    1    3    3    0    0  0.79035943113E+00  0.12014587962E+01  0.25452649512E+01  0.29234474858E+01  0.51100000000E-03 0.  1.
        -12    1    3    3    0    0 -0.18438474463E+02  0.22648224409E+02 -0.92445677341E+00  0.29219411865E+02  0.00000000000E+00 0.  1.
</event>
<event>
 7    1  0.5329250E-013  0.5052886E+02  0.7816164E-02  0.1300439E+00
        -11   -1    0    0    0    0  0.00000000000E+00  0.00000000000E+00  0.45593999997E+02  0.45594000000E+02  0.51100000000E-03 0. -1.
         11   -1    0    0    0    0 -0.00000000000E+00 -0.00000000000E+00 -0.45593999997E+02  0.45594000000E+02  0.51100000000E-03 0.  1.
    9900012    2    1    2    0    0 -0.31221994716E+02 -0.17593921772E+02 -0.19204337479E+02  0.50528860617E+02  0.30000002332E+02 0.  0.
         12    1    1    2    0    0  0.31221994716E+02  0.17593921772E+02  0.19204337479E+02  0.40659139383E+02  0.00000000000E+00 0. -1.
         11    1    3    3    0    0 -0.32012326084E+02 -0.74836851432E+01 -0.10812238717E+02  0.34607789166E+02  0.51100000000E-03 0.  1.
        -11    1    3    3    0    0 -0.25072486158E+01 -0.74124664450E+01 -0.17313567050E+01  0.80142716900E+01  0.51100000000E-03 0. -1.
        -12    1    3    3    0    0  0.32975799838E+01 -0.26977701838E+01 -0.66607420570E+01  0.79067997612E+01  0.00000000000E+00 0.  1.
</event>
<event>
 7    1  0.5329250E-013  0.5052887E+02  0.7816164E-02  0.1300439E+00
        -11   -1    0    0    0    0  0.00000000000E+00  0.00000000000E+00  0.45593999997E+02  0.45594000000E+02  0.51100000000E-03 0.  1.
         11   -1    0    0    0    0 -0.00000000000E+00 -0.00000000000E+00 -0.45593999997E+02  0.45594000000E+02  0.51100000000E-03 0. -1.
    9900012    2    1    2    0    0 -0.35935475875E+02  0.16129305691E+02  0.10082275840E+02  0.50528865546E+02  0.30000017315E+02 0.  0.
         12    1    1    2    0    0  0.35935475875E+02 -0.16129305691E+02 -0.10082275840E+02  0.40659134454E+02  0.00000000000E+00 0. -1.
         11    1    3    3    0    0 -0.10521523038E+01 -0.43009532783E+01  0.46964587440E+01  0.64546067710E+01  0.51100000000E-03 0.  1.
        -11    1    3    3    0    0 -0.13142637837E+02  0.16636515773E+02 -0.59215415113E+00  0.21209743827E+02  0.51100000000E-03 0. -1.
        -12    1    3    3    0    0 -0.21740685734E+02  0.37937431958E+01  0.59779712466E+01  0.22864514948E+02  0.00000000000E+00 0.  1.
</event>
<event>
 7    1  0.5329250E-013  0.5052886E+02  0.7816164E-02  0.1300439E+00
        -11   -1    0    0    0    0  0.00000000000E+00  0.00000000000E+00  0.45593999997E+02  0.45594000000E+02  0.51100000000E-03 0. -1.
         11   -1    0    0    0    0 -0.00000000000E+00 -0.00000000000E+00 -0.45593999997E+02  0.45594000000E+02  0.51100000000E-03 0.  1.
    9900012    2    1    2    0    0 -0.99337214378E+01 -0.36175514766E+02 -0.15678618172E+02  0.50528858863E+02  0.29999997000E+02 0.  0.
         12    1    1    2    0    0  0.99337214378E+01  0.36175514766E+02  0.15678618172E+02  0.40659141137E+02  0.00000000000E+00 0. -1.
         11    1    3    3    0    0  0.82281194643E+00 -0.29756080357E+01  0.15367703819E+01  0.34486122062E+01  0.51100000000E-03 0. -1.
        -11    1    3    3    0    0 -0.17795583393E+02 -0.28005825352E+02 -0.18877923227E+02  0.38175712535E+02  0.51100000000E-03 0.  1.
         12    1    3    3    0    0  0.70390500086E+01 -0.51940813784E+01  0.16625346724E+01  0.89045341218E+01  0.00000000000E+00 0. -1.
</event>
<event>
 7    1  0.5329250E-013  0.5052886E+02  0.7816164E-02  0.1300439E+00
        -11   -1    0    0    0    0  0.00000000000E+00  0.00000000000E+00  0.45593999997E+02  0.45594000000E+02  0.51100000000E-03 0. -1.
         11   -1    0    0    0    0 -0.00000000000E+00 -0.00000000000E+00 -0.45593999997E+02  0.45594000000E+02  0.51100000000E-03 0.  1.
    9900012    2    1    2    0    0  0.15753649236E+02  0.30706085244E+02 -0.21497075844E+02  0.50528863202E+02  0.30000010190E+02 0.  0.
         12    1    1    2    0    0 -0.15753649236E+02 -0.30706085244E+02  0.21497075844E+02  0.40659136798E+02  0.00000000000E+00 0. -1.
         11    1    3    3    0    0  0.71246497851E+01 -0.27901664472E+01 -0.10988669501E+02  0.13390165086E+02  0.51100000000E-03 0.  1.
        -11    1    3    3    0    0  0.48507635918E+01  0.11629862711E+02 -0.35333531238E-01  0.12600986581E+02  0.51100000000E-03 0. -1.
        -12    1    3    3    0    0  0.37782358588E+01  0.21866388981E+02 -0.10473072812E+02  0.24537711535E+02  0.00000000000E+00 0.  1.
</event>
<event>
 7    1  0.5329250E-013  0.5052891E+02  0.7816164E-02  0.1300439E+00
        -11   -1    0    0    0    0  0.00000000000E+00  0.00000000000E+00  0.45593999997E+02  0.45594000000E+02  0.51100000000E-03 0.  1.
         11   -1    0    0    0    0 -0.00000000000E+00 -0.00000000000E+00 -0.45593999997E+02  0.45594000000E+02  0.51100000000E-03 0. -1.
    9900012    2    1    2    0    0 -0.66746811687E+01 -0.30829804891E+00  0.40106299064E+02  0.50528909491E+02  0.30000150888E+02 0.  0.
         12    1    1    2    0    0  0.66746811687E+01  0.30829804891E+00 -0.40106299064E+02  0.40659090509E+02  0.00000000000E+00 0. -1.
         11    1    3    3    0    0 -0.68794892540E+01 -0.57020477948E+01  0.43463752892E+01  0.99363826348E+01  0.51100000000E-03 0. -1.
        -11    1    3    3    0    0  0.38966467700E+01 -0.60429991141E+01  0.13546222175E+02  0.15336291267E+02  0.51100000000E-03 0.  1.
         12    1    3    3    0    0 -0.36918386847E+01  0.11436748860E+02  0.22213701600E+02  0.25256235589E+02  0.00000000000E+00 0. -1.
</event>
<event>
 7    1  0.5329250E-013  0.5052887E+02  0.7816164E-02  0.1300439E+00
        -11   -1    0    0    0    0  0.00000000000E+00  0.00000000000E+00  0.45593999997E+02  0.45594000000E+02  0.51100000000E-03 0. -1.
         11   -1    0    0    0    0 -0.00000000000E+00 -0.00000000000E+00 -0.45593999997E+02  0.45594000000E+02  0.51100000000E-03 0.  1.
    9900012    2    1    2    0    0 -0.37337977720E+01 -0.15279786495E+02 -0.37493360524E+02  0.50528865669E+02  0.30000017688E+02 0.  0.
         12    1    1    2    0    0  0.37337977720E+01  0.15279786495E+02  0.37493360524E+02  0.40659134331E+02  0.00000000000E+00 0. -1.
         11    1    3    3    0    0 -0.12014694282E+02 -0.51931264351E+01 -0.25691096392E+02  0.28833207851E+02  0.51100000000E-03 0. -1.
        -11    1    3    3    0    0 -0.22582302655E+01 -0.67832780611E+01 -0.50009528357E+01  0.87247919581E+01  0.51100000000E-03 0.  1.
         12    1    3    3    0    0  0.10539126776E+02 -0.33033819991E+01 -0.68013112958E+01  0.12970865860E+02  0.00000000000E+00 0. -1.
</event>
<event>
 7    1  0.5329250E-013  0.5052882E+02  0.7816164E-02  0.1300439E+00
        -11   -1    0    0    0    0  0.00000000000E+00  0.00000000000E+00  0.45593999997E+02  0.45594000000E+02  0.51100000000E-03 0.  1.
         11   -1    0    0    0    0 -0.00000000000E+00 -0.00000000000E+00 -0.45593999997E+02  0.45594000000E+02  0.51100000000E-03 0. -1.
    9900012    2    1    2    0    0 -0.18637162077E+01 -0.61336910441E+01  0.40150631955E+02  0.50528820836E+02  0.29999881412E+02 0.  0.
         12    1    1    2    0    0  0.18637162077E+01  0.61336910441E+01 -0.40150631955E+02  0.40659179164E+02  0.00000000000E+00 0. -1.
         11    1    3    3    0    0 -0.67984321503E+00 -0.44589881879E+01  0.28830124842E+01  0.53531788408E+01  0.51100000000E-03 0. -1.
        -11    1    3    3    0    0  0.10018588356E+01 -0.62989119150E+01  0.39194430888E+02  0.39709991505E+02  0.51100000000E-03 0.  1.
        -12    1    3    3    0    0 -0.21857318283E+01  0.46242090588E+01 -0.19268114168E+01  0.54656504902E+01  0.00000000000E+00 0.  1.
</event>
<event>
 7    1  0.5329250E-013  0.5052886E+02  0.7816164E-02  0.1300439E+00
        -11   -1    0    0    0    0  0.00000000000E+00  0.00000000000E+00  0.45593999997E+02  0.45594000000E+02  0.51100000000E-03 0.  1.
         11   -1    0    0    0    0 -0.00000000000E+00 -0.00000000000E+00 -0.45593999997E+02  0.45594000000E+02  0.51100000000E-03 0. -1.
    9900012    2    1    2    0    0  0.45962291717E+01 -0.28686713453E+02  0.28444909761E+02  0.50528859051E+02  0.29999997573E+02 0.  0.
         12    1    1    2    0    0 -0.45962291717E+01  0.28686713453E+02 -0.28444909761E+02  0.40659140949E+02  0.00000000000E+00 0. -1.
         11    1    3    3    0    0  0.10380442638E+01 -0.22715272284E+02  0.40417221733E+01  0.23095381556E+02  0.51100000000E-03 0. -1.
        -11    1    3    3    0    0  0.21952078788E+01 -0.88103300119E+01  0.15188280318E+02  0.17695330226E+02  0.51100000000E-03 0.  1.
        -12    1    3    3    0    0  0.13629770291E+01  0.28388888423E+01  0.92149072702E+01  0.97381472694E+01  0.00000000000E+00 0.  1.
</event>
<event>
 7    1  0.5329250E-013  0.5052887E+02  0.7816164E-02  0.1300439E+00
        -11   -1    0    0    0    0  0.00000000000E+00  0.00000000000E+00  0.45593999997E+02  0.45594000000E+02  0.51100000000E-03 0.  1.
         11   -1    0    0    0    0 -0.00000000000E+00 -0.00000000000E+00 -0.45593999997E+02  0.45594000000E+02  0.51100000000E-03 0. -1.
    9900012    2    1    2    0    0  0.19950335491E+02 -0.25411642324E+02  0.24685972753E+02  0.50528871842E+02  0.30000036450E+02 0.  0.
         12    1    1    2    0    0 -0.19950335491E+02  0.25411642324E+02 -0.24685972753E+02  0.40659128158E+02  0.00000000000E+00 0. -1.
         11    1    3    3    0    0  0.37107842145E+01  0.42623651583E+01  0.13981527298E+00  0.56530721560E+01  0.51100000000E-03 0. -1.
        -11    1    3    3    0    0  0.14051676494E+00 -0.17021660957E+02  0.97885843133E+01  0.19636014611E+02  0.51100000000E-03 0.  1.
         12    1    3    3    0    0  0.16099034512E+02 -0.12652346526E+02  0.14757573167E+02  0.25239785074E+02  0.00000000000E+00 0. -1.
</event>
<event>
 7    1  0.5329250E-013  0.5052890E+02  0.7816164E-02  0.1300439E+00
        -11   -1    0    0    0    0  0.00000000000E+00  0.00000000000E+00  0.45593999997E+02  0.45594000000E+02  0.51100000000E-03 0. -1.
         11   -1    0    0    0    0 -0.00000000000E+00 -0.00000000000E+00 -0.45593999997E+02  0.45594000000E+02  0.51100000000E-03 0.  1.
    9900012    2    1    2    0    0  0.12651914749E+01 -0.96031559016E+01 -0.39488498006E+02  0.50528895392E+02  0.30000108033E+02 0.  0.
         12    1    1    2    0    0 -0.12651914749E+01  0.96031559016E+01  0.39488498006E+02  0.40659104608E+02  0.00000000000E+00 0. -1.
         11    1    3    3    0    0 -0.30139664515E+00  0.83284426947E+01 -0.94062102762E+01  0.12567043792E+02  0.51100000000E-03 0. -1.
        -11    1    3    3    0    0  0.70496039815E+01 -0.48941323696E+01 -0.15028429168E+02  0.17306158773E+02  0.51100000000E-03 0.  1.
        -12    1    3    3    0    0 -0.54830158614E+01 -0.13037466227E+02 -0.15053858562E+02  0.20655692827E+02  0.00000000000E+00 0.  1.
</event>
<event>
 7    1  0.5329250E-013  0.5052887E+02  0.7816164E-02  0.1300439E+00
        -11   -1    0    0    0    0  0.00000000000E+00  0.00000000000E+00  0.45593999997E+02  0.45594000000E+02  0.51100000000E-03 0.  1.
         11   -1    0    0    0    0 -0.00000000000E+00 -0.00000000000E+00 -0.45593999997E+02  0.45594000000E+02  0.51100000000E-03 0. -1.
    9900012    2    1    2    0    0 -0.12582616724E+02  0.32618785995E+02  0.20757106507E+02  0.50528869243E+02  0.30000028551E+02 0.  0.
         12    1    1    2    0    0  0.12582616724E+02 -0.32618785995E+02 -0.20757106507E+02  0.40659130757E+02  0.00000000000E+00 0. -1.
         11    1    3    3    0    0 -0.56140089167E+01  0.21113068565E+01  0.11925088987E+02  0.13348500304E+02  0.51100000000E-03 0. -1.
        -11    1    3    3    0    0 -0.13117184339E+02  0.21903301919E+02  0.58425703532E+01  0.26190662239E+02  0.51100000000E-03 0.  1.
         12    1    3    3    0    0  0.61485765317E+01  0.86041772190E+01  0.29894471668E+01  0.10989706700E+02  0.00000000000E+00 0. -1.
</event>
<event>
 7    1  0.5329250E-013  0.5052885E+02  0.7816164E-02  0.1300439E+00
        -11   -1    0    0    0    0  0.00000000000E+00  0.00000000000E+00  0.45593999997E+02  0.45594000000E+02  0.51100000000E-03 0.  1.
         11   -1    0    0    0    0 -0.00000000000E+00 -0.00000000000E+00 -0.45593999997E+02  0.45594000000E+02  0.51100000000E-03 0. -1.
    9900012    2    1    2    0    0 -0.77979975522E+01  0.36200993966E+01  0.39739809958E+02  0.50528851202E+02  0.29999973715E+02 0.  0.
         12    1    1    2    0    0  0.77979975522E+01 -0.36200993966E+01 -0.39739809958E+02  0.40659148798E+02  0.00000000000E+00 0. -1.
         11    1    3    3    0    0 -0.20159770537E+01 -0.31773327216E+01  0.30505692444E+01  0.48441283716E+01  0.51100000000E-03 0. -1.
        -11    1    3    3    0    0 -0.15446848426E+02  0.80495691769E+01  0.24924475622E+02  0.30407732167E+02  0.51100000000E-03 0.  1.
        -12    1    3    3    0    0  0.96648279277E+01 -0.12521370587E+01  0.11764765091E+02  0.15276990664E+02  0.00000000000E+00 0.  1.
</event>
<event>
 7    1  0.5329250E-013  0.5052891E+02  0.7816164E-02  0.1300439E+00
        -11   -1    0    0    0    0  0.00000000000E+00  0.00000000000E+00  0.45593999997E+02  0.45594000000E+02  0.51100000000E-03 0.  1.
         11   -1    0    0    0    0 -0.00000000000E+00 -0.00000000000E+00 -0.45593999997E+02  0.45594000000E+02  0.51100000000E-03 0. -1.
    9900012    2    1    2    0    0  0.25225816395E+01  0.36716934617E+02 -0.17281915350E+02  0.50528913635E+02  0.30000163485E+02 0.  0.
         12    1    1    2    0    0 -0.25225816395E+01 -0.36716934617E+02  0.17281915350E+02  0.40659086365E+02  0.00000000000E+00 0. -1.
         11    1    3    3    0    0  0.77030213771E+01  0.13771832380E+02 -0.96272261429E+01  0.18484679843E+02  0.51100000000E-03 0. -1.
        -11    1    3    3    0    0 -0.68649334483E+01 -0.93294021440E+00 -0.34531057305E+01  0.77409061575E+01  0.51100000000E-03 0.  1.
         12    1    3    3    0    0  0.16844937107E+01  0.23878042452E+02 -0.42015834771E+01  0.24303327635E+02  0.00000000000E+00 0. -1.
</event>
<event>
 7    1  0.5329250E-013  0.5052883E+02  0.7816164E-02  0.1300439E+00
        -11   -1    0    0    0    0  0.00000000000E+00  0.00000000000E+00  0.45593999997E+02  0.45594000000E+02  0.51100000000E-03 0.  1.
         11   -1    0    0    0    0 -0.00000000000E+00 -0.00000000000E+00 -0.45593999997E+02  0.45594000000E+02  0.51100000000E-03 0. -1.
    9900012    2    1    2    0    0  0.18770221230E+02  0.13470232036E+02  0.33457437093E+02  0.50528825722E+02  0.29999896264E+02 0.  0.
         12    1    1    2    0    0 -0.18770221230E+02 -0.13470232036E+02 -0.33457437093E+02  0.40659174278E+02  0.00000000000E+00 0. -1.
         11    1    3    3    0    0  0.79851373198E+01  0.43219810423E+01 -0.16166369592E+01  0.92225513533E+01  0.51100000000E-03 0. -1.
        -11    1    3    3    0    0  0.10886079878E+02 -0.14485805608E+01  0.14798065918E+02  0.18427910243E+02  0.51100000000E-03 0.  1.
         12    1    3    3    0    0 -0.10099596823E+00  0.10596831555E+02  0.20276008135E+02  0.22878364125E+02  0.00000000000E+00 0. -1.
</event>
<event>
 7    1  0.5329250E-013  0.5052886E+02  0.7816164E-02  0.1300439E+00
        -11   -1    0    0    0    0  0.00000000000E+00  0.00000000000E+00  0.45593999997E+02  0.45594000000E+02  0.51100000000E-03 0.  1.
         11   -1    0    0    0    0 -0.00000000000E+00 -0.00000000000E+00 -0.45593999997E+02  0.45594000000E+02  0.51100000000E-03 0. -1.
    9900012    2    1    2    0    0  0.64123514551E+01 -0.37257381610E+02  0.14964453219E+02  0.50528860858E+02  0.30000003064E+02 0.  0.
         12    1    1    2    0    0 -0.64123514551E+01  0.37257381610E+02 -0.14964453219E+02  0.40659139142E+02  0.00000000000E+00 0. -1.
         11    1    3    3    0    0  0.78594499659E+01 -0.93854232313E+01  0.15944153775E+01  0.12345010476E+02  0.51100000000E-03 0. -1.
        -11    1    3    3    0    0  0.56555721021E+01 -0.38945585262E+01  0.11128175109E+02  0.13076290125E+02  0.51100000000E-03 0.  1.
        -12    1    3    3    0    0 -0.71026706129E+01 -0.23977399853E+02  0.22418627322E+01  0.25107560257E+02  0.00000000000E+00 0.  1.
</event>
<event>
 7    1  0.5329250E-013  0.5052886E+02  0.7816164E-02  0.1300439E+00
        -11   -1    0    0    0    0  0.00000000000E+00  0.00000000000E+00  0.45593999997E+02  0.45594000000E+02  0.51100000000E-03 0.  1.
         11   -1    0    0    0    0 -0.00000000000E+00 -0.00000000000E+00 -0.45593999997E+02  0.45594000000E+02  0.51100000000E-03 0. -1.
    9900012    2    1    2    0    0 -0.31395363515E+02 -0.25832798944E+02  0.40436262571E+00  0.50528857600E+02  0.29999993162E+02 0.  0.
         12    1    1    2    0    0  0.31395363515E+02  0.25832798944E+02 -0.40436262571E+00  0.40659142400E+02  0.00000000000E+00 0. -1.
         11    1    3    3    0    0 -0.17936323716E+02 -0.47331103489E+01  0.28829419666E+01  0.18772996476E+02  0.51100000000E-03 0. -1.
        -11    1    3    3    0    0 -0.16899105655E+02 -0.21171199323E+02  0.66265309418E+00  0.27096836754E+02  0.51100000000E-03 0.  1.
        -12    1    3    3    0    0  0.34400658560E+01  0.71510727182E-01 -0.31412324351E+01  0.46590243709E+01  0.00000000000E+00 0.  1.
</event>
<event>
 7    1  0.5329250E-013  0.5052886E+02  0.7816164E-02  0.1300439E+00
        -11   -1    0    0    0    0  0.00000000000E+00  0.00000000000E+00  0.45593999997E+02  0.45594000000E+02  0.51100000000E-03 0.  1.
         11   -1    0    0    0    0 -0.00000000000E+00 -0.00000000000E+00 -0.45593999997E+02  0.45594000000E+02  0.51100000000E-03 0. -1.
    9900012    2    1    2    0    0  0.55318623487E+01  0.98384940833E+01  0.39061080635E+02  0.50528862192E+02  0.30000007119E+02 0.  0.
         12    1    1    2    0    0 -0.55318623487E+01 -0.98384940833E+01 -0.39061080635E+02  0.40659137808E+02  0.00000000000E+00 0. -1.
         11    1    3    3    0    0  0.17386786731E+00  0.34660233122E+01 -0.18880558836E+00  0.34755136954E+01  0.51100000000E-03 0. -1.
        -11    1    3    3    0    0 -0.98164802206E+01  0.17974481613E+01  0.12984493940E+02  0.16376543804E+02  0.51100000000E-03 0.  1.
        -12    1    3    3    0    0  0.15174474702E+02  0.45750226099E+01  0.26265392284E+02  0.30676804693E+02  0.00000000000E+00 0.  1.
</event>
<event>
 7    1  0.5329250E-013  0.5052886E+02  0.7816164E-02  0.1300439E+00
        -11   -1    0    0    0    0  0.00000000000E+00  0.00000000000E+00  0.45593999997E+02  0.45594000000E+02  0.51100000000E-03 0.  1.
         11   -1    0    0    0    0 -0.00000000000E+00 -0.00000000000E+00 -0.45593999997E+02  0.45594000000E+02  0.51100000000E-03 0. -1.
    9900012    2    1    2    0    0 -0.23688324399E+02  0.21879937837E+02  0.24764840474E+02  0.50528859376E+02  0.29999998559E+02 0.  0.
         12    1    1    2    0    0  0.23688324399E+02 -0.21879937837E+02 -0.24764840474E+02  0.40659140624E+02  0.00000000000E+00 0. -1.
         11    1    3    3    0    0 -0.16119634952E+02  0.55786003769E+01  0.15209318339E+02  0.22853594416E+02  0.51100000000E-03 0. -1.
        -11    1    3    3    0    0 -0.29727866378E+01  0.16249558375E+02  0.13719403843E+02  0.21473417284E+02  0.51100000000E-03 0.  1.
         12    1    3    3    0    0 -0.45959028095E+01  0.51779085650E-01 -0.41638817086E+01  0.62018476756E+01  0.00000000000E+00 0. -1.
</event>
<event>
 7    1  0.5329250E-013  0.5052885E+02  0.7816164E-02  0.1300439E+00
        -11   -1    0    0    0    0  0.00000000000E+00  0.00000000000E+00  0.45593999997E+02  0.45594000000E+02  0.51100000000E-03 0. -1.
         11   -1    0    0    0    0 -0.00000000000E+00 -0.00000000000E+00 -0.45593999997E+02  0.45594000000E+02  0.51100000000E-03 0.  1.
    9900012    2    1    2    0    0  0.66464490724E+01 -0.56739592178E+01 -0.39708904461E+02  0.50528853526E+02  0.29999980778E+02 0.  0.
         12    1    1    2    0    0 -0.66464490724E+01  0.56739592178E+01  0.39708904461E+02  0.40659146474E+02  0.00000000000E+00 0. -1.
         11    1    3    3    0    0  0.27740017063E+01 -0.42464423329E+01 -0.15301673433E+01  0.52979968208E+01  0.51100000000E-03 0. -1.
        -11    1    3    3    0    0  0.78817638028E+01  0.72797786271E+01 -0.75036371226E+01  0.13092820469E+02  0.51100000000E-03 0.  1.
        -12    1    3    3    0    0 -0.40093164368E+01 -0.87072955120E+01 -0.30675099995E+02  0.32138036236E+02  0.00000000000E+00 0.  1.
</event>
<event>
 7    1  0.5329250E-013  0.5052885E+02  0.7816164E-02  0.1300439E+00
        -11   -1    0    0    0    0  0.00000000000E+00  0.00000000000E+00  0.45593999997E+02  0.45594000000E+02  0.51100000000E-03 0. -1.
         11   -1    0    0    0    0 -0.00000000000E+00 -0.00000000000E+00 -0.45593999997E+02  0.45594000000E+02  0.51100000000E-03 0.  1.
    9900012    2    1    2    0    0 -0.36118787965E+02  0.15207103415E+02 -0.10832540370E+02  0.50528846428E+02  0.29999959204E+02 0.  0.
         12    1    1    2    0    0  0.36118787965E+02 -0.15207103415E+02  0.10832540370E+02  0.40659153572E+02  0.00000000000E+00 0. -1.
         11    1    3    3    0    0 -0.17458961104E+02  0.23717142479E+01  0.60653255284E+01  0.18634068942E+02  0.51100000000E-03 0. -1.
        -11    1    3    3    0    0 -0.15927546604E+01 -0.55698555828E+00  0.23497731823E+01  0.28928419573E+01  0.51100000000E-03 0.  1.
         12    1    3    3    0    0 -0.17067072200E+02  0.13392374725E+02 -0.19247639080E+02  0.29001935529E+02  0.00000000000E+00 0. -1.
</event>
<event>
 7    1  0.5329250E-013  0.5052884E+02  0.7816164E-02  0.1300439E+00
        -11   -1    0    0    0    0  0.00000000000E+00  0.00000000000E+00  0.45593999997E+02  0.45594000000E+02  0.51100000000E-03 0.  1.
         11   -1    0    0    0    0 -0.00000000000E+00 -0.00000000000E+00 -0.45593999997E+02  0.45594000000E+02  0.51100000000E-03 0. -1.
    9900012    2    1    2    0    0 -0.40940562202E+01 -0.15969494794E+02  0.37166936030E+02  0.50528841201E+02  0.29999943316E+02 0.  0.
         12    1    1    2    0    0  0.40940562202E+01  0.15969494794E+02 -0.37166936030E+02  0.40659158799E+02  0.00000000000E+00 0. -1.
         11    1    3    3    0    0  0.33656887817E+01 -0.11166203946E+02  0.18604358183E+02  0.21957552578E+02  0.51100000000E-03 0. -1.
        -11    1    3    3    0    0 -0.42822290552E+01  0.63662246951E+01  0.14248983123E+02  0.16183319278E+02  0.51100000000E-03 0.  1.
         12    1    3    3    0    0 -0.31775159467E+01 -0.11169515544E+02  0.43135947245E+01  0.12387969346E+02  0.00000000000E+00 0. -1.
</event>
<event>
 7    1  0.5329250E-013  0.5052885E+02  0.7816164E-02  0.1300439E+00
        -11   -1    0    0    0    0  0.00000000000E+00  0.00000000000E+00  0.45593999997E+02  0.45594000000E+02  0.51100000000E-03 0.  1.
         11   -1    0    0    0    0 -0.00000000000E+00 -0.00000000000E+00 -0.45593999997E+02  0.45594000000E+02  0.51100000000E-03 0. -1.
    9900012    2    1    2    0    0 -0.20414413343E+02 -0.32608042753E+02 -0.13158038811E+02  0.50528847160E+02  0.29999961427E+02 0.  0.
         12    1    1    2    0    0  0.20414413343E+02  0.32608042753E+02  0.13158038811E+02  0.40659152840E+02  0.00000000000E+00 0. -1.
         11    1    3    3    0    0 -0.22337468087E+01 -0.23177528229E+02 -0.23318946628E+01  0.23401392535E+02  0.51100000000E-03 0. -1.
        -11    1    3    3    0    0 -0.84177206370E+01 -0.79530916242E+01  0.11133009794E+01  0.11633964347E+02  0.51100000000E-03 0.  1.
        -12    1    3    3    0    0 -0.97629458969E+01 -0.14774228999E+01 -0.11939445128E+02  0.15493490277E+02  0.00000000000E+00 0.  1.
</event>
<event>
 7    1  0.5329250E-013  0.5052885E+02  0.7816164E-02  0.1300439E+00
        -11   -1    0    0    0    0  0.00000000000E+00  0.00000000000E+00  0.45593999997E+02  0.45594000000E+02  0.51100000000E-03 0.  1.
         11   -1    0    0    0    0 -0.00000000000E+00 -0.00000000000E+00 -0.45593999997E+02  0.45594000000E+02  0.51100000000E-03 0. -1.
    9900012    2    1    2    0    0 -0.11868400916E+02  0.22116460036E+02  0.31987024249E+02  0.50528850167E+02  0.29999970568E+02 0.  0.
         12    1    1    2    0    0  0.11868400916E+02 -0.22116460036E+02 -0.31987024249E+02  0.40659149833E+02  0.00000000000E+00 0. -1.
         11    1    3    3    0    0 -0.79251665852E+01  0.58201177984E+01  0.39671899847E+01  0.10602859672E+02  0.51100000000E-03 0. -1.
        -11    1    3    3    0    0 -0.71742894407E+01 -0.14697562182E+01  0.17635347940E+02  0.19095447351E+02  0.51100000000E-03 0.  1.
         12    1    3    3    0    0  0.32310551096E+01  0.17766098456E+02  0.10384486324E+02  0.20830543144E+02  0.00000000000E+00 0. -1.
</event>
<event>
 7    1  0.5329250E-013  0.5052886E+02  0.7816164E-02  0.1300439E+00
        -11   -1    0    0    0    0  0.00000000000E+00  0.00000000000E+00  0.45593999997E+02  0.45594000000E+02  0.51100000000E-03 0.  1.
         11   -1    0    0    0    0 -0.00000000000E+00 -0.00000000000E+00 -0.45593999997E+02  0.45594000000E+02  0.51100000000E-03 0. -1.
    9900012    2    1    2    0    0  0.24241208382E+00  0.22706455734E+02  0.33727197570E+02  0.50528858942E+02  0.29999997241E+02 0.  0.
         12    1    1    2    0    0 -0.24241208382E+00 -0.22706455734E+02 -0.33727197570E+02  0.40659141058E+02  0.00000000000E+00 0. -1.
         11    1    3    3    0    0  0.67648300043E+01  0.58202959949E+00  0.71626909830E+01  0.98694389821E+01  0.51100000000E-03 0. -1.
        -11    1    3    3    0    0 -0.61389796161E+01  0.31423832359E+01 -0.12240436785E+01  0.70042791432E+01  0.51100000000E-03 0.  1.
        -12    1    3    3    0    0 -0.38343830438E+00  0.18982042899E+02  0.27788550266E+02  0.33655140817E+02  0.00000000000E+00 0.  1.
</event>
<event>
 7    1  0.5329250E-013  0.5052886E+02  0.7816164E-02  0.1300439E+00
        -11   -1    0    0    0    0  0.00000000000E+00  0.00000000000E+00  0.45593999997E+02  0.45594000000E+02  0.51100000000E-03 0.  1.
         11   -1    0    0    0    0 -0.00000000000E+00 -0.00000000000E+00 -0.45593999997E+02  0.45594000000E+02  0.51100000000E-03 0. -1.
    9900012    2    1    2    0    0  0.30389322681E+02 -0.15723410153E+02  0.21964267491E+02  0.50528860729E+02  0.30000002672E+02 0.  0.
         12    1    1    2    0    0 -0.30389322681E+02  0.15723410153E+02 -0.21964267491E+02  0.40659139271E+02  0.00000000000E+00 0. -1.
         11    1    3    3    0    0  0.15054982152E+01 -0.13178492200E+01 -0.42884092859E+01  0.47321988448E+01  0.51100000000E-03 0. -1.
        -11    1    3    3    0    0  0.26971282889E+01 -0.27241375100E+01 -0.29747656881E+01  0.48522837242E+01  0.51100000000E-03 0.  1.
        -12    1    3    3    0    0  0.26186696177E+02 -0.11681423423E+02  0.29227442465E+02  0.40944378160E+02  0.00000000000E+00 0.  1.
</event>
<event>
 7    1  0.5329250E-013  0.5052886E+02  0.7816164E-02  0.1300439E+00
        -11   -1    0    0    0    0  0.00000000000E+00  0.00000000000E+00  0.45593999997E+02  0.45594000000E+02  0.51100000000E-03 0. -1.
         11   -1    0    0    0    0 -0.00000000000E+00 -0.00000000000E+00 -0.45593999997E+02  0.45594000000E+02  0.51100000000E-03 0.  1.
    9900012    2    1    2    0    0 -0.13097234231E+02  0.34277663673E+02  0.17512002974E+02  0.50528855647E+02  0.29999987224E+02 0.  0.
         12    1    1    2    0    0  0.13097234231E+02 -0.34277663673E+02 -0.17512002974E+02  0.40659144353E+02  0.00000000000E+00 0. -1.
         11    1    3    3    0    0 -0.47830584781E+01  0.16676246089E+02  0.21795368635E+02  0.27857008566E+02  0.51100000000E-03 0. -1.
        -11    1    3    3    0    0  0.35449556485E+00  0.10108067153E+02  0.78043735051E+00  0.10144346770E+02  0.51100000000E-03 0.  1.
        -12    1    3    3    0    0 -0.86686713176E+01  0.74933504309E+01 -0.50638030120E+01  0.12527500311E+02  0.00000000000E+00 0.  1.
</event>
<event>
 7    1  0.5329250E-013  0.5052883E+02  0.7816164E-02  0.1300439E+00
        -11   -1    0    0    0    0  0.00000000000E+00  0.00000000000E+00  0.45593999997E+02  0.45594000000E+02  0.51100000000E-03 0.  1.
         11   -1    0    0    0    0 -0.00000000000E+00 -0.00000000000E+00 -0.45593999997E+02  0.45594000000E+02  0.51100000000E-03 0. -1.
    9900012    2    1    2    0    0 -0.30613486012E+02  0.21582442475E+02  0.15817102063E+02  0.50528830472E+02  0.29999910703E+02 0.  0.
         12    1    1    2    0    0  0.30613486012E+02 -0.21582442475E+02 -0.15817102063E+02  0.40659169528E+02  0.00000000000E+00 0. -1.
         11    1    3    3    0    0 -0.29229845229E+02  0.88028689658E+01  0.81969904339E+01  0.31607989600E+02  0.51100000000E-03 0. -1.
        -11    1    3    3    0    0 -0.55326776631E+01  0.89039205158E+01  0.80643459986E+01  0.13225883688E+02  0.51100000000E-03 0.  1.
        -12    1    3    3    0    0  0.41490368794E+01  0.38756529937E+01 -0.44423436972E+00  0.56949571842E+01  0.00000000000E+00 0.  1.
</event>
<event>
 7    1  0.5329250E-013  0.5052886E+02  0.7816164E-02  0.1300439E+00
        -11   -1    0    0    0    0  0.00000000000E+00  0.00000000000E+00  0.45593999997E+02  0.45594000000E+02  0.51100000000E-03 0.  1.
         11   -1    0    0    0    0 -0.00000000000E+00 -0.00000000000E+00 -0.45593999997E+02  0.45594000000E+02  0.51100000000E-03 0. -1.
    9900012    2    1    2    0    0 -0.40639996699E+02  0.11387804117E+01 -0.50902976457E+00  0.50528864940E+02  0.30000015472E+02 0.  0.
         12    1    1    2    0    0  0.40639996699E+02 -0.11387804117E+01  0.50902976457E+00  0.40659135060E+02  0.00000000000E+00 0. -1.
         11    1    3    3    0    0 -0.64545027236E+01  0.82175330140E+01  0.12732698209E+01  0.10526617241E+02  0.51100000000E-03 0. -1.
        -11    1    3    3    0    0 -0.18911035672E+02  0.13995134759E+01  0.72918960994E+01  0.20316438102E+02  0.51100000000E-03 0.  1.
         12    1    3    3    0    0 -0.15274458303E+02 -0.84782660783E+01 -0.90741956848E+01  0.19685809597E+02  0.00000000000E+00 0. -1.
</event>
<event>
 7    1  0.5329250E-013  0.5052887E+02  0.7816164E-02  0.1300439E+00
        -11   -1    0    0    0    0  0.00000000000E+00  0.00000000000E+00  0.45593999997E+02  0.45594000000E+02  0.51100000000E-03 0.  1.
         11   -1    0    0    0    0 -0.00000000000E+00 -0.00000000000E+00 -0.45593999997E+02  0.45594000000E+02  0.51100000000E-03 0. -1.
    9900012    2    1    2    0    0 -0.30465196415E+02 -0.26737993449E+02  0.31806097419E+01  0.50528871079E+02  0.30000034132E+02 0.  0.
         12    1    1    2    0    0  0.30465196415E+02  0.26737993449E+02 -0.31806097419E+01  0.40659128921E+02  0.00000000000E+00 0. -1.
         11    1    3    3    0    0 -0.14714871100E+02 -0.11022361671E+02  0.12496949800E+02  0.22230466546E+02  0.51100000000E-03 0. -1.
        -11    1    3    3    0    0 -0.21163893821E+01 -0.30202060071E+01  0.39683158926E+01  0.54174052485E+01  0.51100000000E-03 0.  1.
         12    1    3    3    0    0 -0.13633935933E+02 -0.12695425771E+02 -0.13284655951E+02  0.22880999285E+02  0.00000000000E+00 0. -1.
</event>
<event>
 7    1  0.5329250E-013  0.5052885E+02  0.7816164E-02  0.1300439E+00
        -11   -1    0    0    0    0  0.00000000000E+00  0.00000000000E+00  0.45593999997E+02  0.45594000000E+02  0.51100000000E-03 0.  1.
         11   -1    0    0    0    0 -0.00000000000E+00 -0.00000000000E+00 -0.45593999997E+02  0.45594000000E+02  0.51100000000E-03 0. -1.
    9900012    2    1    2    0    0  0.23853037382E+02 -0.30706437310E+02  0.11887549507E+02  0.50528849518E+02  0.29999968595E+02 0.  0.
         12    1    1    2    0    0 -0.23853037382E+02  0.30706437310E+02 -0.11887549507E+02  0.40659150482E+02  0.00000000000E+00 0. -1.
         11    1    3    3    0    0 -0.22289479916E+01 -0.88835278435E+01 -0.40106281687E+01  0.99985206238E+01  0.51100000000E-03 0. -1.
        -11    1    3    3    0    0  0.62726858991E+01 -0.72013169038E+01  0.12416206925E+02  0.15664218723E+02  0.51100000000E-03 0.  1.
        -12    1    3    3    0    0  0.19809299474E+02 -0.14621592563E+02  0.34819707507E+01  0.24866110171E+02  0.00000000000E+00 0.  1.
</event>
<event>
 7    1  0.5329250E-013  0.5052887E+02  0.7816164E-02  0.1300439E+00
        -11   -1    0    0    0    0  0.00000000000E+00  0.00000000000E+00  0.45593999997E+02  0.45594000000E+02  0.51100000000E-03 0.  1.
         11   -1    0    0    0    0 -0.00000000000E+00 -0.00000000000E+00 -0.45593999997E+02  0.45594000000E+02  0.51100000000E-03 0. -1.
    9900012    2    1    2    0    0 -0.48423613396E+01  0.12141518477E+02  0.38500643319E+02  0.50528874699E+02  0.30000045135E+02 0.  0.
         12    1    1    2    0    0  0.48423613396E+01 -0.12141518477E+02 -0.38500643319E+02  0.40659125301E+02  0.00000000000E+00 0. -1.
         11    1    3    3    0    0 -0.63787938389E+01  0.12165645942E+00  0.26111113125E+02  0.26879249246E+02  0.51100000000E-03 0.  1.
        -11    1    3    3    0    0 -0.37924072783E+01 -0.12490674199E+01 -0.93925884942E+00  0.41017959276E+01  0.51100000000E-03 0. -1.
        -12    1    3    3    0    0  0.53288397776E+01  0.13268929437E+02  0.13328789043E+02  0.19547829525E+02  0.00000000000E+00 0.  1.
</event>
<event>
 7    1  0.5329250E-013  0.5052886E+02  0.7816164E-02  0.1300439E+00
        -11   -1    0    0    0    0  0.00000000000E+00  0.00000000000E+00  0.45593999997E+02  0.45594000000E+02  0.51100000000E-03 0.  1.
         11   -1    0    0    0    0 -0.00000000000E+00 -0.00000000000E+00 -0.45593999997E+02  0.45594000000E+02  0.51100000000E-03 0. -1.
    9900012    2    1    2    0    0  0.26418533493E+02  0.30682107523E+02 -0.37194993391E+01  0.50528864381E+02  0.30000013771E+02 0.  0.
         12    1    1    2    0    0 -0.26418533493E+02 -0.30682107523E+02  0.37194993391E+01  0.40659135619E+02  0.00000000000E+00 0. -1.
         11    1    3    3    0    0  0.46717027744E+01  0.51857188864E+01  0.45692275434E+01  0.83423214866E+01  0.51100000000E-03 0. -1.
        -11    1    3    3    0    0  0.15500348823E+02  0.28009215890E+02 -0.67013051416E+00  0.32019151513E+02  0.51100000000E-03 0.  1.
         12    1    3    3    0    0  0.62464818957E+01 -0.25128272536E+01 -0.76185963683E+01  0.10167391381E+02  0.00000000000E+00 0. -1.
</event>
<event>
 7    1  0.5329250E-013  0.5052885E+02  0.7816164E-02  0.1300439E+00
        -11   -1    0    0    0    0  0.00000000000E+00  0.00000000000E+00  0.45593999997E+02  0.45594000000E+02  0.51100000000E-03 0. -1.
         11   -1    0    0    0    0 -0.00000000000E+00 -0.00000000000E+00 -0.45593999997E+02  0.45594000000E+02  0.51100000000E-03 0.  1.
    9900012    2    1    2    0    0 -0.14204430000E+02 -0.34683221171E+02 -0.15763071624E+02  0.50528854788E+02  0.29999984613E+02 0.  0.
         12    1    1    2    0    0  0.14204430000E+02  0.34683221171E+02  0.15763071624E+02  0.40659145212E+02  0.00000000000E+00 0. -1.
         11    1    3    3    0    0 -0.78726855886E+01  0.39912241647E+00 -0.99239556600E+00  0.79450189616E+01  0.51100000000E-03 0. -1.
        -11    1    3    3    0    0  0.61888595389E+01 -0.86547505187E+01 -0.29465911711E+01  0.11040339158E+02  0.51100000000E-03 0.  1.
        -12    1    3    3    0    0 -0.12520603950E+02 -0.26427593068E+02 -0.11824084887E+02  0.31543496668E+02  0.00000000000E+00 0.  1.
</event>
<event>
 7    1  0.5329250E-013  0.5052886E+02  0.7816164E-02  0.1300439E+00
        -11   -1    0    0    0    0  0.00000000000E+00  0.00000000000E+00  0.45593999997E+02  0.45594000000E+02  0.51100000000E-03 0. -1.
         11   -1    0    0    0    0 -0.00000000000E+00 -0.00000000000E+00 -0.45593999997E+02  0.45594000000E+02  0.51100000000E-03 0.  1.
    9900012    2    1    2    0    0 -0.34014490491E+02 -0.15427774282E+02 -0.16067467988E+02  0.50528864369E+02  0.30000013737E+02 0.  0.
         12    1    1    2    0    0  0.34014490491E+02  0.15427774282E+02  0.16067467988E+02  0.40659135631E+02  0.00000000000E+00 0. -1.
         11    1    3    3    0    0 -0.34630290688E+01 -0.42713202648E+01 -0.13283103459E+02  0.14376285504E+02  0.51100000000E-03 0. -1.
        -11    1    3    3    0    0 -0.97215377129E+01  0.30934704250E+01 -0.38198999654E+01  0.10893552716E+02  0.51100000000E-03 0.  1.
         12    1    3    3    0    0 -0.20829923709E+02 -0.14249924443E+02  0.10355354357E+01  0.25259026149E+02  0.00000000000E+00 0. -1.
</event>
<event>
 7    1  0.5329250E-013  0.5052886E+02  0.7816164E-02  0.1300439E+00
        -11   -1    0    0    0    0  0.00000000000E+00  0.00000000000E+00  0.45593999997E+02  0.45594000000E+02  0.51100000000E-03 0.  1.
         11   -1    0    0    0    0 -0.00000000000E+00 -0.00000000000E+00 -0.45593999997E+02  0.45594000000E+02  0.51100000000E-03 0. -1.
    9900012    2    1    2    0    0  0.70063862171E+01  0.39892689875E+02  0.35566528260E+01  0.50528856715E+02  0.29999990472E+02 0.  0.
         12    1    1    2    0    0 -0.70063862171E+01 -0.39892689875E+02 -0.35566528260E+01  0.40659143285E+02  0.00000000000E+00 0. -1.
         11    1    3    3    0    0 -0.37852530965E+00 -0.23538075206E+01 -0.17588657194E+01  0.29626508627E+01  0.51100000000E-03 0. -1.
        -11    1    3    3    0    0 -0.61800077116E+01  0.19448733725E+02 -0.47865412211E+00  0.20412614944E+02  0.51100000000E-03 0.  1.
         12    1    3    3    0    0  0.13564919238E+02  0.22797763671E+02  0.57941726675E+01  0.27153590909E+02  0.00000000000E+00 0. -1.
</event>
<event>
 7    1  0.5329250E-013  0.5052886E+02  0.7816164E-02  0.1300439E+00
        -11   -1    0    0    0    0  0.00000000000E+00  0.00000000000E+00  0.45593999997E+02  0.45594000000E+02  0.51100000000E-03 0.  1.
         11   -1    0    0    0    0 -0.00000000000E+00 -0.00000000000E+00 -0.45593999997E+02  0.45594000000E+02  0.51100000000E-03 0. -1.
    9900012    2    1    2    0    0  0.32830495889E+02 -0.20870356355E+02 -0.11821704278E+02  0.50528856788E+02  0.29999990693E+02 0.  0.
         12    1    1    2    0    0 -0.32830495889E+02  0.20870356355E+02  0.11821704278E+02  0.40659143212E+02  0.00000000000E+00 0. -1.
         11    1    3    3    0    0  0.24623016080E+02 -0.20006944139E+02  0.34268232992E+01  0.31911030269E+02  0.51100000000E-03 0. -1.
        -11    1    3    3    0    0  0.48835410388E+01 -0.34302122648E+00 -0.26276052363E+01  0.55561629006E+01  0.51100000000E-03 0.  1.
         12    1    3    3    0    0  0.33239387702E+01 -0.52039098955E+00 -0.12620922341E+02  0.13061663618E+02  0.00000000000E+00 0. -1.
</event>
<event>
 7    1  0.5329250E-013  0.5052886E+02  0.7816164E-02  0.1300439E+00
        -11   -1    0    0    0    0  0.00000000000E+00  0.00000000000E+00  0.45593999997E+02  0.45594000000E+02  0.51100000000E-03 0.  1.
         11   -1    0    0    0    0 -0.00000000000E+00 -0.00000000000E+00 -0.45593999997E+02  0.45594000000E+02  0.51100000000E-03 0. -1.
    9900012    2    1    2    0    0 -0.38499916446E+02 -0.97371273504E+00  0.13037409241E+02  0.50528859299E+02  0.29999998324E+02 0.  0.
         12    1    1    2    0    0  0.38499916446E+02  0.97371273504E+00 -0.13037409241E+02  0.40659140701E+02  0.00000000000E+00 0. -1.
         11    1    3    3    0    0 -0.19183381226E+01 -0.48884827593E+01  0.84165094050E+01  0.99204292077E+01  0.51100000000E-03 0. -1.
        -11    1    3    3    0    0 -0.16038088529E+02 -0.63060027820E+01  0.38050939472E+01  0.17648362387E+02  0.51100000000E-03 0.  1.
         12    1    3    3    0    0 -0.20543489795E+02  0.10220772806E+02  0.81580588838E+00  0.22960067704E+02  0.00000000000E+00 0. -1.
</event>
<event>
 7    1  0.5329250E-013  0.5052886E+02  0.7816164E-02  0.1300439E+00
        -11   -1    0    0    0    0  0.00000000000E+00  0.00000000000E+00  0.45593999997E+02  0.45594000000E+02  0.51100000000E-03 0.  1.
         11   -1    0    0    0    0 -0.00000000000E+00 -0.00000000000E+00 -0.45593999997E+02  0.45594000000E+02  0.51100000000E-03 0. -1.
    9900012    2    1    2    0    0 -0.31318561168E+02  0.12944786671E+02  0.22466556861E+02  0.50528856468E+02  0.29999989720E+02 0.  0.
         12    1    1    2    0    0  0.31318561168E+02 -0.12944786671E+02 -0.22466556861E+02  0.40659143532E+02  0.00000000000E+00 0. -1.
         11    1    3    3    0    0 -0.21983402481E+01 -0.12877893151E+01 -0.45548828255E+01  0.52190093870E+01  0.51100000000E-03 0. -1.
        -11    1    3    3    0    0 -0.41758268198E+01 -0.30441282595E+01  0.79140605910E+01  0.94518041552E+01  0.51100000000E-03 0.  1.
         12    1    3    3    0    0 -0.24944394100E+02  0.17276704245E+02  0.19107379096E+02  0.35858042926E+02  0.00000000000E+00 0. -1.
</event>
<event>
 7    1  0.5329250E-013  0.5052888E+02  0.7816164E-02  0.1300439E+00
        -11   -1    0    0    0    0  0.00000000000E+00  0.00000000000E+00  0.45593999997E+02  0.45594000000E+02  0.51100000000E-03 0.  1.
         11   -1    0    0    0    0 -0.00000000000E+00 -0.00000000000E+00 -0.45593999997E+02  0.45594000000E+02  0.51100000000E-03 0. -1.
    9900012    2    1    2    0    0  0.34250362140E+02  0.15422723856E+02  0.15563312664E+02  0.50528875330E+02  0.30000047053E+02 0.  0.
         12    1    1    2    0    0 -0.34250362140E+02 -0.15422723856E+02 -0.15563312664E+02  0.40659124670E+02  0.00000000000E+00 0. -1.
         11    1    3    3    0    0  0.17227907518E+02  0.71830330738E+01  0.30832668497E+01  0.18918332281E+02  0.51100000000E-03 0.  1.
        -11    1    3    3    0    0  0.71280956913E+01  0.13664953464E+02  0.13215493258E+02  0.20302462010E+02  0.51100000000E-03 0. -1.
         12    1    3    3    0    0  0.98943589310E+01 -0.54252626820E+01 -0.73544744396E+00  0.11308081038E+02  0.00000000000E+00 0. -1.
</event>
<event>
 7    1  0.5329250E-013  0.5052887E+02  0.7816164E-02  0.1300439E+00
        -11   -1    0    0    0    0  0.00000000000E+00  0.00000000000E+00  0.45593999997E+02  0.45594000000E+02  0.51100000000E-03 0. -1.
         11   -1    0    0    0    0 -0.00000000000E+00 -0.00000000000E+00 -0.45593999997E+02  0.45594000000E+02  0.51100000000E-03 0.  1.
    9900012    2    1    2    0    0 -0.18949149129E+02  0.55787719574E+01 -0.35538319287E+02  0.50528867114E+02  0.30000022081E+02 0.  0.
         12    1    1    2    0    0  0.18949149129E+02 -0.55787719574E+01  0.35538319287E+02  0.40659132886E+02  0.00000000000E+00 0. -1.
         11    1    3    3    0    0 -0.93356073626E+01  0.12496321182E+02 -0.97280261129E+01  0.18383310372E+02  0.51100000000E-03 0. -1.
        -11    1    3    3    0    0 -0.11693307787E+02  0.22766683052E-01 -0.13487834571E+02  0.17850928463E+02  0.51100000000E-03 0.  1.
        -12    1    3    3    0    0  0.20797660209E+01 -0.69403159080E+01 -0.12322458603E+02  0.14294628279E+02  0.00000000000E+00 0.  1.
</event>
<event>
 7    1  0.5329250E-013  0.5052886E+02  0.7816164E-02  0.1300439E+00
        -11   -1    0    0    0    0  0.00000000000E+00  0.00000000000E+00  0.45593999997E+02  0.45594000000E+02  0.51100000000E-03 0.  1.
         11   -1    0    0    0    0 -0.00000000000E+00 -0.00000000000E+00 -0.45593999997E+02  0.45594000000E+02  0.51100000000E-03 0. -1.
    9900012    2    1    2    0    0 -0.72143348912E+01  0.38783126641E+02  0.98482364191E+01  0.50528864489E+02  0.30000014100E+02 0.  0.
         12    1    1    2    0    0  0.72143348912E+01 -0.38783126641E+02 -0.98482364191E+01  0.40659135511E+02  0.00000000000E+00 0. -1.
         11    1    3    3    0    0 -0.55257379862E+01  0.28238130400E+01 -0.24632170222E+01  0.66764615431E+01  0.51100000000E-03 0. -1.
        -11    1    3    3    0    0 -0.31092944406E+01  0.22789388807E+02 -0.34565851754E+01  0.23258803396E+02  0.51100000000E-03 0.  1.
        -12    1    3    3    0    0  0.14206975355E+01  0.13169924794E+02  0.15768038617E+02  0.20593599549E+02  0.00000000000E+00 0.  1.
</event>
<event>
 7    1  0.5329250E-013  0.5052884E+02  0.7816164E-02  0.1300439E+00
        -11   -1    0    0    0    0  0.00000000000E+00  0.00000000000E+00  0.45593999997E+02  0.45594000000E+02  0.51100000000E-03 0.  1.
         11   -1    0    0    0    0 -0.00000000000E+00 -0.00000000000E+00 -0.45593999997E+02  0.45594000000E+02  0.51100000000E-03 0. -1.
    9900012    2    1    2    0    0  0.19623151523E+02  0.33823510029E+02  0.11138660340E+02  0.50528835467E+02  0.29999925884E+02 0.  0.
         12    1    1    2    0    0 -0.19623151523E+02 -0.33823510029E+02 -0.11138660340E+02  0.40659164533E+02  0.00000000000E+00 0. -1.
         11    1    3    3    0    0  0.60275279191E+01  0.51552608961E+01  0.12151297506E+02  0.14510749087E+02  0.51100000000E-03 0. -1.
        -11    1    3    3    0    0  0.87138548812E+01  0.12789035980E+02  0.76714424696E+01  0.17272571841E+02  0.51100000000E-03 0.  1.
         12    1    3    3    0    0  0.48817687228E+01  0.15879213153E+02 -0.86840796348E+01  0.18745514539E+02  0.00000000000E+00 0. -1.
</event>
<event>
 7    1  0.5329250E-013  0.5052886E+02  0.7816164E-02  0.1300439E+00
        -11   -1    0    0    0    0  0.00000000000E+00  0.00000000000E+00  0.45593999997E+02  0.45594000000E+02  0.51100000000E-03 0. -1.
         11   -1    0    0    0    0 -0.00000000000E+00 -0.00000000000E+00 -0.45593999997E+02  0.45594000000E+02  0.51100000000E-03 0.  1.
    9900012    2    1    2    0    0  0.66358166065E+01 -0.40045028333E+02 -0.23510155441E+01  0.50528860433E+02  0.30000001772E+02 0.  0.
         12    1    1    2    0    0 -0.66358166065E+01  0.40045028333E+02  0.23510155441E+01  0.40659139567E+02  0.00000000000E+00 0. -1.
         11    1    3    3    0    0  0.39817078796E+00  0.72393741739E+00  0.15343771913E+01  0.17426815506E+01  0.51100000000E-03 0. -1.
        -11    1    3    3    0    0  0.15872271905E+02 -0.22910514346E+02  0.10924226616E+01  0.27892903588E+02  0.51100000000E-03 0.  1.
        -12    1    3    3    0    0 -0.96346260869E+01 -0.17858451405E+02 -0.49778153969E+01  0.20893275294E+02  0.00000000000E+00 0.  1.
</event>
<event>
 7    1  0.5329250E-013  0.5052886E+02  0.7816164E-02  0.1300439E+00
        -11   -1    0    0    0    0  0.00000000000E+00  0.00000000000E+00  0.45593999997E+02  0.45594000000E+02  0.51100000000E-03 0.  1.
         11   -1    0    0    0    0 -0.00000000000E+00 -0.00000000000E+00 -0.45593999997E+02  0.45594000000E+02  0.51100000000E-03 0. -1.
    9900012    2    1    2    0    0  0.27402238975E+02  0.48135671627E+01  0.29649827957E+02  0.50528862927E+02  0.30000009353E+02 0.  0.
         12    1    1    2    0    0 -0.27402238975E+02 -0.48135671627E+01 -0.29649827957E+02  0.40659137073E+02  0.00000000000E+00 0. -1.
         11    1    3    3    0    0  0.77282082026E+01 -0.83002710313E+01  0.17188824779E+02  0.20593091044E+02  0.51100000000E-03 0. -1.
        -11    1    3    3    0    0  0.53228261994E-01  0.16344044240E+01 -0.23069433043E+01  0.28277373887E+01  0.51100000000E-03 0.  1.
        -12    1    3    3    0    0  0.19620802510E+02  0.11479433770E+02  0.14767946482E+02  0.27108034494E+02  0.00000000000E+00 0.  1.
</event>
<event>
 7    1  0.5329250E-013  0.5052887E+02  0.7816164E-02  0.1300439E+00
        -11   -1    0    0    0    0  0.00000000000E+00  0.00000000000E+00  0.45593999997E+02  0.45594000000E+02  0.51100000000E-03 0.  1.
         11   -1    0    0    0    0 -0.00000000000E+00 -0.00000000000E+00 -0.45593999997E+02  0.45594000000E+02  0.51100000000E-03 0. -1.
    9900012    2    1    2    0    0  0.32839791940E+02  0.22496998970E+02  0.82823796495E+01  0.50528871751E+02  0.30000036175E+02 0.  0.
         12    1    1    2    0    0 -0.32839791940E+02 -0.22496998970E+02 -0.82823796495E+01  0.40659128249E+02  0.00000000000E+00 0. -1.
         11    1    3    3    0    0  0.62563139251E+01 -0.22931986858E+01 -0.30232860729E+01  0.73171362623E+01  0.51100000000E-03 0. -1.
        -11    1    3    3    0    0  0.13680036051E+01  0.84591605356E+01 -0.40441131329E+01  0.94754251685E+01  0.51100000000E-03 0.  1.
         12    1    3    3    0    0  0.25215474410E+02  0.16331037120E+02  0.15349778855E+02  0.33736310320E+02  0.00000000000E+00 0. -1.
</event>
<event>
 7    1  0.5329250E-013  0.5052885E+02  0.7816164E-02  0.1300439E+00
        -11   -1    0    0    0    0  0.00000000000E+00  0.00000000000E+00  0.45593999997E+02  0.45594000000E+02  0.51100000000E-03 0.  1.
         11   -1    0    0    0    0 -0.00000000000E+00 -0.00000000000E+00 -0.45593999997E+02  0.45594000000E+02  0.51100000000E-03 0. -1.
    9900012    2    1    2    0    0  0.16440549745E+02 -0.23527475053E+01  0.37112518259E+02  0.50528854556E+02  0.29999983909E+02 0.  0.
         12    1    1    2    0    0 -0.16440549745E+02  0.23527475053E+01 -0.37112518259E+02  0.40659145444E+02  0.00000000000E+00 0. -1.
         11    1    3    3    0    0 -0.31592831840E+01  0.47152741659E+01  0.11969680108E+02  0.13247193018E+02  0.51100000000E-03 0. -1.
        -11    1    3    3    0    0  0.14363585292E+02  0.35260169841E+01  0.18634481666E+02  0.23790529322E+02  0.51100000000E-03 0.  1.
        -12    1    3    3    0    0  0.52362476366E+01 -0.10594038655E+02  0.65083564844E+01  0.13491132216E+02  0.00000000000E+00 0.  1.
</event>
<event>
 7    1  0.5329250E-013  0.5052877E+02  0.7816164E-02  0.1300439E+00
        -11   -1    0    0    0    0  0.00000000000E+00  0.00000000000E+00  0.45593999997E+02  0.45594000000E+02  0.51100000000E-03 0.  1.
         11   -1    0    0    0    0 -0.00000000000E+00 -0.00000000000E+00 -0.45593999997E+02  0.45594000000E+02  0.51100000000E-03 0. -1.
    9900012    2    1    2    0    0 -0.13607648457E+02 -0.38294670609E+02  0.12340637609E+01  0.50528772179E+02  0.29999733515E+02 0.  0.
         12    1    1    2    0    0  0.13607648457E+02  0.38294670609E+02 -0.12340637609E+01  0.40659227821E+02  0.00000000000E+00 0. -1.
         11    1    3    3    0    0 -0.53149230974E+01 -0.15681953833E+01 -0.15608616457E+01  0.57570768303E+01  0.51100000000E-03 0.  1.
        -11    1    3    3    0    0  0.26276633006E+01 -0.85257013239E+01 -0.86602317983E+01  0.12433495588E+02  0.51100000000E-03 0. -1.
         12    1    3    3    0    0 -0.10920388660E+02 -0.28200773902E+02  0.11455157205E+02  0.32338199761E+02  0.00000000000E+00 0. -1.
</event>
<event>
 7    1  0.5329250E-013  0.5052886E+02  0.7816164E-02  0.1300439E+00
        -11   -1    0    0    0    0  0.00000000000E+00  0.00000000000E+00  0.45593999997E+02  0.45594000000E+02  0.51100000000E-03 0.  1.
         11   -1    0    0    0    0 -0.00000000000E+00 -0.00000000000E+00 -0.45593999997E+02  0.45594000000E+02  0.51100000000E-03 0. -1.
    9900012    2    1    2    0    0 -0.10385735285E+02 -0.25840884621E+02  0.29623483601E+02  0.50528860854E+02  0.30000003052E+02 0.  0.
         12    1    1    2    0    0  0.10385735285E+02  0.25840884621E+02 -0.29623483601E+02  0.40659139146E+02  0.00000000000E+00 0. -1.
         11    1    3    3    0    0  0.44657288165E+01 -0.10170594204E+02  0.21561968103E+02  0.24254941539E+02  0.51100000000E-03 0. -1.
        -11    1    3    3    0    0  0.10998032830E+01 -0.46085335016E+01  0.45079446942E+01  0.65398558030E+01  0.51100000000E-03 0.  1.
         12    1    3    3    0    0 -0.15951267385E+02 -0.11061756915E+02  0.35535708041E+01  0.19734063512E+02  0.00000000000E+00 0. -1.
</event>
<event>
 7    1  0.5329250E-013  0.5052886E+02  0.7816164E-02  0.1300439E+00
        -11   -1    0    0    0    0  0.00000000000E+00  0.00000000000E+00  0.45593999997E+02  0.45594000000E+02  0.51100000000E-03 0.  1.
         11   -1    0    0    0    0 -0.00000000000E+00 -0.00000000000E+00 -0.45593999997E+02  0.45594000000E+02  0.51100000000E-03 0. -1.
    9900012    2    1    2    0    0  0.30713082885E+02  0.84608651801E+01  0.25264319517E+02  0.50528861537E+02  0.30000005129E+02 0.  0.
         12    1    1    2    0    0 -0.30713082885E+02 -0.84608651801E+01 -0.25264319517E+02  0.40659138463E+02  0.00000000000E+00 0. -1.
         11    1    3    3    0    0  0.57402482096E+01  0.97661238506E+01  0.86115806328E+01  0.14229790787E+02  0.51100000000E-03 0. -1.
        -11    1    3    3    0    0  0.48706218225E+01  0.82338651512E+01  0.23601041177E+01  0.98534046895E+01  0.51100000000E-03 0.  1.
         12    1    3    3    0    0  0.20102212853E+02 -0.95391238217E+01  0.14292634766E+02  0.26445666061E+02  0.00000000000E+00 0. -1.
</event>
<event>
 7    1  0.5329250E-013  0.5052888E+02  0.7816164E-02  0.1300439E+00
        -11   -1    0    0    0    0  0.00000000000E+00  0.00000000000E+00  0.45593999997E+02  0.45594000000E+02  0.51100000000E-03 0. -1.
         11   -1    0    0    0    0 -0.00000000000E+00 -0.00000000000E+00 -0.45593999997E+02  0.45594000000E+02  0.51100000000E-03 0.  1.
    9900012    2    1    2    0    0 -0.28200398750E+02  0.24981892299E+02 -0.15290733902E+02  0.50528880780E+02  0.30000063619E+02 0.  0.
         12    1    1    2    0    0  0.28200398750E+02 -0.24981892299E+02  0.15290733902E+02  0.40659119220E+02  0.00000000000E+00 0. -1.
         11    1    3    3    0    0 -0.16737087185E+01  0.95066378862E+00 -0.10149733330E+02  0.10330641289E+02  0.51100000000E-03 0. -1.
        -11    1    3    3    0    0  0.12868338150E+01  0.20197118573E+01  0.29677373007E+01  0.38134816377E+01  0.51100000000E-03 0.  1.
        -12    1    3    3    0    0 -0.27813523846E+02  0.22011516653E+02 -0.81087378724E+01  0.36384757853E+02  0.00000000000E+00 0.  1.
</event>
<event>
 7    1  0.5329250E-013  0.5052876E+02  0.7816164E-02  0.1300439E+00
        -11   -1    0    0    0    0  0.00000000000E+00  0.00000000000E+00  0.45593999997E+02  0.45594000000E+02  0.51100000000E-03 0. -1.
         11   -1    0    0    0    0 -0.00000000000E+00 -0.00000000000E+00 -0.45593999997E+02  0.45594000000E+02  0.51100000000E-03 0.  1.
    9900012    2    1    2    0    0  0.28760179387E+02 -0.24972980050E+02 -0.14225888814E+02  0.50528762876E+02  0.29999705237E+02 0.  0.
         12    1    1    2    0    0 -0.28760179387E+02  0.24972980050E+02  0.14225888814E+02  0.40659237124E+02  0.00000000000E+00 0. -1.
         11    1    3    3    0    0  0.17400127111E+02 -0.34106641094E+00 -0.52112865232E+01  0.18166955091E+02  0.51100000000E-03 0. -1.
        -11    1    3    3    0    0  0.98782105549E+01 -0.91778782133E+01 -0.10027825073E+02  0.16803861705E+02  0.51100000000E-03 0.  1.
         12    1    3    3    0    0  0.14818417209E+01 -0.15454035426E+02  0.10132227821E+01  0.15557946080E+02  0.00000000000E+00 0. -1.
</event>
<event>
 7    1  0.5329250E-013  0.5052887E+02  0.7816164E-02  0.1300439E+00
        -11   -1    0    0    0    0  0.00000000000E+00  0.00000000000E+00  0.45593999997E+02  0.45594000000E+02  0.51100000000E-03 0.  1.
         11   -1    0    0    0    0 -0.00000000000E+00 -0.00000000000E+00 -0.45593999997E+02  0.45594000000E+02  0.51100000000E-03 0. -1.
    9900012    2    1    2    0    0  0.48202235837E+01  0.18056701371E+02  0.36109358776E+02  0.50528870508E+02  0.30000032396E+02 0.  0.
         12    1    1    2    0    0 -0.48202235837E+01 -0.18056701371E+02 -0.36109358776E+02  0.40659129492E+02  0.00000000000E+00 0. -1.
         11    1    3    3    0    0  0.47779629253E+01 -0.37381538833E+01  0.61651928208E+00  0.60977717617E+01  0.51100000000E-03 0. -1.
        -11    1    3    3    0    0 -0.55345042565E+01  0.23174015272E+01  0.49442312844E+01  0.77747353947E+01  0.51100000000E-03 0.  1.
        -12    1    3    3    0    0  0.55767649149E+01  0.19477453727E+02  0.30548608210E+02  0.36656363352E+02  0.00000000000E+00 0.  1.
</event>
<event>
 7    1  0.5329250E-013  0.5052885E+02  0.7816164E-02  0.1300439E+00
        -11   -1    0    0    0    0  0.00000000000E+00  0.00000000000E+00  0.45593999997E+02  0.45594000000E+02  0.51100000000E-03 0.  1.
         11   -1    0    0    0    0 -0.00000000000E+00 -0.00000000000E+00 -0.45593999997E+02  0.45594000000E+02  0.51100000000E-03 0. -1.
    9900012    2    1    2    0    0  0.13002591952E+02 -0.46918871206E+01  0.38237222899E+02  0.50528850755E+02  0.29999972356E+02 0.  0.
         12    1    1    2    0    0 -0.13002591952E+02  0.46918871206E+01 -0.38237222899E+02  0.40659149245E+02  0.00000000000E+00 0. -1.
         11    1    3    3    0    0  0.32840115471E+01  0.27774688542E+01 -0.61744859020E+00  0.43451476500E+01  0.51100000000E-03 0. -1.
        -11    1    3    3    0    0  0.79261754843E+01  0.36676398623E+01  0.41073464194E+01  0.96512245253E+01  0.51100000000E-03 0.  1.
        -12    1    3    3    0    0  0.17924049207E+01 -0.11136995837E+02  0.34747325070E+02  0.36532478580E+02  0.00000000000E+00 0.  1.
</event>
<event>
 7    1  0.5329250E-013  0.5052886E+02  0.7816164E-02  0.1300439E+00
        -11   -1    0    0    0    0  0.00000000000E+00  0.00000000000E+00  0.45593999997E+02  0.45594000000E+02  0.51100000000E-03 0.  1.
         11   -1    0    0    0    0 -0.00000000000E+00 -0.00000000000E+00 -0.45593999997E+02  0.45594000000E+02  0.51100000000E-03 0. -1.
    9900012    2    1    2    0    0  0.29516544647E+02 -0.22746207125E+02  0.16264975380E+02  0.50528858708E+02  0.29999996530E+02 0.  0.
         12    1    1    2    0    0 -0.29516544647E+02  0.22746207125E+02 -0.16264975380E+02  0.40659141292E+02  0.00000000000E+00 0. -1.
         11    1    3    3    0    0 -0.13334207236E+01 -0.81420226700E+01  0.27569742718E+01  0.86989339221E+01  0.51100000000E-03 0. -1.
        -11    1    3    3    0    0  0.20610329863E+02 -0.17054977186E+02  0.15779524472E+02  0.31058836693E+02  0.51100000000E-03 0.  1.
        -12    1    3    3    0    0  0.10239635507E+02  0.24507927306E+01 -0.22715233635E+01  0.10771088094E+02  0.00000000000E+00 0.  1.
</event>
<event>
 7    1  0.5329250E-013  0.5052889E+02  0.7816164E-02  0.1300439E+00
        -11   -1    0    0    0    0  0.00000000000E+00  0.00000000000E+00  0.45593999997E+02  0.45594000000E+02  0.51100000000E-03 0. -1.
         11   -1    0    0    0    0 -0.00000000000E+00 -0.00000000000E+00 -0.45593999997E+02  0.45594000000E+02  0.51100000000E-03 0.  1.
    9900012    2    1    2    0    0 -0.84495639379E+00  0.32498548818E+02 -0.24419128136E+02  0.50528887300E+02  0.30000083438E+02 0.  0.
         12    1    1    2    0    0  0.84495639379E+00 -0.32498548818E+02  0.24419128136E+02  0.40659112700E+02  0.00000000000E+00 0. -1.
         11    1    3    3    0    0  0.11420392787E+01  0.11726183001E+02 -0.10465327319E+02  0.15758511911E+02  0.51100000000E-03 0.  1.
        -11    1    3    3    0    0  0.65784997476E+01  0.17772532154E+02 -0.10309180805E+01  0.18978997615E+02  0.51100000000E-03 0. -1.
        -12    1    3    3    0    0 -0.85654954201E+01  0.29998336625E+01 -0.12922882736E+02  0.15791377774E+02  0.00000000000E+00 0.  1.
</event>
<event>
 7    1  0.5329250E-013  0.5052886E+02  0.7816164E-02  0.1300439E+00
        -11   -1    0    0    0    0  0.00000000000E+00  0.00000000000E+00  0.45593999997E+02  0.45594000000E+02  0.51100000000E-03 0.  1.
         11   -1    0    0    0    0 -0.00000000000E+00 -0.00000000000E+00 -0.45593999997E+02  0.45594000000E+02  0.51100000000E-03 0. -1.
    9900012    2    1    2    0    0 -0.13785082441E+02 -0.54180779805E+01  0.37865313248E+02  0.50528855712E+02  0.29999987422E+02 0.  0.
         12    1    1    2    0    0  0.13785082441E+02  0.54180779805E+01 -0.37865313248E+02  0.40659144288E+02  0.00000000000E+00 0. -1.
         11    1    3    3    0    0 -0.11361872722E+01  0.21863528960E+01  0.94716734882E+01  0.97869126609E+01  0.51100000000E-03 0.  1.
        -11    1    3    3    0    0 -0.68564687125E+00 -0.12909725364E+02  0.23401978753E+02  0.26735439597E+02  0.51100000000E-03 0. -1.
         12    1    3    3    0    0 -0.11963248297E+02  0.53052944874E+01  0.49916610061E+01  0.14006503454E+02  0.00000000000E+00 0. -1.
</event>
<event>
 7    1  0.5329250E-013  0.5052886E+02  0.7816164E-02  0.1300439E+00
        -11   -1    0    0    0    0  0.00000000000E+00  0.00000000000E+00  0.45593999997E+02  0.45594000000E+02  0.51100000000E-03 0.  1.
         11   -1    0    0    0    0 -0.00000000000E+00 -0.00000000000E+00 -0.45593999997E+02  0.45594000000E+02  0.51100000000E-03 0. -1.
    9900012    2    1    2    0    0 -0.96041373430E+01 -0.21183750860E+02  0.33349283761E+02  0.50528862257E+02  0.30000007317E+02 0.  0.
         12    1    1    2    0    0  0.96041373430E+01  0.21183750860E+02 -0.33349283761E+02  0.40659137743E+02  0.00000000000E+00 0. -1.
         11    1    3    3    0    0 -0.56461795677E+01 -0.27760864164E+01  0.35602863251E+01  0.72292211531E+01  0.51100000000E-03 0. -1.
        -11    1    3    3    0    0 -0.69106547177E+01 -0.13908795167E+02  0.33389547782E+02  0.36824905064E+02  0.51100000000E-03 0.  1.
         12    1    3    3    0    0  0.29526969424E+01 -0.44988692765E+01 -0.36005503454E+01  0.64747360403E+01  0.00000000000E+00 0. -1.
</event>
<event>
 7    1  0.5329250E-013  0.5052886E+02  0.7816164E-02  0.1300439E+00
        -11   -1    0    0    0    0  0.00000000000E+00  0.00000000000E+00  0.45593999997E+02  0.45594000000E+02  0.51100000000E-03 0. -1.
         11   -1    0    0    0    0 -0.00000000000E+00 -0.00000000000E+00 -0.45593999997E+02  0.45594000000E+02  0.51100000000E-03 0.  1.
    9900012    2    1    2    0    0  0.18072623763E+02 -0.11480481996E+02 -0.34565075828E+02  0.50528860025E+02  0.30000000531E+02 0.  0.
         12    1    1    2    0    0 -0.18072623763E+02  0.11480481996E+02  0.34565075828E+02  0.40659139975E+02  0.00000000000E+00 0. -1.
         11    1    3    3    0    0  0.50626795223E+01 -0.63929798180E+01  0.12505766464E+01  0.82501428538E+01  0.51100000000E-03 0. -1.
        -11    1    3    3    0    0  0.14009015010E+02 -0.17554708784E+01 -0.12976336936E+02  0.19176013665E+02  0.51100000000E-03 0.  1.
        -12    1    3    3    0    0 -0.99907076981E+00 -0.33320312991E+01 -0.22839315539E+02  0.23102703505E+02  0.00000000000E+00 0.  1.
</event>
<event>
 7    1  0.5329250E-013  0.5052894E+02  0.7816164E-02  0.1300439E+00
        -11   -1    0    0    0    0  0.00000000000E+00  0.00000000000E+00  0.45593999997E+02  0.45594000000E+02  0.51100000000E-03 0.  1.
         11   -1    0    0    0    0 -0.00000000000E+00 -0.00000000000E+00 -0.45593999997E+02  0.45594000000E+02  0.51100000000E-03 0. -1.
    9900012    2    1    2    0    0  0.34203951394E+01 -0.37310479074E+02  0.15792026101E+02  0.50528941476E+02  0.30000248110E+02 0.  0.
         12    1    1    2    0    0 -0.34203951394E+01  0.37310479074E+02 -0.15792026101E+02  0.40659058524E+02  0.00000000000E+00 0. -1.
         11    1    3    3    0    0 -0.26623286412E+01 -0.57438336459E+00 -0.18490370928E+01  0.32919368880E+01  0.51100000000E-03 0. -1.
        -11    1    3    3    0    0 -0.45487287171E+01 -0.30445728931E+02  0.16240155124E+02  0.34804826990E+02  0.51100000000E-03 0.  1.
         12    1    3    3    0    0  0.10631452498E+02 -0.62903667787E+01  0.14009080698E+01  0.12432177598E+02  0.00000000000E+00 0. -1.
</event>
<event>
 7    1  0.5329250E-013  0.5052886E+02  0.7816164E-02  0.1300439E+00
        -11   -1    0    0    0    0  0.00000000000E+00  0.00000000000E+00  0.45593999997E+02  0.45594000000E+02  0.51100000000E-03 0.  1.
         11   -1    0    0    0    0 -0.00000000000E+00 -0.00000000000E+00 -0.45593999997E+02  0.45594000000E+02  0.51100000000E-03 0. -1.
    9900012    2    1    2    0    0  0.23513036092E+02  0.31888768922E+02 -0.91328575339E+01  0.50528861588E+02  0.30000005283E+02 0.  0.
         12    1    1    2    0    0 -0.23513036092E+02 -0.31888768922E+02  0.91328575339E+01  0.40659138412E+02  0.00000000000E+00 0. -1.
         11    1    3    3    0    0  0.12735313712E+02  0.62221016119E+01  0.28381358727E+01  0.14455371987E+02  0.51100000000E-03 0. -1.
        -11    1    3    3    0    0  0.11784641286E+02  0.26651173919E+02 -0.57591892178E+01  0.29704058682E+02  0.51100000000E-03 0.  1.
         12    1    3    3    0    0 -0.10069189056E+01 -0.98450660830E+00 -0.62118041888E+01  0.63694309184E+01  0.00000000000E+00 0. -1.
</event>
<event>
 7    1  0.5329250E-013  0.5052883E+02  0.7816164E-02  0.1300439E+00
        -11   -1    0    0    0    0  0.00000000000E+00  0.00000000000E+00  0.45593999997E+02  0.45594000000E+02  0.51100000000E-03 0. -1.
         11   -1    0    0    0    0 -0.00000000000E+00 -0.00000000000E+00 -0.45593999997E+02  0.45594000000E+02  0.51100000000E-03 0.  1.
    9900012    2    1    2    0    0  0.81470237088E-01 -0.34651240171E+02 -0.21270938471E+02  0.50528832445E+02  0.29999916701E+02 0.  0.
         12    1    1    2    0    0 -0.81470237088E-01  0.34651240171E+02  0.21270938471E+02  0.40659167555E+02  0.00000000000E+00 0. -1.
         11    1    3    3    0    0 -0.21375831646E+01  0.27385468073E+00  0.40405954284E+01  0.45793743949E+01  0.51100000000E-03 0. -1.
        -11    1    3    3    0    0  0.56830495861E+01 -0.43600894350E+01 -0.76460752127E+01  0.10477113099E+02  0.51100000000E-03 0.  1.
         12    1    3    3    0    0 -0.34639961844E+01 -0.30565005417E+02 -0.17665458687E+02  0.35472344951E+02  0.00000000000E+00 0. -1.
</event>
<event>
 7    1  0.5329250E-013  0.5052877E+02  0.7816164E-02  0.1300439E+00
        -11   -1    0    0    0    0  0.00000000000E+00  0.00000000000E+00  0.45593999997E+02  0.45594000000E+02  0.51100000000E-03 0.  1.
         11   -1    0    0    0    0 -0.00000000000E+00 -0.00000000000E+00 -0.45593999997E+02  0.45594000000E+02  0.51100000000E-03 0. -1.
    9900012    2    1    2    0    0 -0.28941237930E+02 -0.13300714866E+02  0.25271891049E+02  0.50528772929E+02  0.29999735793E+02 0.  0.
         12    1    1    2    0    0  0.28941237930E+02  0.13300714866E+02 -0.25271891049E+02  0.40659227071E+02  0.00000000000E+00 0. -1.
         11    1    3    3    0    0 -0.10717843132E+02  0.43845607397E+01  0.94615342781E+01  0.14953834473E+02  0.51100000000E-03 0.  1.
        -11    1    3    3    0    0 -0.10216089757E+02 -0.67267041595E+01  0.18065109424E+02  0.21816627089E+02  0.51100000000E-03 0. -1.
         12    1    3    3    0    0 -0.80073050404E+01 -0.10958571446E+02 -0.22547526528E+01  0.13758311367E+02  0.00000000000E+00 0. -1.
</event>
<event>
 7    1  0.5329250E-013  0.5052886E+02  0.7816164E-02  0.1300439E+00
        -11   -1    0    0    0    0  0.00000000000E+00  0.00000000000E+00  0.45593999997E+02  0.45594000000E+02  0.51100000000E-03 0. -1.
         11   -1    0    0    0    0 -0.00000000000E+00 -0.00000000000E+00 -0.45593999997E+02  0.45594000000E+02  0.51100000000E-03 0.  1.
    9900012    2    1    2    0    0  0.17327971452E+02 -0.34931002869E+02 -0.11520948141E+02  0.50528858320E+02  0.29999995349E+02 0.  0.
         12    1    1    2    0    0 -0.17327971452E+02  0.34931002869E+02  0.11520948141E+02  0.40659141680E+02  0.00000000000E+00 0. -1.
         11    1    3    3    0    0  0.10260929003E+01 -0.19213381259E+02 -0.14384084236E+02  0.24023088178E+02  0.51100000000E-03 0.  1.
        -11    1    3    3    0    0  0.10497181057E+02 -0.11917554603E+02 -0.43816087111E+01  0.16474750773E+02  0.51100000000E-03 0. -1.
         12    1    3    3    0    0  0.58046974947E+01 -0.38000670069E+01  0.72447448064E+01  0.10031019369E+02  0.00000000000E+00 0. -1.
</event>
<event>
 7    1  0.6900580E-013  0.5052884E+02  0.7816164E-02  0.1300439E+00
        -11   -1    0    0    0    0  0.00000000000E+00  0.00000000000E+00  0.45593999997E+02  0.45594000000E+02  0.51100000000E-03 0. -1.
         11   -1    0    0    0    0 -0.00000000000E+00 -0.00000000000E+00 -0.45593999997E+02  0.45594000000E+02  0.51100000000E-03 0.  1.
    9900012    2    1    2    0    0  0.22992637458E+01  0.34241262224E+02 -0.21804042252E+02  0.50528844685E+02  0.29999953903E+02 0.  0.
         12    1    1    2    0    0 -0.22992637458E+01 -0.34241262224E+02  0.21804042252E+02  0.40659155315E+02  0.00000000000E+00 0. -1.
         11    1    3    3    0    0  0.56795460846E+01 -0.11736186268E+01 -0.26385453866E+01  0.63715419191E+01  0.51100000000E-03 0. -1.
        -11    1    3    3    0    0  0.69156026969E+01  0.13704995200E+02 -0.44555756190E+01  0.15984511517E+02  0.51100000000E-03 0.  1.
        -12    1    3    3    0    0 -0.10295885036E+02  0.21709885651E+02 -0.14709921246E+02  0.28172791248E+02  0.00000000000E+00 0.  1.
</event>
<event>
 7    1  0.5329250E-013  0.5052885E+02  0.7816164E-02  0.1300439E+00
        -11   -1    0    0    0    0  0.00000000000E+00  0.00000000000E+00  0.45593999997E+02  0.45594000000E+02  0.51100000000E-03 0.  1.
         11   -1    0    0    0    0 -0.00000000000E+00 -0.00000000000E+00 -0.45593999997E+02  0.45594000000E+02  0.51100000000E-03 0. -1.
    9900012    2    1    2    0    0 -0.38096860824E+02  0.11364440304E+02  0.85231920851E+01  0.50528854517E+02  0.29999983790E+02 0.  0.
         12    1    1    2    0    0  0.38096860824E+02 -0.11364440304E+02 -0.85231920851E+01  0.40659145483E+02  0.00000000000E+00 0. -1.
         11    1    3    3    0    0 -0.27667776873E+02  0.12193227079E+02  0.15668444930E+02  0.34054086840E+02  0.51100000000E-03 0. -1.
        -11    1    3    3    0    0 -0.73411778220E+01  0.44780915003E+01 -0.31932251125E+01  0.91729429399E+01  0.51100000000E-03 0.  1.
         12    1    3    3    0    0 -0.30879061290E+01 -0.53068782755E+01 -0.39520277327E+01  0.73018247372E+01  0.00000000000E+00 0. -1.
</event>
<event>
 7    1  0.5329250E-013  0.5052886E+02  0.7816164E-02  0.1300439E+00
        -11   -1    0    0    0    0  0.00000000000E+00  0.00000000000E+00  0.45593999997E+02  0.45594000000E+02  0.51100000000E-03 0. -1.
         11   -1    0    0    0    0 -0.00000000000E+00 -0.00000000000E+00 -0.45593999997E+02  0.45594000000E+02  0.51100000000E-03 0.  1.
    9900012    2    1    2    0    0  0.33256895132E+01 -0.27411862171E+02 -0.29844515677E+02  0.50528861859E+02  0.30000006105E+02 0.  0.
         12    1    1    2    0    0 -0.33256895132E+01  0.27411862171E+02  0.29844515677E+02  0.40659138141E+02  0.00000000000E+00 0. -1.
         11    1    3    3    0    0 -0.98006850919E+01 -0.10529748979E+02 -0.14498181110E+02  0.20423670032E+02  0.51100000000E-03 0. -1.
        -11    1    3    3    0    0 -0.78044612656E+00 -0.39477533503E+00  0.21569705295E+01  0.23275450259E+01  0.51100000000E-03 0.  1.
        -12    1    3    3    0    0  0.13906820732E+02 -0.16487337857E+02 -0.17503305096E+02  0.27777646800E+02  0.00000000000E+00 0.  1.
</event>
<event>
 7    1  0.5329250E-013  0.5052886E+02  0.7816164E-02  0.1300439E+00
        -11   -1    0    0    0    0  0.00000000000E+00  0.00000000000E+00  0.45593999997E+02  0.45594000000E+02  0.51100000000E-03 0.  1.
         11   -1    0    0    0    0 -0.00000000000E+00 -0.00000000000E+00 -0.45593999997E+02  0.45594000000E+02  0.51100000000E-03 0. -1.
    9900012    2    1    2    0    0 -0.17397228970E+02 -0.57267769174E+00  0.36744717981E+02  0.50528857915E+02  0.29999994119E+02 0.  0.
         12    1    1    2    0    0  0.17397228970E+02  0.57267769174E+00 -0.36744717981E+02  0.40659142085E+02  0.00000000000E+00 0. -1.
         11    1    3    3    0    0  0.38604006163E+01 -0.20067847267E+01  0.50610357907E+01  0.66741262644E+01  0.51100000000E-03 0. -1.
        -11    1    3    3    0    0 -0.60130650842E+01 -0.59439669207E+00 -0.23691370662E+01  0.64902287968E+01  0.51100000000E-03 0.  1.
        -12    1    3    3    0    0 -0.15244564502E+02  0.20285037271E+01  0.34052819257E+02  0.37364502854E+02  0.00000000000E+00 0.  1.
</event>
<event>
 7    1  0.5329250E-013  0.5052885E+02  0.7816164E-02  0.1300439E+00
        -11   -1    0    0    0    0  0.00000000000E+00  0.00000000000E+00  0.45593999997E+02  0.45594000000E+02  0.51100000000E-03 0. -1.
         11   -1    0    0    0    0 -0.00000000000E+00 -0.00000000000E+00 -0.45593999997E+02  0.45594000000E+02  0.51100000000E-03 0.  1.
    9900012    2    1    2    0    0 -0.36226765215E+02 -0.51293564073E+01 -0.17733513102E+02  0.50528852173E+02  0.29999976666E+02 0.  0.
         12    1    1    2    0    0  0.36226765215E+02  0.51293564073E+01  0.17733513102E+02  0.40659147827E+02  0.00000000000E+00 0. -1.
         11    1    3    3    0    0 -0.16700247094E+02 -0.10058128680E+02 -0.11961633222E+00  0.19495602424E+02  0.51100000000E-03 0. -1.
        -11    1    3    3    0    0 -0.69630373696E+01 -0.52878477376E+01 -0.95342043858E+01  0.12936238891E+02  0.51100000000E-03 0.  1.
        -12    1    3    3    0    0 -0.12563480751E+02  0.10216620010E+02 -0.80796923838E+01  0.18097010859E+02  0.00000000000E+00 0.  1.
</event>
<event>
 7    1  0.5329250E-013  0.5052885E+02  0.7816164E-02  0.1300439E+00
        -11   -1    0    0    0    0  0.00000000000E+00  0.00000000000E+00  0.45593999997E+02  0.45594000000E+02  0.51100000000E-03 0.  1.
         11   -1    0    0    0    0 -0.00000000000E+00 -0.00000000000E+00 -0.45593999997E+02  0.45594000000E+02  0.51100000000E-03 0. -1.
    9900012    2    1    2    0    0 -0.36227203884E+02 -0.18447459742E+02  0.66869547655E+00  0.50528853110E+02  0.29999979513E+02 0.  0.
         12    1    1    2    0    0  0.36227203884E+02  0.18447459742E+02 -0.66869547655E+00  0.40659146890E+02  0.00000000000E+00 0. -1.
         11    1    3    3    0    0 -0.29575011117E+02 -0.66608259870E+01  0.71629371701E+01  0.31150530566E+02  0.51100000000E-03 0. -1.
        -11    1    3    3    0    0 -0.19865840801E+01 -0.36135576502E+01  0.36743120418E+01  0.55231227073E+01  0.51100000000E-03 0.  1.
         12    1    3    3    0    0 -0.46656086874E+01 -0.81730761048E+01 -0.10168553735E+02  0.13855199836E+02  0.00000000000E+00 0. -1.
</event>
<event>
 7    1  0.5329250E-013  0.5052884E+02  0.7816164E-02  0.1300439E+00
        -11   -1    0    0    0    0  0.00000000000E+00  0.00000000000E+00  0.45593999997E+02  0.45594000000E+02  0.51100000000E-03 0.  1.
         11   -1    0    0    0    0 -0.00000000000E+00 -0.00000000000E+00 -0.45593999997E+02  0.45594000000E+02  0.51100000000E-03 0. -1.
    9900012    2    1    2    0    0  0.21949882891E+02  0.87170728860E+01  0.33096565453E+02  0.50528839121E+02  0.29999936991E+02 0.  0.
         12    1    1    2    0    0 -0.21949882891E+02 -0.87170728860E+01 -0.33096565453E+02  0.40659160879E+02  0.00000000000E+00 0. -1.
         11    1    3    3    0    0  0.53864993484E+01 -0.24667634070E+01  0.16692700935E+02  0.17712864300E+02  0.51100000000E-03 0. -1.
        -11    1    3    3    0    0  0.11580025647E+02  0.47033342694E+01  0.20238045226E+02  0.23786484021E+02  0.51100000000E-03 0.  1.
         12    1    3    3    0    0  0.49833578957E+01  0.64805020237E+01 -0.38341807085E+01  0.90294907996E+01  0.00000000000E+00 0. -1.
</event>
<event>
 7    1  0.5329250E-013  0.5052886E+02  0.7816164E-02  0.1300439E+00
        -11   -1    0    0    0    0  0.00000000000E+00  0.00000000000E+00  0.45593999997E+02  0.45594000000E+02  0.51100000000E-03 0.  1.
         11   -1    0    0    0    0 -0.00000000000E+00 -0.00000000000E+00 -0.45593999997E+02  0.45594000000E+02  0.51100000000E-03 0. -1.
    9900012    2    1    2    0    0 -0.37544369171E+02 -0.13193927333E+02  0.83370189609E+01  0.50528864987E+02  0.30000015613E+02 0.  0.
         12    1    1    2    0    0  0.37544369171E+02  0.13193927333E+02 -0.83370189609E+01  0.40659135013E+02  0.00000000000E+00 0. -1.
         11    1    3    3    0    0  0.16353469320E+00 -0.71941925980E+00  0.24503956226E+01  0.25590519017E+01  0.51100000000E-03 0. -1.
        -11    1    3    3    0    0 -0.33809393996E+02 -0.14157555627E+02  0.13656467928E+02  0.39115350187E+02  0.51100000000E-03 0.  1.
         12    1    3    3    0    0 -0.38985098673E+01  0.16830475539E+01 -0.77698445899E+01  0.88544628976E+01  0.00000000000E+00 0. -1.
</event>
<event>
 7    1  0.5329250E-013  0.5052888E+02  0.7816164E-02  0.1300439E+00
        -11   -1    0    0    0    0  0.00000000000E+00  0.00000000000E+00  0.45593999997E+02  0.45594000000E+02  0.51100000000E-03 0.  1.
         11   -1    0    0    0    0 -0.00000000000E+00 -0.00000000000E+00 -0.45593999997E+02  0.45594000000E+02  0.51100000000E-03 0. -1.
    9900012    2    1    2    0    0  0.38270625910E+02 -0.10347910978E+02  0.90246103604E+01  0.50528884646E+02  0.30000075371E+02 0.  0.
         12    1    1    2    0    0 -0.38270625910E+02  0.10347910978E+02 -0.90246103604E+01  0.40659115354E+02  0.00000000000E+00 0. -1.
         11    1    3    3    0    0  0.11657261351E+02  0.10313891015E+01 -0.45910889294E+00  0.11711801182E+02  0.51100000000E-03 0. -1.
        -11    1    3    3    0    0  0.26566906385E+02 -0.17224440534E+02  0.91707694631E+01  0.32963386952E+02  0.51100000000E-03 0.  1.
         12    1    3    3    0    0  0.46458174511E-01  0.58451404540E+01  0.31294979028E+00  0.58536965125E+01  0.00000000000E+00 0. -1.
</event>
<event>
 7    1  0.5329250E-013  0.5052886E+02  0.7816164E-02  0.1300439E+00
        -11   -1    0    0    0    0  0.00000000000E+00  0.00000000000E+00  0.45593999997E+02  0.45594000000E+02  0.51100000000E-03 0. -1.
         11   -1    0    0    0    0 -0.00000000000E+00 -0.00000000000E+00 -0.45593999997E+02  0.45594000000E+02  0.51100000000E-03 0.  1.
    9900012    2    1    2    0    0  0.21798724434E+02  0.33747326009E+02 -0.62529634426E+01  0.50528856484E+02  0.29999989768E+02 0.  0.
         12    1    1    2    0    0 -0.21798724434E+02 -0.33747326009E+02  0.62529634426E+01  0.40659143516E+02  0.00000000000E+00 0. -1.
         11    1    3    3    0    0 -0.19984714593E+01  0.10593378664E+02 -0.52896832862E+01  0.12008093489E+02  0.51100000000E-03 0. -1.
        -11    1    3    3    0    0  0.71848478536E+01  0.14115610449E+02  0.78252012331E+01  0.17666529699E+02  0.51100000000E-03 0.  1.
        -12    1    3    3    0    0  0.16612348039E+02  0.90383368956E+01 -0.87884813895E+01  0.20854233296E+02  0.00000000000E+00 0.  1.
</event>
<event>
 7    1  0.5329250E-013  0.5052886E+02  0.7816164E-02  0.1300439E+00
        -11   -1    0    0    0    0  0.00000000000E+00  0.00000000000E+00  0.45593999997E+02  0.45594000000E+02  0.51100000000E-03 0.  1.
         11   -1    0    0    0    0 -0.00000000000E+00 -0.00000000000E+00 -0.45593999997E+02  0.45594000000E+02  0.51100000000E-03 0. -1.
    9900012    2    1    2    0    0  0.31187306174E+02 -0.75350690840E+01  0.24974792628E+02  0.50528860814E+02  0.30000002931E+02 0.  0.
         12    1    1    2    0    0 -0.31187306174E+02  0.75350690840E+01 -0.24974792628E+02  0.40659139186E+02  0.00000000000E+00 0. -1.
         11    1    3    3    0    0  0.10930817158E+02 -0.14635390926E+02  0.35815218610E+01  0.18614637531E+02  0.51100000000E-03 0. -1.
        -11    1    3    3    0    0 -0.10896650028E+01  0.69719827501E+00  0.19433614027E+01  0.23345468630E+01  0.51100000000E-03 0.  1.
        -12    1    3    3    0    0  0.21346154019E+02  0.64031235674E+01  0.19449909365E+02  0.29579676420E+02  0.00000000000E+00 0.  1.
</event>
<event>
 7    1  0.5329250E-013  0.5052886E+02  0.7816164E-02  0.1300439E+00
        -11   -1    0    0    0    0  0.00000000000E+00  0.00000000000E+00  0.45593999997E+02  0.45594000000E+02  0.51100000000E-03 0.  1.
         11   -1    0    0    0    0 -0.00000000000E+00 -0.00000000000E+00 -0.45593999997E+02  0.45594000000E+02  0.51100000000E-03 0. -1.
    9900012    2    1    2    0    0  0.27651283673E+02  0.27563015578E+02  0.11351328050E+02  0.50528856317E+02  0.29999989262E+02 0.  0.
         12    1    1    2    0    0 -0.27651283673E+02 -0.27563015578E+02 -0.11351328050E+02  0.40659143683E+02  0.00000000000E+00 0. -1.
         11    1    3    3    0    0  0.64739021518E+01 -0.20692626099E+01 -0.21356619249E+01  0.71242058461E+01  0.51100000000E-03 0. -1.
        -11    1    3    3    0    0  0.13710374096E+02  0.12915255000E+02 -0.26228781171E+01  0.19017298952E+02  0.51100000000E-03 0.  1.
        -12    1    3    3    0    0  0.74670074250E+01  0.16717023189E+02  0.16109868092E+02  0.24387351519E+02  0.00000000000E+00 0.  1.
</event>
<event>
 7    1  0.5329250E-013  0.5052886E+02  0.7816164E-02  0.1300439E+00
        -11   -1    0    0    0    0  0.00000000000E+00  0.00000000000E+00  0.45593999997E+02  0.45594000000E+02  0.51100000000E-03 0.  1.
         11   -1    0    0    0    0 -0.00000000000E+00 -0.00000000000E+00 -0.45593999997E+02  0.45594000000E+02  0.51100000000E-03 0. -1.
    9900012    2    1    2    0    0 -0.31258595693E+01 -0.33808162187E+02  0.22369691814E+02  0.50528856620E+02  0.29999990182E+02 0.  0.
         12    1    1    2    0    0  0.31258595693E+01  0.33808162187E+02 -0.22369691814E+02  0.40659143380E+02  0.00000000000E+00 0. -1.
         11    1    3    3    0    0 -0.36793970169E+00 -0.84044553735E+01  0.53903797505E+01  0.99913184247E+01  0.51100000000E-03 0. -1.
        -11    1    3    3    0    0 -0.31077627400E+01 -0.29948650113E+02  0.91346107615E+01  0.31464598311E+02  0.51100000000E-03 0.  1.
         12    1    3    3    0    0  0.34984287235E+00  0.45449432990E+01  0.78447013020E+01  0.90729398843E+01  0.00000000000E+00 0. -1.
</event>
<event>
 7    1  0.5329250E-013  0.5052885E+02  0.7816164E-02  0.1300439E+00
        -11   -1    0    0    0    0  0.00000000000E+00  0.00000000000E+00  0.45593999997E+02  0.45594000000E+02  0.51100000000E-03 0.  1.
         11   -1    0    0    0    0 -0.00000000000E+00 -0.00000000000E+00 -0.45593999997E+02  0.45594000000E+02  0.51100000000E-03 0. -1.
    9900012    2    1    2    0    0  0.12855578999E+02 -0.83975532049E+01  0.37648125707E+02  0.50528853668E+02  0.29999981209E+02 0.  0.
         12    1    1    2    0    0 -0.12855578999E+02  0.83975532049E+01 -0.37648125707E+02  0.40659146332E+02  0.00000000000E+00 0. -1.
         11    1    3    3    0    0  0.37838569503E+01 -0.11449875220E+02  0.21179086494E+02  0.24371518643E+02  0.51100000000E-03 0. -1.
        -11    1    3    3    0    0 -0.35776053927E+01  0.27259425348E+01  0.11870599552E+02  0.12694138688E+02  0.51100000000E-03 0.  1.
         12    1    3    3    0    0  0.12649327441E+02  0.32637948068E+00  0.45984396605E+01  0.13463196337E+02  0.00000000000E+00 0. -1.
</event>
<event>
 7    1  0.5329250E-013  0.5052886E+02  0.7816164E-02  0.1300439E+00
        -11   -1    0    0    0    0  0.00000000000E+00  0.00000000000E+00  0.45593999997E+02  0.45594000000E+02  0.51100000000E-03 0.  1.
         11   -1    0    0    0    0 -0.00000000000E+00 -0.00000000000E+00 -0.45593999997E+02  0.45594000000E+02  0.51100000000E-03 0. -1.
    9900012    2    1    2    0    0 -0.60624655255E+01  0.13959698422E+02  0.37703297589E+02  0.50528864282E+02  0.30000013472E+02 0.  0.
         12    1    1    2    0    0  0.60624655255E+01 -0.13959698422E+02 -0.37703297589E+02  0.40659135718E+02  0.00000000000E+00 0. -1.
         11    1    3    3    0    0 -0.49451793404E+01 -0.19756189659E+01  0.53283214695E+01  0.75331851796E+01  0.51100000000E-03 0. -1.
        -11    1    3    3    0    0 -0.10937088979E+02  0.13981356113E+02  0.16550079299E+02  0.24269391405E+02  0.51100000000E-03 0.  1.
         12    1    3    3    0    0  0.98198027937E+01  0.19539612744E+01  0.15824896820E+02  0.18726287698E+02  0.00000000000E+00 0. -1.
</event>
<event>
 7    1  0.5329250E-013  0.5052886E+02  0.7816164E-02  0.1300439E+00
        -11   -1    0    0    0    0  0.00000000000E+00  0.00000000000E+00  0.45593999997E+02  0.45594000000E+02  0.51100000000E-03 0. -1.
         11   -1    0    0    0    0 -0.00000000000E+00 -0.00000000000E+00 -0.45593999997E+02  0.45594000000E+02  0.51100000000E-03 0.  1.
    9900012    2    1    2    0    0 -0.50689588379E+01  0.82843844862E+01 -0.39482156489E+02  0.50528855260E+02  0.29999986047E+02 0.  0.
         12    1    1    2    0    0  0.50689588379E+01 -0.82843844862E+01  0.39482156489E+02  0.40659144740E+02  0.00000000000E+00 0. -1.
         11    1    3    3    0    0 -0.52766492438E+01  0.25206884670E+01 -0.19245364526E+02  0.20114197812E+02  0.51100000000E-03 0. -1.
        -11    1    3    3    0    0 -0.69553439272E+00 -0.83451211938E+01 -0.94874668651E+01  0.12654518703E+02  0.51100000000E-03 0.  1.
         12    1    3    3    0    0  0.90322479866E+00  0.14108817213E+02 -0.10749325097E+02  0.17760138745E+02  0.00000000000E+00 0. -1.
</event>
<event>
 7    1  0.5329250E-013  0.5052886E+02  0.7816164E-02  0.1300439E+00
        -11   -1    0    0    0    0  0.00000000000E+00  0.00000000000E+00  0.45593999997E+02  0.45594000000E+02  0.51100000000E-03 0. -1.
         11   -1    0    0    0    0 -0.00000000000E+00 -0.00000000000E+00 -0.45593999997E+02  0.45594000000E+02  0.51100000000E-03 0.  1.
    9900012    2    1    2    0    0  0.96420289729E+01  0.28183583990E+02 -0.27674580672E+02  0.50528861487E+02  0.30000004975E+02 0.  0.
         12    1    1    2    0    0 -0.96420289729E+01 -0.28183583990E+02  0.27674580672E+02  0.40659138513E+02  0.00000000000E+00 0. -1.
         11    1    3    3    0    0  0.11839619753E+02  0.57425426831E+01 -0.10676181967E+02  0.16945036265E+02  0.51100000000E-03 0. -1.
        -11    1    3    3    0    0 -0.39401189913E+01 -0.41371737525E+00 -0.80609536974E+01  0.89819081773E+01  0.51100000000E-03 0.  1.
         12    1    3    3    0    0  0.17425282111E+01  0.22854758683E+02 -0.89374450072E+01  0.24601917044E+02  0.00000000000E+00 0. -1.
</event>
<event>
 7    1  0.5329250E-013  0.5052886E+02  0.7816164E-02  0.1300439E+00
        -11   -1    0    0    0    0  0.00000000000E+00  0.00000000000E+00  0.45593999997E+02  0.45594000000E+02  0.51100000000E-03 0.  1.
         11   -1    0    0    0    0 -0.00000000000E+00 -0.00000000000E+00 -0.45593999997E+02  0.45594000000E+02  0.51100000000E-03 0. -1.
    9900012    2    1    2    0    0 -0.25730579889E+02 -0.28590461347E+02 -0.13179093474E+02  0.50528859253E+02  0.29999998186E+02 0.  0.
         12    1    1    2    0    0  0.25730579889E+02  0.28590461347E+02  0.13179093474E+02  0.40659140747E+02  0.00000000000E+00 0. -1.
         11    1    3    3    0    0 -0.82523424698E+01 -0.10825618754E+02  0.60969269678E+01  0.14915351030E+02  0.51100000000E-03 0. -1.
        -11    1    3    3    0    0 -0.15050215381E+02 -0.12677462984E+02 -0.50564725441E+01  0.20317356265E+02  0.51100000000E-03 0.  1.
        -12    1    3    3    0    0 -0.24280220374E+01 -0.50873796095E+01 -0.14219547898E+02  0.15296151958E+02  0.00000000000E+00 0.  1.
</event>
<event>
 7    1  0.5329250E-013  0.5052886E+02  0.7816164E-02  0.1300439E+00
        -11   -1    0    0    0    0  0.00000000000E+00  0.00000000000E+00  0.45593999997E+02  0.45594000000E+02  0.51100000000E-03 0.  1.
         11   -1    0    0    0    0 -0.00000000000E+00 -0.00000000000E+00 -0.45593999997E+02  0.45594000000E+02  0.51100000000E-03 0. -1.
    9900012    2    1    2    0    0 -0.35054707775E+02  0.53196374988E+01  0.19900609292E+02  0.50528864120E+02  0.30000012979E+02 0.  0.
         12    1    1    2    0    0  0.35054707775E+02 -0.53196374988E+01 -0.19900609292E+02  0.40659135880E+02  0.00000000000E+00 0. -1.
         11    1    3    3    0    0 -0.67738317663E+01 -0.29882658577E+01  0.31203357070E+01  0.80343652406E+01  0.51100000000E-03 0. -1.
        -11    1    3    3    0    0 -0.23718790216E+02  0.14702470507E+02  0.50227453637E+01  0.28354393303E+02  0.51100000000E-03 0.  1.
         12    1    3    3    0    0 -0.45620857923E+01 -0.63945671509E+01  0.11757528222E+02  0.14140105576E+02  0.00000000000E+00 0. -1.
</event>
<event>
 7    1  0.5329250E-013  0.5052887E+02  0.7816164E-02  0.1300439E+00
        -11   -1    0    0    0    0  0.00000000000E+00  0.00000000000E+00  0.45593999997E+02  0.45594000000E+02  0.51100000000E-03 0.  1.
         11   -1    0    0    0    0 -0.00000000000E+00 -0.00000000000E+00 -0.45593999997E+02  0.45594000000E+02  0.51100000000E-03 0. -1.
    9900012    2    1    2    0    0 -0.20517659931E+02 -0.30660011800E+02  0.17092507660E+02  0.50528874201E+02  0.30000043622E+02 0.  0.
         12    1    1    2    0    0  0.20517659931E+02  0.30660011800E+02 -0.17092507660E+02  0.40659125799E+02  0.00000000000E+00 0. -1.
         11    1    3    3    0    0 -0.98710428548E+01 -0.19983430252E+02  0.52391095645E+01  0.22895921928E+02  0.51100000000E-03 0.  1.
        -11    1    3    3    0    0 -0.12516262674E+02 -0.68208124579E+01 -0.79709165851E+00  0.14276402533E+02  0.51100000000E-03 0. -1.
         12    1    3    3    0    0  0.18696455977E+01 -0.38557690903E+01  0.12650489754E+02  0.13356549740E+02  0.00000000000E+00 0. -1.
</event>
<event>
 7    1  0.5329250E-013  0.5052886E+02  0.7816164E-02  0.1300439E+00
        -11   -1    0    0    0    0  0.00000000000E+00  0.00000000000E+00  0.45593999997E+02  0.45594000000E+02  0.51100000000E-03 0. -1.
         11   -1    0    0    0    0 -0.00000000000E+00 -0.00000000000E+00 -0.45593999997E+02  0.45594000000E+02  0.51100000000E-03 0.  1.
    9900012    2    1    2    0    0 -0.17524567778E+02  0.23210892026E+01 -0.36615128845E+02  0.50528860914E+02  0.30000003233E+02 0.  0.
         12    1    1    2    0    0  0.17524567778E+02 -0.23210892026E+01  0.36615128845E+02  0.40659139086E+02  0.00000000000E+00 0. -1.
         11    1    3    3    0    0  0.58505411295E+01  0.55712770768E+01 -0.29411280069E+01  0.85975690743E+01  0.51100000000E-03 0. -1.
        -11    1    3    3    0    0 -0.55903477837E+01  0.39734337980E+00 -0.31847279351E+01  0.64461121915E+01  0.51100000000E-03 0.  1.
        -12    1    3    3    0    0 -0.17784761124E+02 -0.36475312540E+01 -0.30489272903E+02  0.35485179648E+02  0.00000000000E+00 0.  1.
</event>
<event>
 7    1  0.5329250E-013  0.5052888E+02  0.7816164E-02  0.1300439E+00
        -11   -1    0    0    0    0  0.00000000000E+00  0.00000000000E+00  0.45593999997E+02  0.45594000000E+02  0.51100000000E-03 0. -1.
         11   -1    0    0    0    0 -0.00000000000E+00 -0.00000000000E+00 -0.45593999997E+02  0.45594000000E+02  0.51100000000E-03 0.  1.
    9900012    2    1    2    0    0  0.27462137515E+02 -0.29085246346E+02 -0.72831231444E+01  0.50528875137E+02  0.30000046467E+02 0.  0.
         12    1    1    2    0    0 -0.27462137515E+02  0.29085246346E+02  0.72831231444E+01  0.40659124863E+02  0.00000000000E+00 0. -1.
         11    1    3    3    0    0 -0.10777905959E+01 -0.36532893016E+01  0.56301801381E+00  0.38503434697E+01  0.51100000000E-03 0. -1.
        -11    1    3    3    0    0  0.10864504664E+02 -0.22409753482E+01 -0.12976340637E+02  0.17071755876E+02  0.51100000000E-03 0.  1.
         12    1    3    3    0    0  0.17675423447E+02 -0.23190981696E+02  0.51301994790E+01  0.29606775791E+02  0.00000000000E+00 0. -1.
</event>
<event>
 7    1  0.5329250E-013  0.5052887E+02  0.7816164E-02  0.1300439E+00
        -11   -1    0    0    0    0  0.00000000000E+00  0.00000000000E+00  0.45593999997E+02  0.45594000000E+02  0.51100000000E-03 0.  1.
         11   -1    0    0    0    0 -0.00000000000E+00 -0.00000000000E+00 -0.45593999997E+02  0.45594000000E+02  0.51100000000E-03 0. -1.
    9900012    2    1    2    0    0  0.11982256712E+02 -0.90096086918E+01  0.37794409668E+02  0.50528869084E+02  0.30000028068E+02 0.  0.
         12    1    1    2    0    0 -0.11982256712E+02  0.90096086918E+01 -0.37794409668E+02  0.40659130916E+02  0.00000000000E+00 0. -1.
         11    1    3    3    0    0  0.94811010876E+01  0.70575167118E+00  0.56521943539E+01  0.11060590605E+02  0.51100000000E-03 0. -1.
        -11    1    3    3    0    0  0.17194406566E+01 -0.99679381538E+01  0.33370380338E+01  0.10651389126E+02  0.51100000000E-03 0.  1.
        -12    1    3    3    0    0  0.78171496737E+00  0.25257779083E+00  0.28805177281E+02  0.28816889353E+02  0.00000000000E+00 0.  1.
</event>
<event>
 7    1  0.5329250E-013  0.5052889E+02  0.7816164E-02  0.1300439E+00
        -11   -1    0    0    0    0  0.00000000000E+00  0.00000000000E+00  0.45593999997E+02  0.45594000000E+02  0.51100000000E-03 0.  1.
         11   -1    0    0    0    0 -0.00000000000E+00 -0.00000000000E+00 -0.45593999997E+02  0.45594000000E+02  0.51100000000E-03 0. -1.
    9900012    2    1    2    0    0  0.55121580716E+01  0.38003120261E+02 -0.13361972841E+02  0.50528888422E+02  0.30000086846E+02 0.  0.
         12    1    1    2    0    0 -0.55121580716E+01 -0.38003120261E+02  0.13361972841E+02  0.40659111578E+02  0.00000000000E+00 0. -1.
         11    1    3    3    0    0 -0.66279904913E+01  0.89939075016E+01  0.52772237241E+01  0.12355958910E+02  0.51100000000E-03 0. -1.
        -11    1    3    3    0    0  0.92316360178E+01  0.20512908414E+02 -0.71769182520E+01  0.23611663877E+02  0.51100000000E-03 0.  1.
        -12    1    3    3    0    0  0.29085125451E+01  0.84963043445E+01 -0.11462278313E+02  0.14561265634E+02  0.00000000000E+00 0.  1.
</event>
<event>
 7    1  0.5329250E-013  0.5052887E+02  0.7816164E-02  0.1300439E+00
        -11   -1    0    0    0    0  0.00000000000E+00  0.00000000000E+00  0.45593999997E+02  0.45594000000E+02  0.51100000000E-03 0.  1.
         11   -1    0    0    0    0 -0.00000000000E+00 -0.00000000000E+00 -0.45593999997E+02  0.45594000000E+02  0.51100000000E-03 0. -1.
    9900012    2    1    2    0    0 -0.30934457139E+02 -0.18338185021E+02  0.18971961900E+02  0.50528868102E+02  0.30000025084E+02 0.  0.
         12    1    1    2    0    0  0.30934457139E+02  0.18338185021E+02 -0.18971961900E+02  0.40659131898E+02  0.00000000000E+00 0. -1.
         11    1    3    3    0    0  0.23396065462E+01  0.18582742446E+01  0.19006912628E+01  0.35411254562E+01  0.51100000000E-03 0. -1.
        -11    1    3    3    0    0 -0.29403472541E+02 -0.72812124560E+01  0.11577583971E+02  0.32428701842E+02  0.51100000000E-03 0.  1.
         12    1    3    3    0    0 -0.38705911442E+01 -0.12915246810E+02  0.54936866655E+01  0.14559040804E+02  0.00000000000E+00 0. -1.
</event>
<event>
 7    1  0.5329250E-013  0.5052886E+02  0.7816164E-02  0.1300439E+00
        -11   -1    0    0    0    0  0.00000000000E+00  0.00000000000E+00  0.45593999997E+02  0.45594000000E+02  0.51100000000E-03 0.  1.
         11   -1    0    0    0    0 -0.00000000000E+00 -0.00000000000E+00 -0.45593999997E+02  0.45594000000E+02  0.51100000000E-03 0. -1.
    9900012    2    1    2    0    0 -0.30783803676E+01 -0.35289776064E+02  0.19957980835E+02  0.50528859339E+02  0.29999998446E+02 0.  0.
         12    1    1    2    0    0  0.30783803676E+01  0.35289776064E+02 -0.19957980835E+02  0.40659140661E+02  0.00000000000E+00 0. -1.
         11    1    3    3    0    0  0.26188709281E+01  0.20543365422E+01 -0.16520939431E+00  0.33325782769E+01  0.51100000000E-03 0. -1.
        -11    1    3    3    0    0 -0.39913903444E+01 -0.98410987375E+01 -0.32039689407E+01  0.11092512721E+02  0.51100000000E-03 0.  1.
        -12    1    3    3    0    0 -0.17058609514E+01 -0.27503013868E+02  0.23327159170E+02  0.36103768340E+02  0.00000000000E+00 0.  1.
</event>
<event>
 7    1  0.5329250E-013  0.5052886E+02  0.7816164E-02  0.1300439E+00
        -11   -1    0    0    0    0  0.00000000000E+00  0.00000000000E+00  0.45593999997E+02  0.45594000000E+02  0.51100000000E-03 0. -1.
         11   -1    0    0    0    0 -0.00000000000E+00 -0.00000000000E+00 -0.45593999997E+02  0.45594000000E+02  0.51100000000E-03 0.  1.
    9900012    2    1    2    0    0  0.22851730304E+02 -0.52054444039E+01 -0.33224497713E+02  0.50528862311E+02  0.30000007481E+02 0.  0.
         12    1    1    2    0    0 -0.22851730304E+02  0.52054444039E+01  0.33224497713E+02  0.40659137689E+02  0.00000000000E+00 0. -1.
         11    1    3    3    0    0  0.70164045961E+01  0.32582916915E+01 -0.17259246312E+02  0.18913698256E+02  0.51100000000E-03 0. -1.
        -11    1    3    3    0    0  0.11421264417E+02 -0.90590361712E+01 -0.20567999330E+02  0.25210196626E+02  0.51100000000E-03 0.  1.
         12    1    3    3    0    0  0.44140612911E+01  0.59530007591E+00  0.46027479294E+01  0.64049674287E+01  0.00000000000E+00 0. -1.
</event>
<event>
 7    1  0.5329250E-013  0.5052885E+02  0.7816164E-02  0.1300439E+00
        -11   -1    0    0    0    0  0.00000000000E+00  0.00000000000E+00  0.45593999997E+02  0.45594000000E+02  0.51100000000E-03 0.  1.
         11   -1    0    0    0    0 -0.00000000000E+00 -0.00000000000E+00 -0.45593999997E+02  0.45594000000E+02  0.51100000000E-03 0. -1.
    9900012    2    1    2    0    0  0.40154364204E+02  0.46585660948E+01 -0.43693171347E+01  0.50528854228E+02  0.29999982911E+02 0.  0.
         12    1    1    2    0    0 -0.40154364204E+02 -0.46585660948E+01  0.43693171347E+01  0.40659145772E+02  0.00000000000E+00 0. -1.
         11    1    3    3    0    0  0.14168790153E+02 -0.31289076847E+01 -0.56345366074E+01  0.15565753459E+02  0.51100000000E-03 0. -1.
        -11    1    3    3    0    0  0.13140878069E+02 -0.61834565034E+01  0.54799647525E+01  0.15522494152E+02  0.51100000000E-03 0.  1.
        -12    1    3    3    0    0  0.12844695981E+02  0.13970930283E+02 -0.42147452797E+01  0.19440606616E+02  0.00000000000E+00 0.  1.
</event>
<event>
 7    1  0.5329250E-013  0.5052887E+02  0.7816164E-02  0.1300439E+00
        -11   -1    0    0    0    0  0.00000000000E+00  0.00000000000E+00  0.45593999997E+02  0.45594000000E+02  0.51100000000E-03 0.  1.
         11   -1    0    0    0    0 -0.00000000000E+00 -0.00000000000E+00 -0.45593999997E+02  0.45594000000E+02  0.51100000000E-03 0. -1.
    9900012    2    1    2    0    0 -0.22838778772E+02 -0.14669921292E+02  0.30271250001E+02  0.50528868392E+02  0.30000025964E+02 0.  0.
         12    1    1    2    0    0  0.22838778772E+02  0.14669921292E+02 -0.30271250001E+02  0.40659131608E+02  0.00000000000E+00 0. -1.
         11    1    3    3    0    0 -0.75017576435E+01 -0.32247182141E+01 -0.21388923873E+01  0.84409736528E+01  0.51100000000E-03 0. -1.
        -11    1    3    3    0    0  0.62522862580E+00 -0.89768467401E+01  0.50579169413E+01  0.10322655292E+02  0.51100000000E-03 0.  1.
        -12    1    3    3    0    0 -0.15962249755E+02 -0.24683563377E+01  0.27352225447E+02  0.31765239447E+02  0.00000000000E+00 0.  1.
</event>
<event>
 7    1  0.5329250E-013  0.5052886E+02  0.7816164E-02  0.1300439E+00
        -11   -1    0    0    0    0  0.00000000000E+00  0.00000000000E+00  0.45593999997E+02  0.45594000000E+02  0.51100000000E-03 0.  1.
         11   -1    0    0    0    0 -0.00000000000E+00 -0.00000000000E+00 -0.45593999997E+02  0.45594000000E+02  0.51100000000E-03 0. -1.
    9900012    2    1    2    0    0  0.18213154769E+02  0.15447234376E+02  0.32906380130E+02  0.50528856997E+02  0.29999991327E+02 0.  0.
         12    1    1    2    0    0 -0.18213154769E+02 -0.15447234376E+02 -0.32906380130E+02  0.40659143003E+02  0.00000000000E+00 0. -1.
         11    1    3    3    0    0  0.90040712416E+01 -0.21936669402E+01  0.62653711537E+01  0.11186614748E+02  0.51100000000E-03 0. -1.
        -11    1    3    3    0    0  0.15049140877E+01 -0.15248683635E+01  0.15931268599E+02  0.16074679137E+02  0.51100000000E-03 0.  1.
         12    1    3    3    0    0  0.77041694396E+01  0.19165769680E+02  0.10709740377E+02  0.23267563111E+02  0.00000000000E+00 0. -1.
</event>
<event>
 7    1  0.5329250E-013  0.5052886E+02  0.7816164E-02  0.1300439E+00
        -11   -1    0    0    0    0  0.00000000000E+00  0.00000000000E+00  0.45593999997E+02  0.45594000000E+02  0.51100000000E-03 0. -1.
         11   -1    0    0    0    0 -0.00000000000E+00 -0.00000000000E+00 -0.45593999997E+02  0.45594000000E+02  0.51100000000E-03 0.  1.
    9900012    2    1    2    0    0 -0.95723218890E+01 -0.37716537918E+02 -0.11789799080E+02  0.50528856610E+02  0.29999990151E+02 0.  0.
         12    1    1    2    0    0  0.95723218890E+01  0.37716537918E+02  0.11789799080E+02  0.40659143390E+02  0.00000000000E+00 0. -1.
         11    1    3    3    0    0  0.43708464796E+01 -0.14426312913E+02 -0.42468648746E+01  0.15660736404E+02  0.51100000000E-03 0. -1.
        -11    1    3    3    0    0 -0.88132153022E+01 -0.21501821611E+02 -0.13444338578E+02  0.26846812411E+02  0.51100000000E-03 0.  1.
         12    1    3    3    0    0 -0.51299530664E+01 -0.17884033946E+01  0.59014043730E+01  0.80213077948E+01  0.00000000000E+00 0. -1.
</event>
<event>
 7    1  0.5329250E-013  0.5052888E+02  0.7816164E-02  0.1300439E+00
        -11   -1    0    0    0    0  0.00000000000E+00  0.00000000000E+00  0.45593999997E+02  0.45594000000E+02  0.51100000000E-03 0. -1.
         11   -1    0    0    0    0 -0.00000000000E+00 -0.00000000000E+00 -0.45593999997E+02  0.45594000000E+02  0.51100000000E-03 0.  1.
    9900012    2    1    2    0    0  0.22072327908E+02  0.33922432426E+02 -0.39045094893E+01  0.50528877095E+02  0.30000052419E+02 0.  0.
         12    1    1    2    0    0 -0.22072327908E+02 -0.33922432426E+02  0.39045094893E+01  0.40659122905E+02  0.00000000000E+00 0. -1.
         11    1    3    3    0    0  0.26081806768E+01  0.99490705047E+01 -0.69346315654E+01  0.12404665476E+02  0.51100000000E-03 0. -1.
        -11    1    3    3    0    0  0.23181748749E+02  0.23703090991E+02  0.55623778803E+01  0.33618001808E+02  0.51100000000E-03 0.  1.
         12    1    3    3    0    0 -0.37176015170E+01  0.27027093021E+00 -0.25322558042E+01  0.45062098123E+01  0.00000000000E+00 0. -1.
</event>
<event>
 7    1  0.5329250E-013  0.5052885E+02  0.7816164E-02  0.1300439E+00
        -11   -1    0    0    0    0  0.00000000000E+00  0.00000000000E+00  0.45593999997E+02  0.45594000000E+02  0.51100000000E-03 0.  1.
         11   -1    0    0    0    0 -0.00000000000E+00 -0.00000000000E+00 -0.45593999997E+02  0.45594000000E+02  0.51100000000E-03 0. -1.
    9900012    2    1    2    0    0 -0.24723538863E+02 -0.30277465118E+02  0.11188749572E+02  0.50528851154E+02  0.29999973568E+02 0.  0.
         12    1    1    2    0    0  0.24723538863E+02  0.30277465118E+02 -0.11188749572E+02  0.40659148846E+02  0.00000000000E+00 0. -1.
         11    1    3    3    0    0 -0.52659127275E+01  0.96635339778E+00 -0.52800494423E+01  0.75194812399E+01  0.51100000000E-03 0. -1.
        -11    1    3    3    0    0 -0.11969772101E+02 -0.82314905762E+01  0.16198508394E+01  0.14617003737E+02  0.51100000000E-03 0.  1.
        -12    1    3    3    0    0 -0.74878540349E+01 -0.23012327939E+02  0.14848948175E+02  0.28392366177E+02  0.00000000000E+00 0.  1.
</event>
<event>
 7    1  0.5329250E-013  0.5052886E+02  0.7816164E-02  0.1300439E+00
        -11   -1    0    0    0    0  0.00000000000E+00  0.00000000000E+00  0.45593999997E+02  0.45594000000E+02  0.51100000000E-03 0. -1.
         11   -1    0    0    0    0 -0.00000000000E+00 -0.00000000000E+00 -0.45593999997E+02  0.45594000000E+02  0.51100000000E-03 0.  1.
    9900012    2    1    2    0    0  0.36770100341E+02  0.12631572250E+02 -0.11898250545E+02  0.50528864955E+02  0.30000015516E+02 0.  0.
         12    1    1    2    0    0 -0.36770100341E+02 -0.12631572250E+02  0.11898250545E+02  0.40659135045E+02  0.00000000000E+00 0. -1.
         11    1    3    3    0    0  0.58708704727E+01  0.97729210630E+01 -0.29117557067E+01  0.11766708451E+02  0.51100000000E-03 0. -1.
        -11    1    3    3    0    0  0.29745128160E+02  0.91943299175E+01 -0.61991455311E+01  0.31744885532E+02  0.51100000000E-03 0.  1.
         12    1    3    3    0    0  0.11541017088E+01 -0.63356787303E+01 -0.27873493072E+01  0.70172709716E+01  0.00000000000E+00 0. -1.
</event>
<event>
 7    1  0.5329250E-013  0.5052884E+02  0.7816164E-02  0.1300439E+00
        -11   -1    0    0    0    0  0.00000000000E+00  0.00000000000E+00  0.45593999997E+02  0.45594000000E+02  0.51100000000E-03 0.  1.
         11   -1    0    0    0    0 -0.00000000000E+00 -0.00000000000E+00 -0.45593999997E+02  0.45594000000E+02  0.51100000000E-03 0. -1.
    9900012    2    1    2    0    0 -0.36467028513E+02 -0.16478574426E+02 -0.71957963397E+01  0.50528842745E+02  0.29999948008E+02 0.  0.
         12    1    1    2    0    0  0.36467028513E+02  0.16478574426E+02  0.71957963397E+01  0.40659157255E+02  0.00000000000E+00 0. -1.
         11    1    3    3    0    0  0.17402045986E+01  0.94494821276E-01  0.11578921224E+01  0.20923565051E+01  0.51100000000E-03 0. -1.
        -11    1    3    3    0    0 -0.15033465527E+02 -0.12575993748E+02  0.64675912587E+01  0.20639535882E+02  0.51100000000E-03 0.  1.
         12    1    3    3    0    0 -0.23173767585E+02 -0.39970754994E+01 -0.14821279721E+02  0.27796950358E+02  0.00000000000E+00 0. -1.
</event>
<event>
 7    1  0.5329250E-013  0.5052886E+02  0.7816164E-02  0.1300439E+00
        -11   -1    0    0    0    0  0.00000000000E+00  0.00000000000E+00  0.45593999997E+02  0.45594000000E+02  0.51100000000E-03 0.  1.
         11   -1    0    0    0    0 -0.00000000000E+00 -0.00000000000E+00 -0.45593999997E+02  0.45594000000E+02  0.51100000000E-03 0. -1.
    9900012    2    1    2    0    0  0.29658407407E+02 -0.19134256735E+02  0.20184764065E+02  0.50528860670E+02  0.30000002492E+02 0.  0.
         12    1    1    2    0    0 -0.29658407407E+02  0.19134256735E+02 -0.20184764065E+02  0.40659139330E+02  0.00000000000E+00 0. -1.
         11    1    3    3    0    0  0.98201849634E+01 -0.92056042004E+01  0.62135362773E+01  0.14825222249E+02  0.51100000000E-03 0. -1.
        -11    1    3    3    0    0  0.19878073712E+02 -0.12058513551E+01  0.17287742999E+02  0.26371536744E+02  0.51100000000E-03 0.  1.
         12    1    3    3    0    0 -0.39851268562E-01 -0.87228011795E+01 -0.33165152116E+01  0.93321016759E+01  0.00000000000E+00 0. -1.
</event>
<event>
 7    1  0.5329250E-013  0.5052887E+02  0.7816164E-02  0.1300439E+00
        -11   -1    0    0    0    0  0.00000000000E+00  0.00000000000E+00  0.45593999997E+02  0.45594000000E+02  0.51100000000E-03 0.  1.
         11   -1    0    0    0    0 -0.00000000000E+00 -0.00000000000E+00 -0.45593999997E+02  0.45594000000E+02  0.51100000000E-03 0. -1.
    9900012    2    1    2    0    0 -0.11381063957E+02 -0.34316018902E+02  0.18602347454E+02  0.50528866944E+02  0.30000021563E+02 0.  0.
         12    1    1    2    0    0  0.11381063957E+02  0.34316018902E+02 -0.18602347454E+02  0.40659133056E+02  0.00000000000E+00 0. -1.
         11    1    3    3    0    0 -0.76634719548E+01 -0.67886863916E+01 -0.32185493841E+01  0.10731920878E+02  0.51100000000E-03 0. -1.
        -11    1    3    3    0    0  0.17991948330E+00  0.12760363583E+01  0.70996729644E+01  0.72156771179E+01  0.51100000000E-03 0.  1.
        -12    1    3    3    0    0 -0.38975114850E+01 -0.28803368869E+02  0.14721223874E+02  0.32581268949E+02  0.00000000000E+00 0.  1.
</event>
<event>
 7    1  0.5329250E-013  0.5052886E+02  0.7816164E-02  0.1300439E+00
        -11   -1    0    0    0    0  0.00000000000E+00  0.00000000000E+00  0.45593999997E+02  0.45594000000E+02  0.51100000000E-03 0.  1.
         11   -1    0    0    0    0 -0.00000000000E+00 -0.00000000000E+00 -0.45593999997E+02  0.45594000000E+02  0.51100000000E-03 0. -1.
    9900012    2    1    2    0    0  0.24559862715E+02 -0.19980232146E+01  0.32341714380E+02  0.50528862744E+02  0.30000008797E+02 0.  0.
         12    1    1    2    0    0 -0.24559862715E+02  0.19980232146E+01 -0.32341714380E+02  0.40659137256E+02  0.00000000000E+00 0. -1.
         11    1    3    3    0    0  0.15092417016E+02 -0.34934338378E+01  0.41181823822E+01  0.16029490252E+02  0.51100000000E-03 0. -1.
        -11    1    3    3    0    0  0.14223229829E+02 -0.79936303466E+00  0.17659758433E+02  0.22689343670E+02  0.51100000000E-03 0.  1.
        -12    1    3    3    0    0 -0.47557841298E+01  0.22947736579E+01  0.10563773565E+02  0.11810028822E+02  0.00000000000E+00 0.  1.
</event>
<event>
 7    1  0.5329250E-013  0.5052886E+02  0.7816164E-02  0.1300439E+00
        -11   -1    0    0    0    0  0.00000000000E+00  0.00000000000E+00  0.45593999997E+02  0.45594000000E+02  0.51100000000E-03 0.  1.
         11   -1    0    0    0    0 -0.00000000000E+00 -0.00000000000E+00 -0.45593999997E+02  0.45594000000E+02  0.51100000000E-03 0. -1.
    9900012    2    1    2    0    0  0.23103427622E+01  0.19118887934E+02  0.35809160386E+02  0.50528861703E+02  0.30000005632E+02 0.  0.
         12    1    1    2    0    0 -0.23103427622E+01 -0.19118887934E+02 -0.35809160386E+02  0.40659138297E+02  0.00000000000E+00 0. -1.
         11    1    3    3    0    0  0.18284338785E+01  0.11207629319E+02  0.17862548891E+02  0.21166595819E+02  0.51100000000E-03 0. -1.
        -11    1    3    3    0    0  0.89015489474E+01  0.74875567543E-01  0.15074958762E+02  0.17507071770E+02  0.51100000000E-03 0.  1.
         12    1    3    3    0    0 -0.84196400637E+01  0.78363830480E+01  0.28716527323E+01  0.11855194115E+02  0.00000000000E+00 0. -1.
</event>
<event>
 7    1  0.5329250E-013  0.5052886E+02  0.7816164E-02  0.1300439E+00
        -11   -1    0    0    0    0  0.00000000000E+00  0.00000000000E+00  0.45593999997E+02  0.45594000000E+02  0.51100000000E-03 0.  1.
         11   -1    0    0    0    0 -0.00000000000E+00 -0.00000000000E+00 -0.45593999997E+02  0.45594000000E+02  0.51100000000E-03 0. -1.
    9900012    2    1    2    0    0 -0.20264931266E+02  0.95946669445E+01  0.33918144545E+02  0.50528860777E+02  0.30000002818E+02 0.  0.
         12    1    1    2    0    0  0.20264931266E+02 -0.95946669445E+01 -0.33918144545E+02  0.40659139223E+02  0.00000000000E+00 0. -1.
         11    1    3    3    0    0 -0.13241088164E+01 -0.48378324252E+01  0.55343701935E+01  0.74690789547E+01  0.51100000000E-03 0. -1.
        -11    1    3    3    0    0 -0.18955044815E+02  0.97815265046E+01  0.31071281614E+02  0.37688148351E+02  0.51100000000E-03 0.  1.
         12    1    3    3    0    0  0.14222365177E-01  0.46509728651E+01 -0.26875072629E+01  0.53716334718E+01  0.00000000000E+00 0. -1.
</event>
<event>
 7    1  0.5329250E-013  0.5052881E+02  0.7816164E-02  0.1300439E+00
        -11   -1    0    0    0    0  0.00000000000E+00  0.00000000000E+00  0.45593999997E+02  0.45594000000E+02  0.51100000000E-03 0. -1.
         11   -1    0    0    0    0 -0.00000000000E+00 -0.00000000000E+00 -0.45593999997E+02  0.45594000000E+02  0.51100000000E-03 0.  1.
    9900012    2    1    2    0    0  0.30921225942E+02 -0.14609079784E+02 -0.21991415519E+02  0.50528809373E+02  0.29999846570E+02 0.  0.
         12    1    1    2    0    0 -0.30921225942E+02  0.14609079784E+02  0.21991415519E+02  0.40659190627E+02  0.00000000000E+00 0. -1.
         11    1    3    3    0    0  0.86300337419E+01 -0.93311551411E+01 -0.52151917166E+01  0.13738492041E+02  0.51100000000E-03 0. -1.
        -11    1    3    3    0    0  0.21660421366E+02 -0.56300434169E+01 -0.25265179074E+01  0.22522311951E+02  0.51100000000E-03 0.  1.
         12    1    3    3    0    0  0.63077083479E+00  0.35211877406E+00 -0.14249705895E+02  0.14268005381E+02  0.00000000000E+00 0. -1.
</event>
<event>
 7    1  0.5329250E-013  0.5052886E+02  0.7816164E-02  0.1300439E+00
        -11   -1    0    0    0    0  0.00000000000E+00  0.00000000000E+00  0.45593999997E+02  0.45594000000E+02  0.51100000000E-03 0.  1.
         11   -1    0    0    0    0 -0.00000000000E+00 -0.00000000000E+00 -0.45593999997E+02  0.45594000000E+02  0.51100000000E-03 0. -1.
    9900012    2    1    2    0    0  0.34963583087E+02 -0.19517884211E+02  0.70545076527E+01  0.50528855585E+02  0.29999987037E+02 0.  0.
         12    1    1    2    0    0 -0.34963583087E+02  0.19517884211E+02 -0.70545076527E+01  0.40659144415E+02  0.00000000000E+00 0. -1.
         11    1    3    3    0    0  0.74230693982E+01 -0.72109834774E+01  0.98723850131E+01  0.14302595153E+02  0.51100000000E-03 0. -1.
        -11    1    3    3    0    0  0.21024390633E+02  0.31243052434E+00  0.22500611869E+01  0.21146758379E+02  0.51100000000E-03 0.  1.
         12    1    3    3    0    0  0.65161230550E+01 -0.12619331258E+02 -0.50679385473E+01  0.15079502053E+02  0.00000000000E+00 0. -1.
</event>
<event>
 7    1  0.5329250E-013  0.5052887E+02  0.7816164E-02  0.1300439E+00
        -11   -1    0    0    0    0  0.00000000000E+00  0.00000000000E+00  0.45593999997E+02  0.45594000000E+02  0.51100000000E-03 0. -1.
         11   -1    0    0    0    0 -0.00000000000E+00 -0.00000000000E+00 -0.45593999997E+02  0.45594000000E+02  0.51100000000E-03 0.  1.
    9900012    2    1    2    0    0  0.28324166287E+02 -0.20310244799E+02  0.20938019110E+02  0.50528867152E+02  0.30000022196E+02 0.  0.
         12    1    1    2    0    0 -0.28324166287E+02  0.20310244799E+02 -0.20938019110E+02  0.40659132848E+02  0.00000000000E+00 0. -1.
         11    1    3    3    0    0  0.48378499638E+01  0.40083922514E+01 -0.11760760972E+01  0.63918038112E+01  0.51100000000E-03 0. -1.
        -11    1    3    3    0    0  0.10667272253E+02 -0.42616389260E+01  0.15756251826E+02  0.19499018835E+02  0.51100000000E-03 0.  1.
        -12    1    3    3    0    0  0.12819044070E+02 -0.20056998124E+02  0.63578433820E+01  0.24638044506E+02  0.00000000000E+00 0.  1.
</event>
<event>
 7    1  0.5329250E-013  0.5052884E+02  0.7816164E-02  0.1300439E+00
        -11   -1    0    0    0    0  0.00000000000E+00  0.00000000000E+00  0.45593999997E+02  0.45594000000E+02  0.51100000000E-03 0.  1.
         11   -1    0    0    0    0 -0.00000000000E+00 -0.00000000000E+00 -0.45593999997E+02  0.45594000000E+02  0.51100000000E-03 0. -1.
    9900012    2    1    2    0    0  0.26033928750E+02 -0.16230895505E+02  0.26682569409E+02  0.50528844508E+02  0.29999953367E+02 0.  0.
         12    1    1    2    0    0 -0.26033928750E+02  0.16230895505E+02 -0.26682569409E+02  0.40659155492E+02  0.00000000000E+00 0. -1.
         11    1    3    3    0    0  0.37783260314E+01 -0.21229596755E+01  0.15763125388E+02  0.16348052717E+02  0.51100000000E-03 0.  1.
        -11    1    3    3    0    0  0.20905247692E+02 -0.14175275629E+02  0.15344559688E+02  0.29553736355E+02  0.51100000000E-03 0. -1.
        -12    1    3    3    0    0  0.13503550267E+01  0.67339800152E-01 -0.44251156669E+01  0.46270554365E+01  0.00000000000E+00 0.  1.
</event>
<event>
 7    1  0.5329250E-013  0.5052894E+02  0.7816164E-02  0.1300439E+00
        -11   -1    0    0    0    0  0.00000000000E+00  0.00000000000E+00  0.45593999997E+02  0.45594000000E+02  0.51100000000E-03 0.  1.
         11   -1    0    0    0    0 -0.00000000000E+00 -0.00000000000E+00 -0.45593999997E+02  0.45594000000E+02  0.51100000000E-03 0. -1.
    9900012    2    1    2    0    0 -0.12318742911E+01 -0.31923322119E+02  0.25150407840E+02  0.50528941675E+02  0.30000248714E+02 0.  0.
         12    1    1    2    0    0  0.12318742911E+01  0.31923322119E+02 -0.25150407840E+02  0.40659058325E+02  0.00000000000E+00 0. -1.
         11    1    3    3    0    0  0.35135507112E+01 -0.92581878551E+01  0.27235402421E+01  0.10270187568E+02  0.51100000000E-03 0. -1.
        -11    1    3    3    0    0  0.44217833376E+01 -0.10024008923E+02  0.22069627085E+02  0.24639426996E+02  0.51100000000E-03 0.  1.
        -12    1    3    3    0    0 -0.91672083399E+01 -0.12641125340E+02  0.35724051264E+00  0.15619327111E+02  0.00000000000E+00 0.  1.
</event>
<event>
 7    1  0.5329250E-013  0.5052883E+02  0.7816164E-02  0.1300439E+00
        -11   -1    0    0    0    0  0.00000000000E+00  0.00000000000E+00  0.45593999997E+02  0.45594000000E+02  0.51100000000E-03 0.  1.
         11   -1    0    0    0    0 -0.00000000000E+00 -0.00000000000E+00 -0.45593999997E+02  0.45594000000E+02  0.51100000000E-03 0. -1.
    9900012    2    1    2    0    0 -0.21909369459E+02  0.11982882361E+02  0.32086726921E+02  0.50528831486E+02  0.29999913784E+02 0.  0.
         12    1    1    2    0    0  0.21909369459E+02 -0.11982882361E+02 -0.32086726921E+02  0.40659168514E+02  0.00000000000E+00 0. -1.
         11    1    3    3    0    0 -0.13378614075E+02  0.60466035728E+01  0.28226245867E+01  0.14950449463E+02  0.51100000000E-03 0. -1.
        -11    1    3    3    0    0 -0.24178233452E+01 -0.44047398318E+01  0.13708207491E+01  0.52083349069E+01  0.51100000000E-03 0.  1.
        -12    1    3    3    0    0 -0.61129320386E+01  0.10341018620E+02  0.27893281586E+02  0.30370047116E+02  0.00000000000E+00 0.  1.
</event>
<event>
 7    1  0.5329250E-013  0.5052886E+02  0.7816164E-02  0.1300439E+00
        -11   -1    0    0    0    0  0.00000000000E+00  0.00000000000E+00  0.45593999997E+02  0.45594000000E+02  0.51100000000E-03 0.  1.
         11   -1    0    0    0    0 -0.00000000000E+00 -0.00000000000E+00 -0.45593999997E+02  0.45594000000E+02  0.51100000000E-03 0. -1.
    9900012    2    1    2    0    0  0.16557640602E+02  0.19952996495E+02  0.31319133596E+02  0.50528860061E+02  0.30000000640E+02 0.  0.
         12    1    1    2    0    0 -0.16557640602E+02 -0.19952996495E+02 -0.31319133596E+02  0.40659139939E+02  0.00000000000E+00 0. -1.
         11    1    3    3    0    0  0.79208987682E+01  0.47344850563E+01  0.16133891772E+02  0.18586512584E+02  0.51100000000E-03 0. -1.
        -11    1    3    3    0    0 -0.25935830438E+01  0.78122273278E+01  0.16486212267E+02  0.18426957535E+02  0.51100000000E-03 0.  1.
         12    1    3    3    0    0  0.11230324877E+02  0.74062841114E+01 -0.13009704435E+01  0.13515389942E+02  0.00000000000E+00 0. -1.
</event>
<event>
 7    1  0.5329250E-013  0.5052881E+02  0.7816164E-02  0.1300439E+00
        -11   -1    0    0    0    0  0.00000000000E+00  0.00000000000E+00  0.45593999997E+02  0.45594000000E+02  0.51100000000E-03 0.  1.
         11   -1    0    0    0    0 -0.00000000000E+00 -0.00000000000E+00 -0.45593999997E+02  0.45594000000E+02  0.51100000000E-03 0. -1.
    9900012    2    1    2    0    0 -0.30105488890E+02  0.13634827472E+02  0.23683771459E+02  0.50528806550E+02  0.29999837988E+02 0.  0.
         12    1    1    2    0    0  0.30105488890E+02 -0.13634827472E+02 -0.23683771459E+02  0.40659193450E+02  0.00000000000E+00 0. -1.
         11    1    3    3    0    0 -0.73187434331E+01 -0.38560710037E+01 -0.57582398903E-02  0.82724435594E+01  0.51100000000E-03 0. -1.
        -11    1    3    3    0    0 -0.47859004277E+01  0.57424377690E+01 -0.29409130432E+01  0.80330196205E+01  0.51100000000E-03 0.  1.
        -12    1    3    3    0    0 -0.18000845030E+02  0.11748460707E+02  0.26630442742E+02  0.34223343370E+02  0.00000000000E+00 0.  1.
</event>
<event>
 7    1  0.5329250E-013  0.5052885E+02  0.7816164E-02  0.1300439E+00
        -11   -1    0    0    0    0  0.00000000000E+00  0.00000000000E+00  0.45593999997E+02  0.45594000000E+02  0.51100000000E-03 0.  1.
         11   -1    0    0    0    0 -0.00000000000E+00 -0.00000000000E+00 -0.45593999997E+02  0.45594000000E+02  0.51100000000E-03 0. -1.
    9900012    2    1    2    0    0 -0.25668454563E+02 -0.29082022864E+02  0.12187389590E+02  0.50528854921E+02  0.29999985018E+02 0.  0.
         12    1    1    2    0    0  0.25668454563E+02  0.29082022864E+02 -0.12187389590E+02  0.40659145079E+02  0.00000000000E+00 0. -1.
         11    1    3    3    0    0  0.19905319968E+01 -0.95204106921E+01  0.65492051008E+00  0.97483002884E+01  0.51100000000E-03 0. -1.
        -11    1    3    3    0    0 -0.25191390601E+01 -0.10767271257E+02  0.85549522251E+01  0.13980965623E+02  0.51100000000E-03 0.  1.
         12    1    3    3    0    0 -0.25139847500E+02 -0.87943409150E+01  0.29775168548E+01  0.26799589009E+02  0.00000000000E+00 0. -1.
</event>
<event>
 7    1  0.5329250E-013  0.5052886E+02  0.7816164E-02  0.1300439E+00
        -11   -1    0    0    0    0  0.00000000000E+00  0.00000000000E+00  0.45593999997E+02  0.45594000000E+02  0.51100000000E-03 0.  1.
         11   -1    0    0    0    0 -0.00000000000E+00 -0.00000000000E+00 -0.45593999997E+02  0.45594000000E+02  0.51100000000E-03 0. -1.
    9900012    2    1    2    0    0 -0.10761432775E+02 -0.61070363341E+01  0.38730622014E+02  0.50528863146E+02  0.30000010018E+02 0.  0.
         12    1    1    2    0    0  0.10761432775E+02  0.61070363341E+01 -0.38730622014E+02  0.40659136854E+02  0.00000000000E+00 0. -1.
         11    1    3    3    0    0 -0.54137776105E+00  0.57728360096E+01  0.91144064344E+01  0.10802366888E+02  0.51100000000E-03 0. -1.
        -11    1    3    3    0    0  0.32598351045E+01 -0.12524499314E+02  0.13397873901E+02  0.18627738277E+02  0.51100000000E-03 0.  1.
         12    1    3    3    0    0 -0.13479890118E+02  0.64462697048E+00  0.16218341678E+02  0.21098757981E+02  0.00000000000E+00 0. -1.
</event>
<event>
 7    1  0.5329250E-013  0.5052886E+02  0.7816164E-02  0.1300439E+00
        -11   -1    0    0    0    0  0.00000000000E+00  0.00000000000E+00  0.45593999997E+02  0.45594000000E+02  0.51100000000E-03 0. -1.
         11   -1    0    0    0    0 -0.00000000000E+00 -0.00000000000E+00 -0.45593999997E+02  0.45594000000E+02  0.51100000000E-03 0.  1.
    9900012    2    1    2    0    0  0.22775454845E+01  0.39435039990E+02 -0.96361896435E+01  0.50528859043E+02  0.29999997548E+02 0.  0.
         12    1    1    2    0    0 -0.22775454845E+01 -0.39435039990E+02  0.96361896435E+01  0.40659140957E+02  0.00000000000E+00 0. -1.
         11    1    3    3    0    0  0.85725838669E+00  0.51319442493E+00  0.25013213096E+01  0.26934864051E+01  0.51100000000E-03 0. -1.
        -11    1    3    3    0    0 -0.11584447692E+02  0.14956119579E+02 -0.35484166909E+01  0.19247758375E+02  0.51100000000E-03 0.  1.
         12    1    3    3    0    0  0.13004734790E+02  0.23965725987E+02 -0.85890942622E+01  0.28587614263E+02  0.00000000000E+00 0. -1.
</event>
<event>
 7    1  0.5329250E-013  0.5052886E+02  0.7816164E-02  0.1300439E+00
        -11   -1    0    0    0    0  0.00000000000E+00  0.00000000000E+00  0.45593999997E+02  0.45594000000E+02  0.51100000000E-03 0. -1.
         11   -1    0    0    0    0 -0.00000000000E+00 -0.00000000000E+00 -0.45593999997E+02  0.45594000000E+02  0.51100000000E-03 0.  1.
    9900012    2    1    2    0    0  0.33260485431E+02 -0.15842341487E+02 -0.17202493994E+02  0.50528862349E+02  0.30000007597E+02 0.  0.
         12    1    1    2    0    0 -0.33260485431E+02  0.15842341487E+02  0.17202493994E+02  0.40659137651E+02  0.00000000000E+00 0. -1.
         11    1    3    3    0    0  0.29979183914E+01  0.44627357003E+01  0.32492848089E+01  0.62818290841E+01  0.51100000000E-03 0. -1.
        -11    1    3    3    0    0 -0.13347020702E+01  0.45354463383E+00 -0.47537315698E+00  0.14876532696E+01  0.51100000000E-03 0.  1.
         12    1    3    3    0    0  0.31597269110E+02 -0.20758621821E+02 -0.19976405646E+02  0.42759379996E+02  0.00000000000E+00 0. -1.
</event>
<event>
 7    1  0.5329250E-013  0.5052886E+02  0.7816164E-02  0.1300439E+00
        -11   -1    0    0    0    0  0.00000000000E+00  0.00000000000E+00  0.45593999997E+02  0.45594000000E+02  0.51100000000E-03 0.  1.
         11   -1    0    0    0    0 -0.00000000000E+00 -0.00000000000E+00 -0.45593999997E+02  0.45594000000E+02  0.51100000000E-03 0. -1.
    9900012    2    1    2    0    0  0.25828498029E+01  0.62251012247E+01  0.40096665023E+02  0.50528861490E+02  0.30000004985E+02 0.  0.
         12    1    1    2    0    0 -0.25828498029E+01 -0.62251012247E+01 -0.40096665023E+02  0.40659138510E+02  0.00000000000E+00 0. -1.
         11    1    3    3    0    0  0.46063559433E+01 -0.94144886296E-01  0.11570888150E+02  0.12454430183E+02  0.51100000000E-03 0. -1.
        -11    1    3    3    0    0  0.41178044157E+01 -0.58172651286E+01  0.77465701358E+00  0.71691687476E+01  0.51100000000E-03 0.  1.
         12    1    3    3    0    0 -0.61413105560E+01  0.12136511240E+02  0.27751119860E+02  0.30905262560E+02  0.00000000000E+00 0. -1.
</event>
<event>
 7    1  0.5329250E-013  0.5052886E+02  0.7816164E-02  0.1300439E+00
        -11   -1    0    0    0    0  0.00000000000E+00  0.00000000000E+00  0.45593999997E+02  0.45594000000E+02  0.51100000000E-03 0. -1.
         11   -1    0    0    0    0 -0.00000000000E+00 -0.00000000000E+00 -0.45593999997E+02  0.45594000000E+02  0.51100000000E-03 0.  1.
    9900012    2    1    2    0    0 -0.11754495336E+02 -0.37915258056E+02  0.87994894272E+01  0.50528856277E+02  0.29999989141E+02 0.  0.
         12    1    1    2    0    0  0.11754495336E+02  0.37915258056E+02 -0.87994894272E+01  0.40659143723E+02  0.00000000000E+00 0. -1.
         11    1    3    3    0    0 -0.57862529177E+01 -0.11376459012E+02 -0.42312161050E+01  0.13446476582E+02  0.51100000000E-03 0. -1.
        -11    1    3    3    0    0 -0.10670789856E+02 -0.58873035584E+01 -0.52478000124E-01  0.12187241424E+02  0.51100000000E-03 0.  1.
         12    1    3    3    0    0  0.47025474376E+01 -0.20651495486E+02  0.13083183532E+02  0.24895138271E+02  0.00000000000E+00 0. -1.
</event>
<event>
 7    1  0.5329250E-013  0.5052888E+02  0.7816164E-02  0.1300439E+00
        -11   -1    0    0    0    0  0.00000000000E+00  0.00000000000E+00  0.45593999997E+02  0.45594000000E+02  0.51100000000E-03 0.  1.
         11   -1    0    0    0    0 -0.00000000000E+00 -0.00000000000E+00 -0.45593999997E+02  0.45594000000E+02  0.51100000000E-03 0. -1.
    9900012    2    1    2    0    0 -0.31613997268E+02  0.23838489376E+02  0.92436671440E+01  0.50528883172E+02  0.30000070889E+02 0.  0.
         12    1    1    2    0    0  0.31613997268E+02 -0.23838489376E+02 -0.92436671440E+01  0.40659116828E+02  0.00000000000E+00 0. -1.
         11    1    3    3    0    0 -0.86249542155E+01 -0.10269017968E+01 -0.25625034283E+01  0.90559807090E+01  0.51100000000E-03 0. -1.
        -11    1    3    3    0    0 -0.16285743694E+02  0.13327085851E+02 -0.33177598381E+01  0.21303619307E+02  0.51100000000E-03 0.  1.
         12    1    3    3    0    0 -0.67032993581E+01  0.11538305322E+02  0.15123930410E+02  0.20169283156E+02  0.00000000000E+00 0. -1.
</event>
<event>
 7    1  0.5329250E-013  0.5052886E+02  0.7816164E-02  0.1300439E+00
        -11   -1    0    0    0    0  0.00000000000E+00  0.00000000000E+00  0.45593999997E+02  0.45594000000E+02  0.51100000000E-03 0.  1.
         11   -1    0    0    0    0 -0.00000000000E+00 -0.00000000000E+00 -0.45593999997E+02  0.45594000000E+02  0.51100000000E-03 0. -1.
    9900012    2    1    2    0    0 -0.22386749564E+02  0.13260642587E+02  0.31243476848E+02  0.50528855353E+02  0.29999986330E+02 0.  0.
         12    1    1    2    0    0  0.22386749564E+02 -0.13260642587E+02 -0.31243476848E+02  0.40659144647E+02  0.00000000000E+00 0. -1.
         11    1    3    3    0    0  0.15067657145E+01  0.25066729477E+01  0.36862524754E+01  0.47055509517E+01  0.51100000000E-03 0. -1.
        -11    1    3    3    0    0 -0.56290865863E+01 -0.80792129299E+01  0.42290493150E+01  0.10716583212E+02  0.51100000000E-03 0.  1.
        -12    1    3    3    0    0 -0.18264428692E+02  0.18833182569E+02  0.23328175058E+02  0.35106721189E+02  0.00000000000E+00 0.  1.
</event>
<event>
 7    1  0.5978028E-013  0.5052884E+02  0.7816164E-02  0.1300439E+00
        -11   -1    0    0    0    0  0.00000000000E+00  0.00000000000E+00  0.45593999997E+02  0.45594000000E+02  0.51100000000E-03 0. -1.
         11   -1    0    0    0    0 -0.00000000000E+00 -0.00000000000E+00 -0.45593999997E+02  0.45594000000E+02  0.51100000000E-03 0.  1.
    9900012    2    1    2    0    0 -0.38926999991E+02 -0.59681022219E+01 -0.10111253778E+02  0.50528843277E+02  0.29999949625E+02 0.  0.
         12    1    1    2    0    0  0.38926999991E+02  0.59681022219E+01  0.10111253778E+02  0.40659156723E+02  0.00000000000E+00 0. -1.
         11    1    3    3    0    0 -0.65319795645E+01 -0.65046748541E+01  0.50695721626E+01  0.10520366636E+02  0.51100000000E-03 0. -1.
        -11    1    3    3    0    0 -0.22771579818E+02 -0.72580710907E+01 -0.61429310072E+01  0.24677115815E+02  0.51100000000E-03 0.  1.
         12    1    3    3    0    0 -0.96234406093E+01  0.77946437229E+01 -0.90378949333E+01  0.15331360825E+02  0.00000000000E+00 0. -1.
</event>
<event>
 7    1  0.5329250E-013  0.5052887E+02  0.7816164E-02  0.1300439E+00
        -11   -1    0    0    0    0  0.00000000000E+00  0.00000000000E+00  0.45593999997E+02  0.45594000000E+02  0.51100000000E-03 0. -1.
         11   -1    0    0    0    0 -0.00000000000E+00 -0.00000000000E+00 -0.45593999997E+02  0.45594000000E+02  0.51100000000E-03 0.  1.
    9900012    2    1    2    0    0  0.90466697579E+01 -0.37147383320E+02  0.13834528035E+02  0.50528874491E+02  0.30000044502E+02 0.  0.
         12    1    1    2    0    0 -0.90466697579E+01  0.37147383320E+02 -0.13834528035E+02  0.40659125509E+02  0.00000000000E+00 0. -1.
         11    1    3    3    0    0 -0.39554145270E+01 -0.37279498219E+01  0.68651376792E+01  0.87563136976E+01  0.51100000000E-03 0. -1.
        -11    1    3    3    0    0  0.56119288945E+01 -0.16252925601E+02 -0.68706229207E+01  0.18516392632E+02  0.51100000000E-03 0.  1.
         12    1    3    3    0    0  0.73901553904E+01 -0.17166507897E+02  0.13840013276E+02  0.23256168162E+02  0.00000000000E+00 0. -1.
</event>
<event>
 7    1  0.5329250E-013  0.5052885E+02  0.7816164E-02  0.1300439E+00
        -11   -1    0    0    0    0  0.00000000000E+00  0.00000000000E+00  0.45593999997E+02  0.45594000000E+02  0.51100000000E-03 0.  1.
         11   -1    0    0    0    0 -0.00000000000E+00 -0.00000000000E+00 -0.45593999997E+02  0.45594000000E+02  0.51100000000E-03 0. -1.
    9900012    2    1    2    0    0 -0.31203529103E+02 -0.25933882252E+02  0.26343563982E+01  0.50528852066E+02  0.29999976339E+02 0.  0.
         12    1    1    2    0    0  0.31203529103E+02  0.25933882252E+02 -0.26343563982E+01  0.40659147934E+02  0.00000000000E+00 0. -1.
         11    1    3    3    0    0 -0.23576107103E+02 -0.41002822153E+01  0.15460893744E+01  0.23979898519E+02  0.51100000000E-03 0. -1.
        -11    1    3    3    0    0 -0.49761672755E+01 -0.51144460396E+01 -0.48293147465E+01  0.86163844058E+01  0.51100000000E-03 0.  1.
        -12    1    3    3    0    0 -0.26512547243E+01 -0.16719153997E+02  0.59175817703E+01  0.17932569141E+02  0.00000000000E+00 0.  1.
</event>
<event>
 7    1  0.5329250E-013  0.5052885E+02  0.7816164E-02  0.1300439E+00
        -11   -1    0    0    0    0  0.00000000000E+00  0.00000000000E+00  0.45593999997E+02  0.45594000000E+02  0.51100000000E-03 0. -1.
         11   -1    0    0    0    0 -0.00000000000E+00 -0.00000000000E+00 -0.45593999997E+02  0.45594000000E+02  0.51100000000E-03 0.  1.
    9900012    2    1    2    0    0  0.18991917709E+02 -0.35428627426E+02  0.61061891230E+01  0.50528854348E+02  0.29999983277E+02 0.  0.
         12    1    1    2    0    0 -0.18991917709E+02  0.35428627426E+02 -0.61061891230E+01  0.40659145652E+02  0.00000000000E+00 0. -1.
         11    1    3    3    0    0 -0.11100936254E+01 -0.75127329013E+01  0.91638250300E+01  0.11901644968E+02  0.51100000000E-03 0. -1.
        -11    1    3    3    0    0  0.13683776237E+02 -0.15366273304E+02  0.65215513738E+01  0.21584687163E+02  0.51100000000E-03 0.  1.
         12    1    3    3    0    0  0.64182350969E+01 -0.12549621221E+02 -0.95791872809E+01  0.17042522217E+02  0.00000000000E+00 0. -1.
</event>
<event>
 7    1  0.5329250E-013  0.5052886E+02  0.7816164E-02  0.1300439E+00
        -11   -1    0    0    0    0  0.00000000000E+00  0.00000000000E+00  0.45593999997E+02  0.45594000000E+02  0.51100000000E-03 0.  1.
         11   -1    0    0    0    0 -0.00000000000E+00 -0.00000000000E+00 -0.45593999997E+02  0.45594000000E+02  0.51100000000E-03 0. -1.
    9900012    2    1    2    0    0 -0.32115244259E+02  0.18394599618E+01  0.24867507564E+02  0.50528862537E+02  0.30000008169E+02 0.  0.
         12    1    1    2    0    0  0.32115244259E+02 -0.18394599618E+01 -0.24867507564E+02  0.40659137463E+02  0.00000000000E+00 0. -1.
         11    1    3    3    0    0 -0.93367779642E+01  0.46286983374E+00 -0.61638762287E+01  0.11197456928E+02  0.51100000000E-03 0. -1.
        -11    1    3    3    0    0 -0.13407620364E+02 -0.28242539347E+01  0.20170491443E+02  0.24384204302E+02  0.51100000000E-03 0.  1.
        -12    1    3    3    0    0 -0.93708459308E+01  0.42008440628E+01  0.10860892349E+02  0.14947201307E+02  0.00000000000E+00 0.  1.
</event>
<event>
 7    1  0.5329250E-013  0.5052886E+02  0.7816164E-02  0.1300439E+00
        -11   -1    0    0    0    0  0.00000000000E+00  0.00000000000E+00  0.45593999997E+02  0.45594000000E+02  0.51100000000E-03 0. -1.
         11   -1    0    0    0    0 -0.00000000000E+00 -0.00000000000E+00 -0.45593999997E+02  0.45594000000E+02  0.51100000000E-03 0.  1.
    9900012    2    1    2    0    0 -0.12906817210E+02 -0.34022700459E+02 -0.18139329844E+02  0.50528863706E+02  0.30000011721E+02 0.  0.
         12    1    1    2    0    0  0.12906817210E+02  0.34022700459E+02  0.18139329844E+02  0.40659136294E+02  0.00000000000E+00 0. -1.
         11    1    3    3    0    0 -0.68298010483E+01 -0.11586112644E+02  0.14882905260E+00  0.13450142710E+02  0.51100000000E-03 0. -1.
        -11    1    3    3    0    0  0.68736446693E+01 -0.13011694493E+02 -0.31692948535E+01  0.15053093195E+02  0.51100000000E-03 0.  1.
         12    1    3    3    0    0 -0.12950660831E+02 -0.94248933215E+01 -0.15118864043E+02  0.22025627801E+02  0.00000000000E+00 0. -1.
</event>
<event>
 7    1  0.5329250E-013  0.5052886E+02  0.7816164E-02  0.1300439E+00
        -11   -1    0    0    0    0  0.00000000000E+00  0.00000000000E+00  0.45593999997E+02  0.45594000000E+02  0.51100000000E-03 0. -1.
         11   -1    0    0    0    0 -0.00000000000E+00 -0.00000000000E+00 -0.45593999997E+02  0.45594000000E+02  0.51100000000E-03 0.  1.
    9900012    2    1    2    0    0 -0.20352519652E+02  0.25381636647E+02 -0.24386744812E+02  0.50528857638E+02  0.29999993278E+02 0.  0.
         12    1    1    2    0    0  0.20352519652E+02 -0.25381636647E+02  0.24386744812E+02  0.40659142362E+02  0.00000000000E+00 0. -1.
         11    1    3    3    0    0 -0.15079746786E+02  0.13090156559E+02 -0.21444956554E+02  0.29302510537E+02  0.51100000000E-03 0. -1.
        -11    1    3    3    0    0  0.13710284499E+01 -0.48993835260E+00 -0.62741824215E+01  0.64408946521E+01  0.51100000000E-03 0.  1.
         12    1    3    3    0    0 -0.66438013157E+01  0.12781418441E+02  0.33323941641E+01  0.14785452450E+02  0.00000000000E+00 0. -1.
</event>
<event>
 7    1  0.5329250E-013  0.5052884E+02  0.7816164E-02  0.1300439E+00
        -11   -1    0    0    0    0  0.00000000000E+00  0.00000000000E+00  0.45593999997E+02  0.45594000000E+02  0.51100000000E-03 0.  1.
         11   -1    0    0    0    0 -0.00000000000E+00 -0.00000000000E+00 -0.45593999997E+02  0.45594000000E+02  0.51100000000E-03 0. -1.
    9900012    2    1    2    0    0 -0.23482060505E+02  0.13908169322E+02  0.30138399583E+02  0.50528837824E+02  0.29999933049E+02 0.  0.
         12    1    1    2    0    0  0.23482060505E+02 -0.13908169322E+02 -0.30138399583E+02  0.40659162176E+02  0.00000000000E+00 0. -1.
         11    1    3    3    0    0 -0.12552411923E+02  0.13625913069E+02  0.23404237778E+02  0.29849403650E+02  0.51100000000E-03 0.  1.
        -11    1    3    3    0    0 -0.61547074562E+01 -0.48488381148E+01  0.10198534847E+02  0.12860861877E+02  0.51100000000E-03 0. -1.
         12    1    3    3    0    0 -0.47749411263E+01  0.51310943676E+01 -0.34643730425E+01  0.78185722959E+01  0.00000000000E+00 0. -1.
</event>
<event>
 7    1  0.5329250E-013  0.5052885E+02  0.7816164E-02  0.1300439E+00
        -11   -1    0    0    0    0  0.00000000000E+00  0.00000000000E+00  0.45593999997E+02  0.45594000000E+02  0.51100000000E-03 0.  1.
         11   -1    0    0    0    0 -0.00000000000E+00 -0.00000000000E+00 -0.45593999997E+02  0.45594000000E+02  0.51100000000E-03 0. -1.
    9900012    2    1    2    0    0 -0.25111167948E+02  0.56317869646E+01  0.31478223810E+02  0.50528851530E+02  0.29999974709E+02 0.  0.
         12    1    1    2    0    0  0.25111167948E+02 -0.56317869646E+01 -0.31478223810E+02  0.40659148470E+02  0.00000000000E+00 0. -1.
         11    1    3    3    0    0  0.37316247955E+01  0.13729821989E+01  0.27090546792E+01  0.48113492130E+01  0.51100000000E-03 0. -1.
        -11    1    3    3    0    0 -0.64798782968E+01  0.57030018681E+01  0.19763070215E+02  0.21565991691E+02  0.51100000000E-03 0.  1.
        -12    1    3    3    0    0 -0.22362914446E+02 -0.14441971025E+01  0.90060989161E+01  0.24151510625E+02  0.00000000000E+00 0.  1.
</event>
<event>
 7    1  0.5329250E-013  0.5052886E+02  0.7816164E-02  0.1300439E+00
        -11   -1    0    0    0    0  0.00000000000E+00  0.00000000000E+00  0.45593999997E+02  0.45594000000E+02  0.51100000000E-03 0.  1.
         11   -1    0    0    0    0 -0.00000000000E+00 -0.00000000000E+00 -0.45593999997E+02  0.45594000000E+02  0.51100000000E-03 0. -1.
    9900012    2    1    2    0    0  0.68201553412E+01 -0.23230437301E+02  0.32664933138E+02  0.50528860892E+02  0.30000003167E+02 0.  0.
         12    1    1    2    0    0 -0.68201553412E+01  0.23230437301E+02 -0.32664933138E+02  0.40659139108E+02  0.00000000000E+00 0. -1.
         11    1    3    3    0    0  0.60820472530E+01 -0.12854054780E+02  0.11061500606E+02  0.18015960118E+02  0.51100000000E-03 0. -1.
        -11    1    3    3    0    0 -0.19957649530E+01  0.62450551360E+01  0.10360800237E+02  0.12260912413E+02  0.51100000000E-03 0.  1.
         12    1    3    3    0    0  0.27338730412E+01 -0.16621437657E+02  0.11242632296E+02  0.20251988360E+02  0.00000000000E+00 0. -1.
</event>
<event>
 7    1  0.5329250E-013  0.5052886E+02  0.7816164E-02  0.1300439E+00
        -11   -1    0    0    0    0  0.00000000000E+00  0.00000000000E+00  0.45593999997E+02  0.45594000000E+02  0.51100000000E-03 0.  1.
         11   -1    0    0    0    0 -0.00000000000E+00 -0.00000000000E+00 -0.45593999997E+02  0.45594000000E+02  0.51100000000E-03 0. -1.
    9900012    2    1    2    0    0  0.14277091980E+02  0.32898948633E+02  0.19156959331E+02  0.50528864896E+02  0.30000015339E+02 0.  0.
         12    1    1    2    0    0 -0.14277091980E+02 -0.32898948633E+02 -0.19156959331E+02  0.40659135104E+02  0.00000000000E+00 0. -1.
         11    1    3    3    0    0  0.24079043708E+01  0.60597112958E+01 -0.18901058457E+01  0.67890061729E+01  0.51100000000E-03 0. -1.
        -11    1    3    3    0    0 -0.65730098198E+01  0.15133394376E+02  0.89632452817E+01  0.18776683671E+02  0.51100000000E-03 0.  1.
         12    1    3    3    0    0  0.18442197429E+02  0.11705842961E+02  0.12083819895E+02  0.24963175053E+02  0.00000000000E+00 0. -1.
</event>
<event>
 7    1  0.5329250E-013  0.5052887E+02  0.7816164E-02  0.1300439E+00
        -11   -1    0    0    0    0  0.00000000000E+00  0.00000000000E+00  0.45593999997E+02  0.45594000000E+02  0.51100000000E-03 0. -1.
         11   -1    0    0    0    0 -0.00000000000E+00 -0.00000000000E+00 -0.45593999997E+02  0.45594000000E+02  0.51100000000E-03 0.  1.
    9900012    2    1    2    0    0 -0.39308420126E+02  0.30777131883E+01  0.99267746227E+01  0.50528867376E+02  0.30000022878E+02 0.  0.
         12    1    1    2    0    0  0.39308420126E+02 -0.30777131883E+01 -0.99267746227E+01  0.40659132624E+02  0.00000000000E+00 0. -1.
         11    1    3    3    0    0 -0.10209735713E+02  0.83955995004E+01 -0.41318250904E+01  0.13849071201E+02  0.51100000000E-03 0. -1.
        -11    1    3    3    0    0 -0.15092585800E+02  0.45583881687E+01  0.11116757182E+02  0.19291120738E+02  0.51100000000E-03 0.  1.
         12    1    3    3    0    0 -0.14006098613E+02 -0.98762744808E+01  0.29418425314E+01  0.17388675437E+02  0.00000000000E+00 0. -1.
</event>
<event>
 7    1  0.5329250E-013  0.5052886E+02  0.7816164E-02  0.1300439E+00
        -11   -1    0    0    0    0  0.00000000000E+00  0.00000000000E+00  0.45593999997E+02  0.45594000000E+02  0.51100000000E-03 0.  1.
         11   -1    0    0    0    0 -0.00000000000E+00 -0.00000000000E+00 -0.45593999997E+02  0.45594000000E+02  0.51100000000E-03 0. -1.
    9900012    2    1    2    0    0  0.38809527401E+02 -0.68283998642E+01 -0.10017927495E+02  0.50528864088E+02  0.30000012882E+02 0.  0.
         12    1    1    2    0    0 -0.38809527401E+02  0.68283998642E+01  0.10017927495E+02  0.40659135912E+02  0.00000000000E+00 0. -1.
         11    1    3    3    0    0  0.85426974870E+01 -0.56265066727E+01  0.69022314727E+01  0.12340018527E+02  0.51100000000E-03 0. -1.
        -11    1    3    3    0    0 -0.10240026994E+01 -0.43252863760E+00  0.15027995916E+01  0.18692430084E+01  0.51100000000E-03 0.  1.
         12    1    3    3    0    0  0.31290832614E+02 -0.76936455389E+00 -0.18422958559E+02  0.36319602552E+02  0.00000000000E+00 0. -1.
</event>
<event>
 7    1  0.5329250E-013  0.5052880E+02  0.7816164E-02  0.1300439E+00
        -11   -1    0    0    0    0  0.00000000000E+00  0.00000000000E+00  0.45593999997E+02  0.45594000000E+02  0.51100000000E-03 0. -1.
         11   -1    0    0    0    0 -0.00000000000E+00 -0.00000000000E+00 -0.45593999997E+02  0.45594000000E+02  0.51100000000E-03 0.  1.
    9900012    2    1    2    0    0  0.40002750794E+02  0.19663262922E+00 -0.72740505909E+01  0.50528799965E+02  0.29999817975E+02 0.  0.
         12    1    1    2    0    0 -0.40002750794E+02 -0.19663262922E+00  0.72740505909E+01  0.40659200035E+02  0.00000000000E+00 0. -1.
         11    1    3    3    0    0  0.23397115356E+01 -0.44764596198E+01 -0.49678001484E+01  0.70846297980E+01  0.51100000000E-03 0.  1.
        -11    1    3    3    0    0  0.35702237270E+02  0.13594102637E+00  0.34362077987E+01  0.35867474826E+02  0.51100000000E-03 0. -1.
         12    1    3    3    0    0  0.19608019877E+01  0.45371512227E+01 -0.57424582412E+01  0.75766953419E+01  0.00000000000E+00 0. -1.
</event>
<event>
 7    1  0.5329250E-013  0.5052886E+02  0.7816164E-02  0.1300439E+00
        -11   -1    0    0    0    0  0.00000000000E+00  0.00000000000E+00  0.45593999997E+02  0.45594000000E+02  0.51100000000E-03 0.  1.
         11   -1    0    0    0    0 -0.00000000000E+00 -0.00000000000E+00 -0.45593999997E+02  0.45594000000E+02  0.51100000000E-03 0. -1.
    9900012    2    1    2    0    0 -0.39162327212E+02  0.61798201394E+01  0.90159503950E+01  0.50528863129E+02  0.30000009966E+02 0.  0.
         12    1    1    2    0    0  0.39162327212E+02 -0.61798201394E+01 -0.90159503950E+01  0.40659136871E+02  0.00000000000E+00 0. -1.
         11    1    3    3    0    0  0.98136345344E+00 -0.63195399720E+01  0.91625898663E+00  0.64605874715E+01  0.51100000000E-03 0. -1.
        -11    1    3    3    0    0 -0.17956950486E+02  0.66001966240E+00  0.54698266792E+01  0.18783149387E+02  0.51100000000E-03 0.  1.
        -12    1    3    3    0    0 -0.22186740179E+02  0.11839340449E+02  0.26298647292E+01  0.25285126271E+02  0.00000000000E+00 0.  1.
</event>
<event>
 7    1  0.5329250E-013  0.5052886E+02  0.7816164E-02  0.1300439E+00
        -11   -1    0    0    0    0  0.00000000000E+00  0.00000000000E+00  0.45593999997E+02  0.45594000000E+02  0.51100000000E-03 0. -1.
         11   -1    0    0    0    0 -0.00000000000E+00 -0.00000000000E+00 -0.45593999997E+02  0.45594000000E+02  0.51100000000E-03 0.  1.
    9900012    2    1    2    0    0  0.10824792155E+02  0.36779672722E+02 -0.13536824039E+02  0.50528855201E+02  0.29999985870E+02 0.  0.
         12    1    1    2    0    0 -0.10824792155E+02 -0.36779672722E+02  0.13536824039E+02  0.40659144799E+02  0.00000000000E+00 0. -1.
         11    1    3    3    0    0  0.13774327581E+02  0.23008999107E+02 -0.95696319514E+01  0.28473215417E+02  0.51100000000E-03 0. -1.
        -11    1    3    3    0    0  0.49961100354E+01  0.10494901077E+02 -0.62031964615E+01  0.13175117104E+02  0.51100000000E-03 0.  1.
         12    1    3    3    0    0 -0.79456454614E+01  0.32757725368E+01  0.22360043741E+01  0.88805226801E+01  0.00000000000E+00 0. -1.
</event>
<event>
 7    1  0.5329250E-013  0.5052886E+02  0.7816164E-02  0.1300439E+00
        -11   -1    0    0    0    0  0.00000000000E+00  0.00000000000E+00  0.45593999997E+02  0.45594000000E+02  0.51100000000E-03 0. -1.
         11   -1    0    0    0    0 -0.00000000000E+00 -0.00000000000E+00 -0.45593999997E+02  0.45594000000E+02  0.51100000000E-03 0.  1.
    9900012    2    1    2    0    0 -0.36514032637E+02 -0.22754002152E+01  0.17740178365E+02  0.50528856453E+02  0.29999989675E+02 0.  0.
         12    1    1    2    0    0  0.36514032637E+02  0.22754002152E+01 -0.17740178365E+02  0.40659143547E+02  0.00000000000E+00 0. -1.
         11    1    3    3    0    0 -0.11710906280E+02 -0.39964883544E+01  0.13468114502E+02  0.18289542191E+02  0.51100000000E-03 0. -1.
        -11    1    3    3    0    0 -0.24343147595E+02 -0.41469279836E+01  0.71209848020E+01  0.25700083100E+02  0.51100000000E-03 0.  1.
        -12    1    3    3    0    0 -0.45997876224E+00  0.58680161227E+01 -0.28489209385E+01  0.65392311622E+01  0.00000000000E+00 0.  1.
</event>
<event>
 7    1  0.5329250E-013  0.5052886E+02  0.7816164E-02  0.1300439E+00
        -11   -1    0    0    0    0  0.00000000000E+00  0.00000000000E+00  0.45593999997E+02  0.45594000000E+02  0.51100000000E-03 0. -1.
         11   -1    0    0    0    0 -0.00000000000E+00 -0.00000000000E+00 -0.45593999997E+02  0.45594000000E+02  0.51100000000E-03 0.  1.
    9900012    2    1    2    0    0 -0.13486916021E+02  0.21374908940E+01 -0.38297521964E+02  0.50528856383E+02  0.29999989461E+02 0.  0.
         12    1    1    2    0    0  0.13486916021E+02 -0.21374908940E+01  0.38297521964E+02  0.40659143617E+02  0.00000000000E+00 0. -1.
         11    1    3    3    0    0 -0.20671554269E+00  0.47349786491E+01 -0.61575375696E+00  0.47793207753E+01  0.51100000000E-03 0. -1.
        -11    1    3    3    0    0 -0.16484034670E+02  0.80045481426E+00 -0.37617996798E+02  0.41078921727E+02  0.51100000000E-03 0.  1.
         12    1    3    3    0    0  0.32038341913E+01 -0.33979425694E+01 -0.63771409768E-01  0.46706138807E+01  0.00000000000E+00 0. -1.
</event>
<event>
 7    1  0.5329250E-013  0.5052887E+02  0.7816164E-02  0.1300439E+00
        -11   -1    0    0    0    0  0.00000000000E+00  0.00000000000E+00  0.45593999997E+02  0.45594000000E+02  0.51100000000E-03 0.  1.
         11   -1    0    0    0    0 -0.00000000000E+00 -0.00000000000E+00 -0.45593999997E+02  0.45594000000E+02  0.51100000000E-03 0. -1.
    9900012    2    1    2    0    0  0.23630167755E+02 -0.16337380392E+02  0.28772736267E+02  0.50528865989E+02  0.30000018661E+02 0.  0.
         12    1    1    2    0    0 -0.23630167755E+02  0.16337380392E+02 -0.28772736267E+02  0.40659134011E+02  0.00000000000E+00 0. -1.
         11    1    3    3    0    0  0.57575251679E+00 -0.83132527643E+01  0.62960789573E+01  0.10444245927E+02  0.51100000000E-03 0. -1.
        -11    1    3    3    0    0  0.19439122362E+02 -0.15460861256E+02  0.18063754628E+02  0.30711837140E+02  0.51100000000E-03 0.  1.
        -12    1    3    3    0    0  0.36152928762E+01  0.74367336283E+01  0.44129026821E+01  0.93727829230E+01  0.00000000000E+00 0.  1.
</event>
<event>
 7    1  0.5329250E-013  0.5052887E+02  0.7816164E-02  0.1300439E+00
        -11   -1    0    0    0    0  0.00000000000E+00  0.00000000000E+00  0.45593999997E+02  0.45594000000E+02  0.51100000000E-03 0. -1.
         11   -1    0    0    0    0 -0.00000000000E+00 -0.00000000000E+00 -0.45593999997E+02  0.45594000000E+02  0.51100000000E-03 0.  1.
    9900012    2    1    2    0    0 -0.79102567850E+01 -0.61180172500E+01 -0.39410183438E+02  0.50528869955E+02  0.30000030714E+02 0.  0.
         12    1    1    2    0    0  0.79102567850E+01  0.61180172500E+01  0.39410183438E+02  0.40659130045E+02  0.00000000000E+00 0. -1.
         11    1    3    3    0    0  0.10036687299E+01  0.28288419161E+01 -0.26410750446E+02  0.26580771939E+02  0.51100000000E-03 0. -1.
        -11    1    3    3    0    0 -0.63843476577E+01 -0.68692174519E+01 -0.16609999818E+02  0.19074541610E+02  0.51100000000E-03 0.  1.
        -12    1    3    3    0    0 -0.25295778571E+01 -0.20776417142E+01  0.36105668264E+01  0.48735564053E+01  0.00000000000E+00 0.  1.
</event>
<event>
 7    1  0.5329250E-013  0.5052886E+02  0.7816164E-02  0.1300439E+00
        -11   -1    0    0    0    0  0.00000000000E+00  0.00000000000E+00  0.45593999997E+02  0.45594000000E+02  0.51100000000E-03 0.  1.
         11   -1    0    0    0    0 -0.00000000000E+00 -0.00000000000E+00 -0.45593999997E+02  0.45594000000E+02  0.51100000000E-03 0. -1.
    9900012    2    1    2    0    0 -0.28434286923E+02  0.25288243212E+01  0.28952757815E+02  0.50528858219E+02  0.29999995043E+02 0.  0.
         12    1    1    2    0    0  0.28434286923E+02 -0.25288243212E+01 -0.28952757815E+02  0.40659141781E+02  0.00000000000E+00 0. -1.
         11    1    3    3    0    0  0.37756699075E+01  0.54706033477E+00  0.65920783296E+01  0.76164594941E+01  0.51100000000E-03 0. -1.
        -11    1    3    3    0    0 -0.12118649817E+02  0.24094600083E+01  0.18810132499E+02  0.22505293951E+02  0.51100000000E-03 0.  1.
        -12    1    3    3    0    0 -0.20091307013E+02 -0.42769602187E+00  0.35505469867E+01  0.20407104775E+02  0.00000000000E+00 0.  1.
</event>
<event>
 7    1  0.5329250E-013  0.5052885E+02  0.7816164E-02  0.1300439E+00
        -11   -1    0    0    0    0  0.00000000000E+00  0.00000000000E+00  0.45593999997E+02  0.45594000000E+02  0.51100000000E-03 0. -1.
         11   -1    0    0    0    0 -0.00000000000E+00 -0.00000000000E+00 -0.45593999997E+02  0.45594000000E+02  0.51100000000E-03 0.  1.
    9900012    2    1    2    0    0 -0.11322853032E+02  0.20498222014E+02 -0.33238267246E+02  0.50528849541E+02  0.29999968665E+02 0.  0.
         12    1    1    2    0    0  0.11322853032E+02 -0.20498222014E+02  0.33238267246E+02  0.40659150459E+02  0.00000000000E+00 0. -1.
         11    1    3    3    0    0  0.48432285798E+01  0.22091874661E+01  0.17132682935E+01  0.55921964239E+01  0.51100000000E-03 0. -1.
        -11    1    3    3    0    0 -0.28736200811E+01 -0.23369156338E+01 -0.47383020010E+01  0.60141810053E+01  0.51100000000E-03 0.  1.
         12    1    3    3    0    0 -0.13292461531E+02  0.20625950181E+02 -0.30213233539E+02  0.38922472112E+02  0.00000000000E+00 0. -1.
</event>
<event>
 7    1  0.7025002E-013  0.5052886E+02  0.7816164E-02  0.1300439E+00
        -11   -1    0    0    0    0  0.00000000000E+00  0.00000000000E+00  0.45593999997E+02  0.45594000000E+02  0.51100000000E-03 0. -1.
         11   -1    0    0    0    0 -0.00000000000E+00 -0.00000000000E+00 -0.45593999997E+02  0.45594000000E+02  0.51100000000E-03 0.  1.
    9900012    2    1    2    0    0  0.22663567920E+02 -0.12083501736E+02 -0.31520105447E+02  0.50528863604E+02  0.30000011411E+02 0.  0.
         12    1    1    2    0    0 -0.22663567920E+02  0.12083501736E+02  0.31520105447E+02  0.40659136396E+02  0.00000000000E+00 0. -1.
         11    1    3    3    0    0  0.87140914280E+00 -0.50039618255E+01  0.39386381155E+01  0.64274301483E+01  0.51100000000E-03 0. -1.
        -11    1    3    3    0    0  0.15963444834E+02 -0.18846428283E+01 -0.14178012365E+02  0.21433606426E+02  0.51100000000E-03 0.  1.
        -12    1    3    3    0    0  0.58287139436E+01 -0.51948970824E+01 -0.21280731197E+02  0.22667827029E+02  0.00000000000E+00 0.  1.
</event>
<event>
 7    1  0.5329250E-013  0.5052885E+02  0.7816164E-02  0.1300439E+00
        -11   -1    0    0    0    0  0.00000000000E+00  0.00000000000E+00  0.45593999997E+02  0.45594000000E+02  0.51100000000E-03 0.  1.
         11   -1    0    0    0    0 -0.00000000000E+00 -0.00000000000E+00 -0.45593999997E+02  0.45594000000E+02  0.51100000000E-03 0. -1.
    9900012    2    1    2    0    0 -0.26280725810E+02  0.13392297174E+02  0.27984566012E+02  0.50528854564E+02  0.29999983933E+02 0.  0.
         12    1    1    2    0    0  0.26280725810E+02 -0.13392297174E+02 -0.27984566012E+02  0.40659145436E+02  0.00000000000E+00 0. -1.
         11    1    3    3    0    0 -0.76363303735E+01  0.13254995251E+01  0.77966735362E+01  0.10993571260E+02  0.51100000000E-03 0. -1.
        -11    1    3    3    0    0 -0.52523539108E+00  0.54321670488E+01  0.19476332465E+02  0.20226513234E+02  0.51100000000E-03 0.  1.
         12    1    3    3    0    0 -0.18119160046E+02  0.66346306001E+01  0.71156001057E+00  0.19308770070E+02  0.00000000000E+00 0. -1.
</event>
<event>
 7    1  0.5329250E-013  0.5052888E+02  0.7816164E-02  0.1300439E+00
        -11   -1    0    0    0    0  0.00000000000E+00  0.00000000000E+00  0.45593999997E+02  0.45594000000E+02  0.51100000000E-03 0.  1.
         11   -1    0    0    0    0 -0.00000000000E+00 -0.00000000000E+00 -0.45593999997E+02  0.45594000000E+02  0.51100000000E-03 0. -1.
    9900012    2    1    2    0    0 -0.38654140385E+02  0.52880577412E+00 -0.12599270300E+02  0.50528882738E+02  0.30000069570E+02 0.  0.
         12    1    1    2    0    0  0.38654140385E+02 -0.52880577412E+00  0.12599270300E+02  0.40659117262E+02  0.00000000000E+00 0. -1.
         11    1    3    3    0    0 -0.14200161956E+02 -0.38940042459E+01  0.52593978745E+01  0.15635508783E+02  0.51100000000E-03 0. -1.
        -11    1    3    3    0    0 -0.12181306992E+02  0.51948905202E+01 -0.39260769741E-01  0.13242834637E+02  0.51100000000E-03 0.  1.
         12    1    3    3    0    0 -0.12272671437E+02 -0.77208050015E+00 -0.17819407405E+02  0.21650539318E+02  0.00000000000E+00 0. -1.
</event>
<event>
 7    1  0.5329250E-013  0.5052886E+02  0.7816164E-02  0.1300439E+00
        -11   -1    0    0    0    0  0.00000000000E+00  0.00000000000E+00  0.45593999997E+02  0.45594000000E+02  0.51100000000E-03 0. -1.
         11   -1    0    0    0    0 -0.00000000000E+00 -0.00000000000E+00 -0.45593999997E+02  0.45594000000E+02  0.51100000000E-03 0.  1.
    9900012    2    1    2    0    0  0.37281339346E+02  0.15334301918E+02 -0.53034308225E+01  0.50528862562E+02  0.30000008244E+02 0.  0.
         12    1    1    2    0    0 -0.37281339346E+02 -0.15334301918E+02  0.53034308225E+01  0.40659137438E+02  0.00000000000E+00 0. -1.
         11    1    3    3    0    0  0.76174881519E+01 -0.55587488015E+01  0.31539106922E+01  0.99434886683E+01  0.51100000000E-03 0.  1.
        -11    1    3    3    0    0  0.17973054043E+01  0.90166515181E+01 -0.23315470522E+00  0.91969925896E+01  0.51100000000E-03 0. -1.
        -12    1    3    3    0    0  0.27866545789E+02  0.11876399201E+02 -0.82241868095E+01  0.31388381304E+02  0.00000000000E+00 0.  1.
</event>
<event>
 7    1  0.5329250E-013  0.5052881E+02  0.7816164E-02  0.1300439E+00
        -11   -1    0    0    0    0  0.00000000000E+00  0.00000000000E+00  0.45593999997E+02  0.45594000000E+02  0.51100000000E-03 0.  1.
         11   -1    0    0    0    0 -0.00000000000E+00 -0.00000000000E+00 -0.45593999997E+02  0.45594000000E+02  0.51100000000E-03 0. -1.
    9900012    2    1    2    0    0  0.39476672579E+01  0.38735928207E+02 -0.11709546028E+02  0.50528810645E+02  0.29999850435E+02 0.  0.
         12    1    1    2    0    0 -0.39476672579E+01 -0.38735928207E+02  0.11709546028E+02  0.40659189355E+02  0.00000000000E+00 0. -1.
         11    1    3    3    0    0 -0.70002798918E+01  0.15631395948E+02  0.20894308570E+01  0.17254280032E+02  0.51100000000E-03 0. -1.
        -11    1    3    3    0    0  0.56074756915E+01  0.40488525859E+01  0.27835555267E+01  0.74555464270E+01  0.51100000000E-03 0.  1.
        -12    1    3    3    0    0  0.53404714582E+01  0.19055679673E+02 -0.16582532412E+02  0.25818984186E+02  0.00000000000E+00 0.  1.
</event>
<event>
 7    1  0.5329250E-013  0.5052886E+02  0.7816164E-02  0.1300439E+00
        -11   -1    0    0    0    0  0.00000000000E+00  0.00000000000E+00  0.45593999997E+02  0.45594000000E+02  0.51100000000E-03 0. -1.
         11   -1    0    0    0    0 -0.00000000000E+00 -0.00000000000E+00 -0.45593999997E+02  0.45594000000E+02  0.51100000000E-03 0.  1.
    9900012    2    1    2    0    0  0.39667146543E+02  0.69761601261E+01  0.55692064669E+01  0.50528863442E+02  0.30000010917E+02 0.  0.
         12    1    1    2    0    0 -0.39667146543E+02 -0.69761601261E+01 -0.55692064669E+01  0.40659136558E+02  0.00000000000E+00 0. -1.
         11    1    3    3    0    0  0.27504436756E+01  0.96883111994E+01  0.23153373376E+01  0.10333881244E+02  0.51100000000E-03 0. -1.
        -11    1    3    3    0    0  0.14317223930E+01 -0.48093563871E+00 -0.36730478662E+01  0.39714492301E+01  0.51100000000E-03 0.  1.
        -12    1    3    3    0    0  0.35484980475E+02 -0.22312154345E+01  0.69269169955E+01  0.36223532968E+02  0.00000000000E+00 0.  1.
</event>
<event>
 7    1  0.5329250E-013  0.5052886E+02  0.7816164E-02  0.1300439E+00
        -11   -1    0    0    0    0  0.00000000000E+00  0.00000000000E+00  0.45593999997E+02  0.45594000000E+02  0.51100000000E-03 0.  1.
         11   -1    0    0    0    0 -0.00000000000E+00 -0.00000000000E+00 -0.45593999997E+02  0.45594000000E+02  0.51100000000E-03 0. -1.
    9900012    2    1    2    0    0  0.16155049093E+02 -0.24840000908E+02  0.27841600598E+02  0.50528856131E+02  0.29999988696E+02 0.  0.
         12    1    1    2    0    0 -0.16155049093E+02  0.24840000908E+02 -0.27841600598E+02  0.40659143869E+02  0.00000000000E+00 0. -1.
         11    1    3    3    0    0  0.14935825929E+02 -0.89105859700E+01  0.15658785796E+01  0.17462228223E+02  0.51100000000E-03 0. -1.
        -11    1    3    3    0    0  0.16399815509E+01 -0.13674522102E+02  0.11017916252E+02  0.17637362983E+02  0.51100000000E-03 0.  1.
        -12    1    3    3    0    0 -0.42075838683E+00 -0.22548928362E+01  0.15257805767E+02  0.15429264925E+02  0.00000000000E+00 0.  1.
</event>
<event>
 7    1  0.5329250E-013  0.5052887E+02  0.7816164E-02  0.1300439E+00
        -11   -1    0    0    0    0  0.00000000000E+00  0.00000000000E+00  0.45593999997E+02  0.45594000000E+02  0.51100000000E-03 0.  1.
         11   -1    0    0    0    0 -0.00000000000E+00 -0.00000000000E+00 -0.45593999997E+02  0.45594000000E+02  0.51100000000E-03 0. -1.
    9900012    2    1    2    0    0  0.27602282468E+02  0.12352666461E+02  0.27178855331E+02  0.50528873802E+02  0.30000042407E+02 0.  0.
         12    1    1    2    0    0 -0.27602282468E+02 -0.12352666461E+02 -0.27178855331E+02  0.40659126198E+02  0.00000000000E+00 0. -1.
         11    1    3    3    0    0  0.66111754590E+01  0.19280377051E+01  0.11192055145E+02  0.13141045201E+02  0.51100000000E-03 0.  1.
        -11    1    3    3    0    0  0.14394993602E+02  0.18439259820E+02  0.10407973677E+02  0.25603672780E+02  0.51100000000E-03 0. -1.
        -12    1    3    3    0    0  0.65961134072E+01 -0.80146310648E+01  0.55788265096E+01  0.11784155821E+02  0.00000000000E+00 0.  1.
</event>
<event>
 7    1  0.5329250E-013  0.5052887E+02  0.7816164E-02  0.1300439E+00
        -11   -1    0    0    0    0  0.00000000000E+00  0.00000000000E+00  0.45593999997E+02  0.45594000000E+02  0.51100000000E-03 0.  1.
         11   -1    0    0    0    0 -0.00000000000E+00 -0.00000000000E+00 -0.45593999997E+02  0.45594000000E+02  0.51100000000E-03 0. -1.
    9900012    2    1    2    0    0 -0.21019459358E+02  0.86926943864E+01  0.33701400955E+02  0.50528867770E+02  0.30000024073E+02 0.  0.
         12    1    1    2    0    0  0.21019459358E+02 -0.86926943864E+01 -0.33701400955E+02  0.40659132230E+02  0.00000000000E+00 0. -1.
         11    1    3    3    0    0 -0.30067234792E+01 -0.70897507061E+00 -0.51546053681E+00  0.31318894548E+01  0.51100000000E-03 0. -1.
        -11    1    3    3    0    0 -0.94830238601E+01  0.12874971981E+01  0.34314386379E+02  0.35623903539E+02  0.51100000000E-03 0.  1.
         12    1    3    3    0    0 -0.85297120188E+01  0.81141722589E+01 -0.97524887231E-01  0.11773074776E+02  0.00000000000E+00 0. -1.
</event>
<event>
 7    1  0.5329250E-013  0.5052886E+02  0.7816164E-02  0.1300439E+00
        -11   -1    0    0    0    0  0.00000000000E+00  0.00000000000E+00  0.45593999997E+02  0.45594000000E+02  0.51100000000E-03 0.  1.
         11   -1    0    0    0    0 -0.00000000000E+00 -0.00000000000E+00 -0.45593999997E+02  0.45594000000E+02  0.51100000000E-03 0. -1.
    9900012    2    1    2    0    0 -0.34566284542E+02  0.54247454578E+01  0.20710132649E+02  0.50528862225E+02  0.30000007218E+02 0.  0.
         12    1    1    2    0    0  0.34566284542E+02 -0.54247454578E+01 -0.20710132649E+02  0.40659137775E+02  0.00000000000E+00 0. -1.
         11    1    3    3    0    0 -0.21389707896E+02  0.11730716651E+02  0.51833078467E+01  0.24939847584E+02  0.51100000000E-03 0. -1.
        -11    1    3    3    0    0 -0.13367378438E+02  0.52640917167E+00  0.88922408423E+01  0.16063494650E+02  0.51100000000E-03 0.  1.
         12    1    3    3    0    0  0.19080179231E+00 -0.68323803646E+01  0.66345839598E+01  0.95255199905E+01  0.00000000000E+00 0. -1.
</event>
<event>
 7    1  0.5329250E-013  0.5052885E+02  0.7816164E-02  0.1300439E+00
        -11   -1    0    0    0    0  0.00000000000E+00  0.00000000000E+00  0.45593999997E+02  0.45594000000E+02  0.51100000000E-03 0.  1.
         11   -1    0    0    0    0 -0.00000000000E+00 -0.00000000000E+00 -0.45593999997E+02  0.45594000000E+02  0.51100000000E-03 0. -1.
    9900012    2    1    2    0    0 -0.10650226805E+02  0.58266715522E+01  0.38804494231E+02  0.50528853368E+02  0.29999980296E+02 0.  0.
         12    1    1    2    0    0  0.10650226805E+02 -0.58266715522E+01 -0.38804494231E+02  0.40659146632E+02  0.00000000000E+00 0. -1.
         11    1    3    3    0    0 -0.26558111613E+01  0.86141646232E+01  0.50498523801E+01  0.10332384739E+02  0.51100000000E-03 0. -1.
        -11    1    3    3    0    0  0.17332159333E+01  0.44674933863E+01  0.24421926082E+02  0.24887607527E+02  0.51100000000E-03 0.  1.
         12    1    3    3    0    0 -0.97276315769E+01 -0.72549864573E+01  0.93327157689E+01  0.15308861101E+02  0.00000000000E+00 0. -1.
</event>
<event>
 7    1  0.5329250E-013  0.5052887E+02  0.7816164E-02  0.1300439E+00
        -11   -1    0    0    0    0  0.00000000000E+00  0.00000000000E+00  0.45593999997E+02  0.45594000000E+02  0.51100000000E-03 0.  1.
         11   -1    0    0    0    0 -0.00000000000E+00 -0.00000000000E+00 -0.45593999997E+02  0.45594000000E+02  0.51100000000E-03 0. -1.
    9900012    2    1    2    0    0 -0.31630962725E+02  0.49734422840E+01  0.25058178329E+02  0.50528865328E+02  0.30000016652E+02 0.  0.
         12    1    1    2    0    0  0.31630962725E+02 -0.49734422840E+01 -0.25058178329E+02  0.40659134672E+02  0.00000000000E+00 0. -1.
         11    1    3    3    0    0 -0.34322766394E+00  0.67041492250E+01  0.10909463432E+02  0.12809364336E+02  0.51100000000E-03 0. -1.
        -11    1    3    3    0    0 -0.19481281462E+02 -0.23428997947E+01  0.16533986853E+02  0.25658960002E+02  0.51100000000E-03 0.  1.
         12    1    3    3    0    0 -0.11806453599E+02  0.61219285364E+00 -0.23852719560E+01  0.12060540990E+02  0.00000000000E+00 0. -1.
</event>
<event>
 7    1  0.5329250E-013  0.5052887E+02  0.7816164E-02  0.1300439E+00
        -11   -1    0    0    0    0  0.00000000000E+00  0.00000000000E+00  0.45593999997E+02  0.45594000000E+02  0.51100000000E-03 0.  1.
         11   -1    0    0    0    0 -0.00000000000E+00 -0.00000000000E+00 -0.45593999997E+02  0.45594000000E+02  0.51100000000E-03 0. -1.
    9900012    2    1    2    0    0  0.17173868338E+02 -0.36653518401E+02  0.38396682073E+01  0.50528865518E+02  0.30000017229E+02 0.  0.
         12    1    1    2    0    0 -0.17173868338E+02  0.36653518401E+02 -0.38396682073E+01  0.40659134482E+02  0.00000000000E+00 0. -1.
         11    1    3    3    0    0 -0.20185989229E+01 -0.67872621162E+01  0.72250423525E+01  0.10116467066E+02  0.51100000000E-03 0. -1.
        -11    1    3    3    0    0  0.46680907773E+01 -0.22470776127E+02  0.24939222096E+01  0.23085634051E+02  0.51100000000E-03 0.  1.
         12    1    3    3    0    0  0.14524376483E+02 -0.73954801578E+01 -0.58792963548E+01  0.17326764401E+02  0.00000000000E+00 0. -1.
</event>
<event>
 7    1  0.5329250E-013  0.5052885E+02  0.7816164E-02  0.1300439E+00
        -11   -1    0    0    0    0  0.00000000000E+00  0.00000000000E+00  0.45593999997E+02  0.45594000000E+02  0.51100000000E-03 0.  1.
         11   -1    0    0    0    0 -0.00000000000E+00 -0.00000000000E+00 -0.45593999997E+02  0.45594000000E+02  0.51100000000E-03 0. -1.
    9900012    2    1    2    0    0 -0.31983439734E+02 -0.12664182140E+02  0.21675898216E+02  0.50528849862E+02  0.29999969639E+02 0.  0.
         12    1    1    2    0    0  0.31983439734E+02  0.12664182140E+02 -0.21675898216E+02  0.40659150138E+02  0.00000000000E+00 0. -1.
         11    1    3    3    0    0  0.16275004672E+01 -0.45983995461E+01  0.68188454544E+00  0.49253429272E+01  0.51100000000E-03 0. -1.
        -11    1    3    3    0    0 -0.11887604057E+02  0.17052480349E+01 -0.23668022699E+01  0.12240292249E+02  0.51100000000E-03 0.  1.
        -12    1    3    3    0    0 -0.21723336144E+02 -0.97710306292E+01  0.23360815940E+02  0.33363214686E+02  0.00000000000E+00 0.  1.
</event>
<event>
 7    1  0.5329250E-013  0.5052885E+02  0.7816164E-02  0.1300439E+00
        -11   -1    0    0    0    0  0.00000000000E+00  0.00000000000E+00  0.45593999997E+02  0.45594000000E+02  0.51100000000E-03 0. -1.
         11   -1    0    0    0    0 -0.00000000000E+00 -0.00000000000E+00 -0.45593999997E+02  0.45594000000E+02  0.51100000000E-03 0.  1.
    9900012    2    1    2    0    0  0.21334430731E+02  0.30666850097E+02 -0.16048449077E+02  0.50528851617E+02  0.29999974974E+02 0.  0.
         12    1    1    2    0    0 -0.21334430731E+02 -0.30666850097E+02  0.16048449077E+02  0.40659148383E+02  0.00000000000E+00 0. -1.
         11    1    3    3    0    0  0.26600469145E+01  0.15815253488E+01 -0.12279046970E+02  0.12663019654E+02  0.51100000000E-03 0. -1.
        -11    1    3    3    0    0  0.37875373765E+01 -0.83933788436E+00 -0.20757488979E+01  0.43998478622E+01  0.51100000000E-03 0.  1.
        -12    1    3    3    0    0  0.14886846440E+02  0.29924662632E+02 -0.16936532092E+01  0.33465984100E+02  0.00000000000E+00 0.  1.
</event>
<event>
 7    1  0.5329250E-013  0.5052886E+02  0.7816164E-02  0.1300439E+00
        -11   -1    0    0    0    0  0.00000000000E+00  0.00000000000E+00  0.45593999997E+02  0.45594000000E+02  0.51100000000E-03 0. -1.
         11   -1    0    0    0    0 -0.00000000000E+00 -0.00000000000E+00 -0.45593999997E+02  0.45594000000E+02  0.51100000000E-03 0.  1.
    9900012    2    1    2    0    0 -0.32168176783E+02  0.18019735246E+02 -0.17136596550E+02  0.50528863299E+02  0.30000010485E+02 0.  0.
         12    1    1    2    0    0  0.32168176783E+02 -0.18019735246E+02  0.17136596550E+02  0.40659136701E+02  0.00000000000E+00 0. -1.
         11    1    3    3    0    0 -0.14196279874E+02  0.26439799741E+01  0.34600722549E+01  0.14849144508E+02  0.51100000000E-03 0.  1.
        -11    1    3    3    0    0  0.20594631827E+01  0.49479328772E+01 -0.38565026399E+00  0.53732815621E+01  0.51100000000E-03 0. -1.
        -12    1    3    3    0    0 -0.20031360092E+02  0.10427822395E+02 -0.20211018541E+02  0.30306437229E+02  0.00000000000E+00 0.  1.
</event>
<event>
 7    1  0.5329250E-013  0.5052884E+02  0.7816164E-02  0.1300439E+00
        -11   -1    0    0    0    0  0.00000000000E+00  0.00000000000E+00  0.45593999997E+02  0.45594000000E+02  0.51100000000E-03 0.  1.
         11   -1    0    0    0    0 -0.00000000000E+00 -0.00000000000E+00 -0.45593999997E+02  0.45594000000E+02  0.51100000000E-03 0. -1.
    9900012    2    1    2    0    0 -0.29418995841E+02  0.21935255099E+02  0.17508136418E+02  0.50528836539E+02  0.29999929143E+02 0.  0.
         12    1    1    2    0    0  0.29418995841E+02 -0.21935255099E+02 -0.17508136418E+02  0.40659163461E+02  0.00000000000E+00 0. -1.
         11    1    3    3    0    0  0.20257461716E+00  0.66246158757E+01  0.24164783809E+01  0.70544978562E+01  0.51100000000E-03 0. -1.
        -11    1    3    3    0    0 -0.19701344174E+02  0.18715638278E+02  0.28025197149E+01  0.27317983004E+02  0.51100000000E-03 0.  1.
        -12    1    3    3    0    0 -0.99202262841E+01 -0.34049990551E+01  0.12289138322E+02  0.16156355678E+02  0.00000000000E+00 0.  1.
</event>
<event>
 7    1  0.5329250E-013  0.5052882E+02  0.7816164E-02  0.1300439E+00
        -11   -1    0    0    0    0  0.00000000000E+00  0.00000000000E+00  0.45593999997E+02  0.45594000000E+02  0.51100000000E-03 0.  1.
         11   -1    0    0    0    0 -0.00000000000E+00 -0.00000000000E+00 -0.45593999997E+02  0.45594000000E+02  0.51100000000E-03 0. -1.
    9900012    2    1    2    0    0 -0.37840761806E+02  0.33724836551E+01  0.14486953990E+02  0.50528822241E+02  0.29999885685E+02 0.  0.
         12    1    1    2    0    0  0.37840761806E+02 -0.33724836551E+01 -0.14486953990E+02  0.40659177759E+02  0.00000000000E+00 0. -1.
         11    1    3    3    0    0 -0.71377411255E+01  0.97365967128E+01  0.56672853121E+01  0.13336670761E+02  0.51100000000E-03 0. -1.
        -11    1    3    3    0    0 -0.31914090237E+02 -0.57720791800E+01  0.45927086350E+01  0.32755442701E+02  0.51100000000E-03 0.  1.
         12    1    3    3    0    0  0.12110695559E+01 -0.59203387772E+00  0.42269600434E+01  0.44367087790E+01  0.00000000000E+00 0. -1.
</event>
<event>
 7    1  0.5329250E-013  0.5052886E+02  0.7816164E-02  0.1300439E+00
        -11   -1    0    0    0    0  0.00000000000E+00  0.00000000000E+00  0.45593999997E+02  0.45594000000E+02  0.51100000000E-03 0.  1.
         11   -1    0    0    0    0 -0.00000000000E+00 -0.00000000000E+00 -0.45593999997E+02  0.45594000000E+02  0.51100000000E-03 0. -1.
    9900012    2    1    2    0    0  0.23786669905E+02  0.15879798585E+02  0.28899690018E+02  0.50528858944E+02  0.29999997245E+02 0.  0.
         12    1    1    2    0    0 -0.23786669905E+02 -0.15879798585E+02 -0.28899690018E+02  0.40659141056E+02  0.00000000000E+00 0. -1.
         11    1    3    3    0    0 -0.14875677565E+01  0.15003776068E+01  0.10346994726E+02  0.10560506186E+02  0.51100000000E-03 0. -1.
        -11    1    3    3    0    0  0.21584942929E+02  0.37700855888E+01  0.18590928026E+02  0.28735794956E+02  0.51100000000E-03 0.  1.
         12    1    3    3    0    0  0.36892947324E+01  0.10609335389E+02 -0.38232733630E-01  0.11232557802E+02  0.00000000000E+00 0. -1.
</event>
<event>
 7    1  0.5329250E-013  0.5052889E+02  0.7816164E-02  0.1300439E+00
        -11   -1    0    0    0    0  0.00000000000E+00  0.00000000000E+00  0.45593999997E+02  0.45594000000E+02  0.51100000000E-03 0. -1.
         11   -1    0    0    0    0 -0.00000000000E+00 -0.00000000000E+00 -0.45593999997E+02  0.45594000000E+02  0.51100000000E-03 0.  1.
    9900012    2    1    2    0    0 -0.34642885378E+02 -0.14652586369E+02 -0.15438105288E+02  0.50528894138E+02  0.30000104221E+02 0.  0.
         12    1    1    2    0    0  0.34642885378E+02  0.14652586369E+02  0.15438105288E+02  0.40659105862E+02  0.00000000000E+00 0. -1.
         11    1    3    3    0    0  0.22773325817E+01 -0.48105642658E+01 -0.39885195106E-01  0.53225335445E+01  0.51100000000E-03 0. -1.
        -11    1    3    3    0    0 -0.25111475574E+02  0.15715946787E+01 -0.46716170845E+01  0.25590625662E+02  0.51100000000E-03 0.  1.
         12    1    3    3    0    0 -0.11808742386E+02 -0.11413616782E+02 -0.10726603009E+02  0.19615734931E+02  0.00000000000E+00 0. -1.
</event>
<event>
 7    1  0.5329250E-013  0.5052891E+02  0.7816164E-02  0.1300439E+00
        -11   -1    0    0    0    0  0.00000000000E+00  0.00000000000E+00  0.45593999997E+02  0.45594000000E+02  0.51100000000E-03 0. -1.
         11   -1    0    0    0    0 -0.00000000000E+00 -0.00000000000E+00 -0.45593999997E+02  0.45594000000E+02  0.51100000000E-03 0.  1.
    9900012    2    1    2    0    0 -0.26062003959E+02 -0.14654360583E+02 -0.27553287518E+02  0.50528905230E+02  0.30000137937E+02 0.  0.
         12    1    1    2    0    0  0.26062003959E+02  0.14654360583E+02  0.27553287518E+02  0.40659094770E+02  0.00000000000E+00 0. -1.
         11    1    3    3    0    0  0.98054715804E+00  0.45154317490E+01 -0.44653732741E+01  0.64257416185E+01  0.51100000000E-03 0. -1.
        -11    1    3    3    0    0 -0.25777171681E+02 -0.99632369750E+01 -0.20641382146E+02  0.34493409922E+02  0.51100000000E-03 0.  1.
         12    1    3    3    0    0 -0.12653794360E+01 -0.92065553575E+01 -0.24465320976E+01  0.96097536894E+01  0.00000000000E+00 0. -1.
</event>
<event>
 7    1  0.5329250E-013  0.5052885E+02  0.7816164E-02  0.1300439E+00
        -11   -1    0    0    0    0  0.00000000000E+00  0.00000000000E+00  0.45593999997E+02  0.45594000000E+02  0.51100000000E-03 0.  1.
         11   -1    0    0    0    0 -0.00000000000E+00 -0.00000000000E+00 -0.45593999997E+02  0.45594000000E+02  0.51100000000E-03 0. -1.
    9900012    2    1    2    0    0 -0.13718531095E+02 -0.34556074201E+02  0.16457402932E+02  0.50528850097E+02  0.29999970353E+02 0.  0.
         12    1    1    2    0    0  0.13718531095E+02  0.34556074201E+02 -0.16457402932E+02  0.40659149903E+02  0.00000000000E+00 0. -1.
         11    1    3    3    0    0  0.12158098367E+01 -0.17253324411E+02  0.70071166384E+01  0.18661593733E+02  0.51100000000E-03 0. -1.
        -11    1    3    3    0    0 -0.69973356666E+01 -0.11769166912E+02  0.15322743341E+02  0.20549025767E+02  0.51100000000E-03 0.  1.
         12    1    3    3    0    0 -0.79370052655E+01 -0.55335828785E+01 -0.58724570480E+01  0.11318230597E+02  0.00000000000E+00 0. -1.
</event>
<event>
 7    1  0.5329250E-013  0.5052886E+02  0.7816164E-02  0.1300439E+00
        -11   -1    0    0    0    0  0.00000000000E+00  0.00000000000E+00  0.45593999997E+02  0.45594000000E+02  0.51100000000E-03 0.  1.
         11   -1    0    0    0    0 -0.00000000000E+00 -0.00000000000E+00 -0.45593999997E+02  0.45594000000E+02  0.51100000000E-03 0. -1.
    9900012    2    1    2    0    0  0.13054769835E+02  0.28336035765E+02  0.26073127018E+02  0.50528857229E+02  0.29999992033E+02 0.  0.
         12    1    1    2    0    0 -0.13054769835E+02 -0.28336035765E+02 -0.26073127018E+02  0.40659142771E+02  0.00000000000E+00 0. -1.
         11    1    3    3    0    0  0.14858614399E+02  0.31944667726E+01  0.11888276410E+02  0.19295443920E+02  0.51100000000E-03 0. -1.
        -11    1    3    3    0    0  0.23509136524E+00  0.44805339486E+01 -0.19966024922E+01  0.49108934205E+01  0.51100000000E-03 0.  1.
        -12    1    3    3    0    0 -0.20389359289E+01  0.20661035044E+02  0.16181453100E+02  0.26322519888E+02  0.00000000000E+00 0.  1.
</event>
<event>
 7    1  0.5329250E-013  0.5052886E+02  0.7816164E-02  0.1300439E+00
        -11   -1    0    0    0    0  0.00000000000E+00  0.00000000000E+00  0.45593999997E+02  0.45594000000E+02  0.51100000000E-03 0. -1.
         11   -1    0    0    0    0 -0.00000000000E+00 -0.00000000000E+00 -0.45593999997E+02  0.45594000000E+02  0.51100000000E-03 0.  1.
    9900012    2    1    2    0    0 -0.19362554659E+02  0.35752047652E+02  0.21925547724E+00  0.50528861948E+02  0.30000006376E+02 0.  0.
         12    1    1    2    0    0  0.19362554659E+02 -0.35752047652E+02 -0.21925547724E+00  0.40659138052E+02  0.00000000000E+00 0. -1.
         11    1    3    3    0    0  0.22683040843E+01  0.34796699847E+01  0.17667890070E+01  0.45138509366E+01  0.51100000000E-03 0. -1.
        -11    1    3    3    0    0 -0.13933407864E+02  0.28115625775E+02  0.86793177189E+01  0.32557008827E+02  0.51100000000E-03 0.  1.
         12    1    3    3    0    0 -0.76974508793E+01  0.41567518923E+01 -0.10226851249E+02  0.13458002184E+02  0.00000000000E+00 0. -1.
</event>
<event>
 7    1  0.5329250E-013  0.5052888E+02  0.7816164E-02  0.1300439E+00
        -11   -1    0    0    0    0  0.00000000000E+00  0.00000000000E+00  0.45593999997E+02  0.45594000000E+02  0.51100000000E-03 0.  1.
         11   -1    0    0    0    0 -0.00000000000E+00 -0.00000000000E+00 -0.45593999997E+02  0.45594000000E+02  0.51100000000E-03 0. -1.
    9900012    2    1    2    0    0 -0.28832335105E+02 -0.80169254191E+01  0.27524347903E+02  0.50528875953E+02  0.30000048948E+02 0.  0.
         12    1    1    2    0    0  0.28832335105E+02  0.80169254191E+01 -0.27524347903E+02  0.40659124047E+02  0.00000000000E+00 0. -1.
         11    1    3    3    0    0 -0.23567986860E+01  0.40783080624E+01 -0.26772711034E+01  0.54180141676E+01  0.51100000000E-03 0. -1.
        -11    1    3    3    0    0 -0.11675816992E+01  0.14497523350E+01  0.95988750363E+01  0.97777007052E+01  0.51100000000E-03 0.  1.
        -12    1    3    3    0    0 -0.25307954720E+02 -0.13544985816E+02  0.20602743970E+02  0.35333161081E+02  0.00000000000E+00 0.  1.
</event>
<event>
 7    1  0.5329250E-013  0.5052886E+02  0.7816164E-02  0.1300439E+00
        -11   -1    0    0    0    0  0.00000000000E+00  0.00000000000E+00  0.45593999997E+02  0.45594000000E+02  0.51100000000E-03 0.  1.
         11   -1    0    0    0    0 -0.00000000000E+00 -0.00000000000E+00 -0.45593999997E+02  0.45594000000E+02  0.51100000000E-03 0. -1.
    9900012    2    1    2    0    0  0.38909125216E+02  0.11188021863E+02  0.37514675834E+01  0.50528863668E+02  0.30000011605E+02 0.  0.
         12    1    1    2    0    0 -0.38909125216E+02 -0.11188021863E+02 -0.37514675834E+01  0.40659136332E+02  0.00000000000E+00 0. -1.
         11    1    3    3    0    0  0.17173132611E+02  0.99793831626E+01 -0.57650258636E+01  0.20681878431E+02  0.51100000000E-03 0. -1.
        -11    1    3    3    0    0  0.33299606184E+01  0.72666142911E+01 -0.54757423331E+00  0.80120009222E+01  0.51100000000E-03 0.  1.
         12    1    3    3    0    0  0.18406031986E+02 -0.60579755911E+01  0.10064067680E+02  0.21834984315E+02  0.00000000000E+00 0. -1.
</event>
<event>
 7    1  0.5329250E-013  0.5052884E+02  0.7816164E-02  0.1300439E+00
        -11   -1    0    0    0    0  0.00000000000E+00  0.00000000000E+00  0.45593999997E+02  0.45594000000E+02  0.51100000000E-03 0. -1.
         11   -1    0    0    0    0 -0.00000000000E+00 -0.00000000000E+00 -0.45593999997E+02  0.45594000000E+02  0.51100000000E-03 0.  1.
    9900012    2    1    2    0    0  0.12205672219E+02  0.28816237301E+02 -0.25957915788E+02  0.50528839180E+02  0.29999937173E+02 0.  0.
         12    1    1    2    0    0 -0.12205672219E+02 -0.28816237301E+02  0.25957915788E+02  0.40659160820E+02  0.00000000000E+00 0. -1.
         11    1    3    3    0    0  0.74393803988E+01  0.43313382975E+01 -0.10142087825E+02  0.13302887577E+02  0.51100000000E-03 0. -1.
        -11    1    3    3    0    0 -0.37638860218E+01  0.36631038574E+01 -0.13644049956E+02  0.14620029662E+02  0.51100000000E-03 0.  1.
         12    1    3    3    0    0  0.85301778419E+01  0.20821795146E+02 -0.21717780068E+01  0.22605921942E+02  0.00000000000E+00 0. -1.
</event>
<event>
 7    1  0.5329250E-013  0.5052886E+02  0.7816164E-02  0.1300439E+00
        -11   -1    0    0    0    0  0.00000000000E+00  0.00000000000E+00  0.45593999997E+02  0.45594000000E+02  0.51100000000E-03 0. -1.
         11   -1    0    0    0    0 -0.00000000000E+00 -0.00000000000E+00 -0.45593999997E+02  0.45594000000E+02  0.51100000000E-03 0.  1.
    9900012    2    1    2    0    0  0.23795825827E+02  0.29792713396E+02  0.14118008389E+02  0.50528864998E+02  0.30000015647E+02 0.  0.
         12    1    1    2    0    0 -0.23795825827E+02 -0.29792713396E+02 -0.14118008389E+02  0.40659135002E+02  0.00000000000E+00 0. -1.
         11    1    3    3    0    0  0.15163421214E+02  0.19868408217E+02  0.15053379874E+01  0.25038950271E+02  0.51100000000E-03 0. -1.
        -11    1    3    3    0    0  0.13327897443E+02  0.28669794485E+01  0.70145586959E+01  0.15331550977E+02  0.51100000000E-03 0.  1.
         12    1    3    3    0    0 -0.46954928300E+01  0.70573257307E+01  0.55981117055E+01  0.10158363749E+02  0.00000000000E+00 0. -1.
</event>
<event>
 7    1  0.5329250E-013  0.5052886E+02  0.7816164E-02  0.1300439E+00
        -11   -1    0    0    0    0  0.00000000000E+00  0.00000000000E+00  0.45593999997E+02  0.45594000000E+02  0.51100000000E-03 0. -1.
         11   -1    0    0    0    0 -0.00000000000E+00 -0.00000000000E+00 -0.45593999997E+02  0.45594000000E+02  0.51100000000E-03 0.  1.
    9900012    2    1    2    0    0  0.10561651854E+02 -0.60363912939E+01 -0.38796637789E+02  0.50528860640E+02  0.30000002402E+02 0.  0.
         12    1    1    2    0    0 -0.10561651854E+02  0.60363912939E+01  0.38796637789E+02  0.40659139360E+02  0.00000000000E+00 0. -1.
         11    1    3    3    0    0  0.23123169225E+01  0.33299033617E+01 -0.19914482691E+02  0.20322935001E+02  0.51100000000E-03 0. -1.
        -11    1    3    3    0    0  0.11624834158E+02  0.77031812359E+00 -0.14641912124E+02  0.18711380230E+02  0.51100000000E-03 0.  1.
         12    1    3    3    0    0 -0.33754992274E+01 -0.10136612779E+02 -0.42402429743E+01  0.11494545409E+02  0.00000000000E+00 0. -1.
</event>
<event>
 7    1  0.5329250E-013  0.5052886E+02  0.7816164E-02  0.1300439E+00
        -11   -1    0    0    0    0  0.00000000000E+00  0.00000000000E+00  0.45593999997E+02  0.45594000000E+02  0.51100000000E-03 0.  1.
         11   -1    0    0    0    0 -0.00000000000E+00 -0.00000000000E+00 -0.45593999997E+02  0.45594000000E+02  0.51100000000E-03 0. -1.
    9900012    2    1    2    0    0 -0.21081720276E+02  0.11122601311E+02  0.32939555017E+02  0.50528862350E+02  0.30000007599E+02 0.  0.
         12    1    1    2    0    0  0.21081720276E+02 -0.11122601311E+02 -0.32939555017E+02  0.40659137650E+02  0.00000000000E+00 0. -1.
         11    1    3    3    0    0  0.27098166465E+01 -0.31750479082E+01  0.12809725631E+01  0.43663401660E+01  0.51100000000E-03 0. -1.
        -11    1    3    3    0    0 -0.77573009130E+01 -0.22558625576E+01  0.17075556583E+02  0.18890189682E+02  0.51100000000E-03 0.  1.
         12    1    3    3    0    0 -0.16034236009E+02  0.16553511777E+02  0.14583025871E+02  0.27272332502E+02  0.00000000000E+00 0. -1.
</event>
<event>
 7    1  0.5329250E-013  0.5052886E+02  0.7816164E-02  0.1300439E+00
        -11   -1    0    0    0    0  0.00000000000E+00  0.00000000000E+00  0.45593999997E+02  0.45594000000E+02  0.51100000000E-03 0.  1.
         11   -1    0    0    0    0 -0.00000000000E+00 -0.00000000000E+00 -0.45593999997E+02  0.45594000000E+02  0.51100000000E-03 0. -1.
    9900012    2    1    2    0    0 -0.21953371465E+02  0.19477402299E+01  0.34167547078E+02  0.50528862232E+02  0.30000007241E+02 0.  0.
         12    1    1    2    0    0  0.21953371465E+02 -0.19477402299E+01 -0.34167547078E+02  0.40659137768E+02  0.00000000000E+00 0. -1.
         11    1    3    3    0    0  0.21143691219E-03 -0.48667453898E+01 -0.19413983032E+01  0.52396792236E+01  0.51100000000E-03 0. -1.
        -11    1    3    3    0    0 -0.10767762553E+02 -0.18346231153E+00  0.57979277531E+01  0.12230876310E+02  0.51100000000E-03 0.  1.
         12    1    3    3    0    0 -0.11185820349E+02  0.69979479312E+01  0.30311017628E+02  0.33058306699E+02  0.00000000000E+00 0. -1.
</event>
<event>
 7    1  0.5329250E-013  0.5052886E+02  0.7816164E-02  0.1300439E+00
        -11   -1    0    0    0    0  0.00000000000E+00  0.00000000000E+00  0.45593999997E+02  0.45594000000E+02  0.51100000000E-03 0.  1.
         11   -1    0    0    0    0 -0.00000000000E+00 -0.00000000000E+00 -0.45593999997E+02  0.45594000000E+02  0.51100000000E-03 0. -1.
    9900012    2    1    2    0    0 -0.38930353135E+02  0.11448840334E+02  0.25528459337E+01  0.50528863726E+02  0.30000011781E+02 0.  0.
         12    1    1    2    0    0  0.38930353135E+02 -0.11448840334E+02 -0.25528459337E+01  0.40659136274E+02  0.00000000000E+00 0. -1.
         11    1    3    3    0    0 -0.56591769119E+01 -0.31856831560E+01  0.27325760646E+01  0.70456960409E+01  0.51100000000E-03 0. -1.
        -11    1    3    3    0    0 -0.90045288931E+01  0.88863326200E+01  0.10416146396E+02  0.16387329069E+02  0.51100000000E-03 0.  1.
         12    1    3    3    0    0 -0.24266647330E+02  0.57481908699E+01 -0.10595876527E+02  0.27095838616E+02  0.00000000000E+00 0. -1.
</event>
<event>
 7    1  0.5329250E-013  0.5052886E+02  0.7816164E-02  0.1300439E+00
        -11   -1    0    0    0    0  0.00000000000E+00  0.00000000000E+00  0.45593999997E+02  0.45594000000E+02  0.51100000000E-03 0.  1.
         11   -1    0    0    0    0 -0.00000000000E+00 -0.00000000000E+00 -0.45593999997E+02  0.45594000000E+02  0.51100000000E-03 0. -1.
    9900012    2    1    2    0    0 -0.50871171127E+01 -0.23788832234E+02  0.32578798931E+02  0.50528862781E+02  0.30000008909E+02 0.  0.
         12    1    1    2    0    0  0.50871171127E+01  0.23788832234E+02 -0.32578798931E+02  0.40659137219E+02  0.00000000000E+00 0. -1.
         11    1    3    3    0    0 -0.70519221710E+01 -0.31968168184E+01  0.10905225004E+01  0.78191101579E+01  0.51100000000E-03 0. -1.
        -11    1    3    3    0    0  0.91768802420E+01 -0.49593311077E+01  0.62550174237E+01  0.12162867230E+02  0.51100000000E-03 0.  1.
         12    1    3    3    0    0 -0.72120751836E+01 -0.15632684308E+02  0.25233259007E+02  0.30546885394E+02  0.00000000000E+00 0. -1.
</event>
<event>
 7    1  0.5329250E-013  0.5052884E+02  0.7816164E-02  0.1300439E+00
        -11   -1    0    0    0    0  0.00000000000E+00  0.00000000000E+00  0.45593999997E+02  0.45594000000E+02  0.51100000000E-03 0.  1.
         11   -1    0    0    0    0 -0.00000000000E+00 -0.00000000000E+00 -0.45593999997E+02  0.45594000000E+02  0.51100000000E-03 0. -1.
    9900012    2    1    2    0    0  0.35763638145E+01 -0.13871335539E+02  0.38052106510E+02  0.50528841897E+02  0.29999945429E+02 0.  0.
         12    1    1    2    0    0 -0.35763638145E+01  0.13871335539E+02 -0.38052106510E+02  0.40659158103E+02  0.00000000000E+00 0. -1.
         11    1    3    3    0    0 -0.81803321934E+01 -0.73399590953E+01  0.52287924493E+01  0.12170994415E+02  0.51100000000E-03 0. -1.
        -11    1    3    3    0    0  0.30636274980E+01 -0.10015732670E+02  0.16747794423E+02  0.19753210692E+02  0.51100000000E-03 0.  1.
        -12    1    3    3    0    0  0.86930685099E+01  0.34843562257E+01  0.16075519638E+02  0.18604636789E+02  0.00000000000E+00 0.  1.
</event>
<event>
 7    1  0.5329250E-013  0.5052886E+02  0.7816164E-02  0.1300439E+00
        -11   -1    0    0    0    0  0.00000000000E+00  0.00000000000E+00  0.45593999997E+02  0.45594000000E+02  0.51100000000E-03 0.  1.
         11   -1    0    0    0    0 -0.00000000000E+00 -0.00000000000E+00 -0.45593999997E+02  0.45594000000E+02  0.51100000000E-03 0. -1.
    9900012    2    1    2    0    0  0.30681400178E+01  0.40192221519E+01  0.40343496511E+02  0.50528863996E+02  0.30000012601E+02 0.  0.
         12    1    1    2    0    0 -0.30681400178E+01 -0.40192221519E+01 -0.40343496511E+02  0.40659136004E+02  0.00000000000E+00 0. -1.
         11    1    3    3    0    0  0.18478602400E+01  0.12878540776E+02  0.20892892007E+02  0.24612686498E+02  0.51100000000E-03 0. -1.
        -11    1    3    3    0    0  0.70037180841E+01 -0.69509379320E+00  0.67908344946E+01  0.97801153253E+01  0.51100000000E-03 0.  1.
         12    1    3    3    0    0 -0.57834383063E+01 -0.81642248307E+01  0.12659770010E+02  0.16136062172E+02  0.00000000000E+00 0. -1.
</event>
<event>
 7    1  0.5329250E-013  0.5052885E+02  0.7816164E-02  0.1300439E+00
        -11   -1    0    0    0    0  0.00000000000E+00  0.00000000000E+00  0.45593999997E+02  0.45594000000E+02  0.51100000000E-03 0.  1.
         11   -1    0    0    0    0 -0.00000000000E+00 -0.00000000000E+00 -0.45593999997E+02  0.45594000000E+02  0.51100000000E-03 0. -1.
    9900012    2    1    2    0    0  0.63828262891E+01  0.19953943049E+02  0.34846316460E+02  0.50528854836E+02  0.29999984760E+02 0.  0.
         12    1    1    2    0    0 -0.63828262891E+01 -0.19953943049E+02 -0.34846316460E+02  0.40659145164E+02  0.00000000000E+00 0. -1.
         11    1    3    3    0    0 -0.20773430780E+01  0.19137373690E+02  0.27646313305E+02  0.33687877132E+02  0.51100000000E-03 0.  1.
        -11    1    3    3    0    0 -0.30684122817E+01  0.10408756721E+01 -0.12715419945E-01  0.32401756184E+01  0.51100000000E-03 0. -1.
        -12    1    3    3    0    0  0.11528581649E+02 -0.22430631276E+00  0.72127185743E+01  0.13600802086E+02  0.00000000000E+00 0.  1.
</event>
<event>
 7    1  0.5329250E-013  0.5052886E+02  0.7816164E-02  0.1300439E+00
        -11   -1    0    0    0    0  0.00000000000E+00  0.00000000000E+00  0.45593999997E+02  0.45594000000E+02  0.51100000000E-03 0.  1.
         11   -1    0    0    0    0 -0.00000000000E+00 -0.00000000000E+00 -0.45593999997E+02  0.45594000000E+02  0.51100000000E-03 0. -1.
    9900012    2    1    2    0    0  0.23260647418E+02 -0.30623185723E+02  0.13203350268E+02  0.50528859818E+02  0.29999999901E+02 0.  0.
         12    1    1    2    0    0 -0.23260647418E+02  0.30623185723E+02 -0.13203350268E+02  0.40659140182E+02  0.00000000000E+00 0. -1.
         11    1    3    3    0    0  0.37257887248E+01  0.11500383142E+01 -0.38954370324E+01  0.55116712239E+01  0.51100000000E-03 0. -1.
        -11    1    3    3    0    0  0.83877511796E+01 -0.17392971682E+02 -0.10237059419E+01  0.19336954463E+02  0.51100000000E-03 0.  1.
         12    1    3    3    0    0  0.11147107513E+02 -0.14380252354E+02  0.18122493242E+02  0.25680234130E+02  0.00000000000E+00 0. -1.
</event>
<event>
 7    1  0.5329250E-013  0.5052881E+02  0.7816164E-02  0.1300439E+00
        -11   -1    0    0    0    0  0.00000000000E+00  0.00000000000E+00  0.45593999997E+02  0.45594000000E+02  0.51100000000E-03 0.  1.
         11   -1    0    0    0    0 -0.00000000000E+00 -0.00000000000E+00 -0.45593999997E+02  0.45594000000E+02  0.51100000000E-03 0. -1.
    9900012    2    1    2    0    0 -0.30375164920E+02 -0.24668673022E+02  0.11044261977E+02  0.50528809216E+02  0.29999846093E+02 0.  0.
         12    1    1    2    0    0  0.30375164920E+02  0.24668673022E+02 -0.11044261977E+02  0.40659190784E+02  0.00000000000E+00 0. -1.
         11    1    3    3    0    0 -0.87525577614E+01 -0.32667750061E+01  0.12150203633E+02  0.15326660918E+02  0.51100000000E-03 0. -1.
        -11    1    3    3    0    0  0.28992702737E+01 -0.31130214832E+01  0.14751226723E+01  0.45025168555E+01  0.51100000000E-03 0.  1.
        -12    1    3    3    0    0 -0.24521877432E+02 -0.18288876533E+02 -0.25810643285E+01  0.30699631442E+02  0.00000000000E+00 0.  1.
</event>
<event>
 7    1  0.7049431E-013  0.5052886E+02  0.7816164E-02  0.1300439E+00
        -11   -1    0    0    0    0  0.00000000000E+00  0.00000000000E+00  0.45593999997E+02  0.45594000000E+02  0.51100000000E-03 0.  1.
         11   -1    0    0    0    0 -0.00000000000E+00 -0.00000000000E+00 -0.45593999997E+02  0.45594000000E+02  0.51100000000E-03 0. -1.
    9900012    2    1    2    0    0  0.92735396558E+01 -0.27822990404E+02  0.28161114257E+02  0.50528859712E+02  0.29999999581E+02 0.  0.
         12    1    1    2    0    0 -0.92735396558E+01  0.27822990404E+02 -0.28161114257E+02  0.40659140288E+02  0.00000000000E+00 0. -1.
         11    1    3    3    0    0 -0.70520188552E+01 -0.12300462156E+02  0.79303887132E+01  0.16245719578E+02  0.51100000000E-03 0. -1.
        -11    1    3    3    0    0  0.13953189015E+01 -0.91793175920E+01  0.14221468097E+02  0.16984020178E+02  0.51100000000E-03 0.  1.
         12    1    3    3    0    0  0.14930239610E+02 -0.63432106551E+01  0.60092574470E+01  0.17299119957E+02  0.00000000000E+00 0. -1.
</event>
<event>
 7    1  0.5329250E-013  0.5052886E+02  0.7816164E-02  0.1300439E+00
        -11   -1    0    0    0    0  0.00000000000E+00  0.00000000000E+00  0.45593999997E+02  0.45594000000E+02  0.51100000000E-03 0.  1.
         11   -1    0    0    0    0 -0.00000000000E+00 -0.00000000000E+00 -0.45593999997E+02  0.45594000000E+02  0.51100000000E-03 0. -1.
    9900012    2    1    2    0    0  0.40266107884E+02  0.24239889220E+01 -0.50921840729E+01  0.50528861974E+02  0.30000006455E+02 0.  0.
         12    1    1    2    0    0 -0.40266107884E+02 -0.24239889220E+01  0.50921840729E+01  0.40659138026E+02  0.00000000000E+00 0. -1.
         11    1    3    3    0    0  0.18434261391E+02 -0.72424221170E+01  0.71623466360E+01  0.21061193716E+02  0.51100000000E-03 0. -1.
        -11    1    3    3    0    0 -0.15964773850E+00 -0.93929371214E+00  0.12458734322E+01  0.15684262648E+01  0.51100000000E-03 0.  1.
         12    1    3    3    0    0  0.21991494232E+02  0.10605704751E+02 -0.13500404141E+02  0.27899241993E+02  0.00000000000E+00 0. -1.
</event>
<event>
 7    1  0.5329250E-013  0.5052886E+02  0.7816164E-02  0.1300439E+00
        -11   -1    0    0    0    0  0.00000000000E+00  0.00000000000E+00  0.45593999997E+02  0.45594000000E+02  0.51100000000E-03 0.  1.
         11   -1    0    0    0    0 -0.00000000000E+00 -0.00000000000E+00 -0.45593999997E+02  0.45594000000E+02  0.51100000000E-03 0. -1.
    9900012    2    1    2    0    0 -0.36260904287E+02 -0.42519486977E+01  0.17895072408E+02  0.50528857560E+02  0.29999993041E+02 0.  0.
         12    1    1    2    0    0  0.36260904287E+02  0.42519486977E+01 -0.17895072408E+02  0.40659142440E+02  0.00000000000E+00 0. -1.
         11    1    3    3    0    0 -0.20109708761E+02  0.41743607255E+01  0.25155931391E+01  0.20691879640E+02  0.51100000000E-03 0. -1.
        -11    1    3    3    0    0  0.70714851787E+00  0.40559393918E+01  0.48636272543E+01  0.63722502859E+01  0.51100000000E-03 0.  1.
        -12    1    3    3    0    0 -0.16858344044E+02 -0.12482248815E+02  0.10515852014E+02  0.23464727634E+02  0.00000000000E+00 0.  1.
</event>
<event>
 7    1  0.5329250E-013  0.5052882E+02  0.7816164E-02  0.1300439E+00
        -11   -1    0    0    0    0  0.00000000000E+00  0.00000000000E+00  0.45593999997E+02  0.45594000000E+02  0.51100000000E-03 0. -1.
         11   -1    0    0    0    0 -0.00000000000E+00 -0.00000000000E+00 -0.45593999997E+02  0.45594000000E+02  0.51100000000E-03 0.  1.
    9900012    2    1    2    0    0 -0.95555035486E+01 -0.37568687029E+02 -0.12266007090E+02  0.50528821171E+02  0.29999882430E+02 0.  0.
         12    1    1    2    0    0  0.95555035486E+01  0.37568687029E+02  0.12266007090E+02  0.40659178829E+02  0.00000000000E+00 0. -1.
         11    1    3    3    0    0 -0.28367586623E+01 -0.13831945484E+02  0.48728551481E+01  0.14937022231E+02  0.51100000000E-03 0. -1.
        -11    1    3    3    0    0 -0.51025964059E+01 -0.23548404844E+01 -0.12425122037E+02  0.13636913935E+02  0.51100000000E-03 0.  1.
         12    1    3    3    0    0 -0.16161484804E+01 -0.21381901060E+02 -0.47137402017E+01  0.21954885004E+02  0.00000000000E+00 0. -1.
</event>
<event>
 7    1  0.5329250E-013  0.5052889E+02  0.7816164E-02  0.1300439E+00
        -11   -1    0    0    0    0  0.00000000000E+00  0.00000000000E+00  0.45593999997E+02  0.45594000000E+02  0.51100000000E-03 0. -1.
         11   -1    0    0    0    0 -0.00000000000E+00 -0.00000000000E+00 -0.45593999997E+02  0.45594000000E+02  0.51100000000E-03 0.  1.
    9900012    2    1    2    0    0  0.34664141171E+02 -0.18675231265E+02  0.10138832926E+02  0.50528894267E+02  0.30000104613E+02 0.  0.
         12    1    1    2    0    0 -0.34664141171E+02  0.18675231265E+02 -0.10138832926E+02  0.40659105733E+02  0.00000000000E+00 0. -1.
         11    1    3    3    0    0  0.21348391322E+02 -0.53463288646E+01  0.14729963864E+02  0.26482237067E+02  0.51100000000E-03 0. -1.
        -11    1    3    3    0    0 -0.92409113160E+00  0.12465099935E+01  0.20894846766E+01  0.26026290666E+01  0.51100000000E-03 0.  1.
        -12    1    3    3    0    0  0.14239840981E+02 -0.14575412394E+02 -0.66806156145E+01  0.21444028133E+02  0.00000000000E+00 0.  1.
</event>
<event>
 7    1  0.5329250E-013  0.5052886E+02  0.7816164E-02  0.1300439E+00
        -11   -1    0    0    0    0  0.00000000000E+00  0.00000000000E+00  0.45593999997E+02  0.45594000000E+02  0.51100000000E-03 0. -1.
         11   -1    0    0    0    0 -0.00000000000E+00 -0.00000000000E+00 -0.45593999997E+02  0.45594000000E+02  0.51100000000E-03 0.  1.
    9900012    2    1    2    0    0 -0.11292756010E+01  0.24546073473E+02 -0.32394146610E+02  0.50528859319E+02  0.29999998387E+02 0.  0.
         12    1    1    2    0    0  0.11292756010E+01 -0.24546073473E+02  0.32394146610E+02  0.40659140681E+02  0.00000000000E+00 0. -1.
         11    1    3    3    0    0  0.26863253551E+01 -0.21956002100E+01 -0.60208196024E+01  0.69489044562E+01  0.51100000000E-03 0. -1.
        -11    1    3    3    0    0 -0.74736553654E+01  0.59442703848E+00 -0.22777338267E+01  0.78356199289E+01  0.51100000000E-03 0.  1.
         12    1    3    3    0    0  0.36580544092E+01  0.26147246644E+02 -0.24095593181E+02  0.35744334934E+02  0.00000000000E+00 0. -1.
</event>
<event>
 7    1  0.5329250E-013  0.5052886E+02  0.7816164E-02  0.1300439E+00
        -11   -1    0    0    0    0  0.00000000000E+00  0.00000000000E+00  0.45593999997E+02  0.45594000000E+02  0.51100000000E-03 0.  1.
         11   -1    0    0    0    0 -0.00000000000E+00 -0.00000000000E+00 -0.45593999997E+02  0.45594000000E+02  0.51100000000E-03 0. -1.
    9900012    2    1    2    0    0  0.16010780577E+02 -0.34623230846E+02  0.14073099675E+02  0.50528863962E+02  0.30000012499E+02 0.  0.
         12    1    1    2    0    0 -0.16010780577E+02  0.34623230846E+02 -0.14073099675E+02  0.40659136038E+02  0.00000000000E+00 0. -1.
         11    1    3    3    0    0  0.11989893450E+02 -0.25735929433E+02  0.13397814783E+01  0.28423416814E+02  0.51100000000E-03 0. -1.
        -11    1    3    3    0    0  0.94263813858E+01 -0.84141213450E+01  0.86024604054E+01  0.15285824457E+02  0.51100000000E-03 0.  1.
        -12    1    3    3    0    0 -0.54054942585E+01 -0.47318006786E+00  0.41308577910E+01  0.68196226908E+01  0.00000000000E+00 0.  1.
</event>
<event>
 7    1  0.5329250E-013  0.5052886E+02  0.7816164E-02  0.1300439E+00
        -11   -1    0    0    0    0  0.00000000000E+00  0.00000000000E+00  0.45593999997E+02  0.45594000000E+02  0.51100000000E-03 0.  1.
         11   -1    0    0    0    0 -0.00000000000E+00 -0.00000000000E+00 -0.45593999997E+02  0.45594000000E+02  0.51100000000E-03 0. -1.
    9900012    2    1    2    0    0 -0.32886113842E+01 -0.44144737714E+01  0.40284773230E+02  0.50528862064E+02  0.30000006730E+02 0.  0.
         12    1    1    2    0    0  0.32886113842E+01  0.44144737714E+01 -0.40284773230E+02  0.40659137936E+02  0.00000000000E+00 0. -1.
         11    1    3    3    0    0 -0.85108076738E+00  0.66961819883E+00 -0.18995160652E+01  0.21865243077E+01  0.51100000000E-03 0. -1.
        -11    1    3    3    0    0  0.45850625290E+01 -0.95423121774E+01  0.83013604108E+01  0.13453293464E+02  0.51100000000E-03 0.  1.
        -12    1    3    3    0    0 -0.70225931458E+01  0.44582202071E+01  0.33882928884E+02  0.34889044293E+02  0.00000000000E+00 0.  1.
</event>
<event>
 7    1  0.5329250E-013  0.5052886E+02  0.7816164E-02  0.1300439E+00
        -11   -1    0    0    0    0  0.00000000000E+00  0.00000000000E+00  0.45593999997E+02  0.45594000000E+02  0.51100000000E-03 0. -1.
         11   -1    0    0    0    0 -0.00000000000E+00 -0.00000000000E+00 -0.45593999997E+02  0.45594000000E+02  0.51100000000E-03 0.  1.
    9900012    2    1    2    0    0  0.11536136194E+02 -0.18345352453E+02  0.34402492166E+02  0.50528857583E+02  0.29999993108E+02 0.  0.
         12    1    1    2    0    0 -0.11536136194E+02  0.18345352453E+02 -0.34402492166E+02  0.40659142417E+02  0.00000000000E+00 0. -1.
         11    1    3    3    0    0  0.17197748113E+01 -0.16203604346E+02  0.26767275183E+02  0.31336902211E+02  0.51100000000E-03 0. -1.
        -11    1    3    3    0    0  0.22335234411E+01 -0.77404210903E+01  0.23810824575E+01  0.84007320841E+01  0.51100000000E-03 0.  1.
         12    1    3    3    0    0  0.75828379418E+01  0.55986729837E+01  0.52541345251E+01  0.10791223287E+02  0.00000000000E+00 0. -1.
</event>
<event>
 7    1  0.5329250E-013  0.5052884E+02  0.7816164E-02  0.1300439E+00
        -11   -1    0    0    0    0  0.00000000000E+00  0.00000000000E+00  0.45593999997E+02  0.45594000000E+02  0.51100000000E-03 0.  1.
         11   -1    0    0    0    0 -0.00000000000E+00 -0.00000000000E+00 -0.45593999997E+02  0.45594000000E+02  0.51100000000E-03 0. -1.
    9900012    2    1    2    0    0  0.41404236570E+01  0.20996112592E+01  0.40393259749E+02  0.50528844713E+02  0.29999953991E+02 0.  0.
         12    1    1    2    0    0 -0.41404236570E+01 -0.20996112592E+01 -0.40393259749E+02  0.40659155287E+02  0.00000000000E+00 0. -1.
         11    1    3    3    0    0  0.74825730753E+01 -0.42178300112E+01  0.16521657915E+02  0.18621067917E+02  0.51100000000E-03 0.  1.
        -11    1    3    3    0    0  0.16426916234E+01 -0.56365696171E+01  0.15034421212E+01  0.60605025609E+01  0.51100000000E-03 0. -1.
         12    1    3    3    0    0 -0.49848410416E+01  0.11954010888E+02  0.22368159712E+02  0.25847274236E+02  0.00000000000E+00 0. -1.
</event>
<event>
 7    1  0.5329250E-013  0.5052886E+02  0.7816164E-02  0.1300439E+00
        -11   -1    0    0    0    0  0.00000000000E+00  0.00000000000E+00  0.45593999997E+02  0.45594000000E+02  0.51100000000E-03 0. -1.
         11   -1    0    0    0    0 -0.00000000000E+00 -0.00000000000E+00 -0.45593999997E+02  0.45594000000E+02  0.51100000000E-03 0.  1.
    9900012    2    1    2    0    0 -0.26975539473E+02  0.13568173930E+02 -0.27228491238E+02  0.50528858239E+02  0.29999995104E+02 0.  0.
         12    1    1    2    0    0  0.26975539473E+02 -0.13568173930E+02  0.27228491238E+02  0.40659141761E+02  0.00000000000E+00 0. -1.
         11    1    3    3    0    0 -0.11905961092E+02  0.68516561777E+01 -0.78056193548E+01  0.15799518843E+02  0.51100000000E-03 0.  1.
        -11    1    3    3    0    0 -0.78388260985E+01  0.82812252378E+01 -0.23616522598E+02  0.26225293629E+02  0.51100000000E-03 0. -1.
         12    1    3    3    0    0 -0.72307522823E+01 -0.15647074857E+01  0.41936507153E+01  0.85040457668E+01  0.00000000000E+00 0. -1.
</event>
<event>
 7    1  0.5329250E-013  0.5052888E+02  0.7816164E-02  0.1300439E+00
        -11   -1    0    0    0    0  0.00000000000E+00  0.00000000000E+00  0.45593999997E+02  0.45594000000E+02  0.51100000000E-03 0.  1.
         11   -1    0    0    0    0 -0.00000000000E+00 -0.00000000000E+00 -0.45593999997E+02  0.45594000000E+02  0.51100000000E-03 0. -1.
    9900012    2    1    2    0    0  0.22568380678E+02 -0.24299054447E+02  0.23524212257E+02  0.50528875369E+02  0.30000047172E+02 0.  0.
         12    1    1    2    0    0 -0.22568380678E+02  0.24299054447E+02 -0.23524212257E+02  0.40659124631E+02  0.00000000000E+00 0. -1.
         11    1    3    3    0    0 -0.31731866661E+01 -0.12757515977E+01  0.16006913848E-01  0.34200748880E+01  0.51100000000E-03 0. -1.
        -11    1    3    3    0    0  0.55374501283E+01 -0.19542470216E+02  0.11167079189E+02  0.23179196577E+02  0.51100000000E-03 0.  1.
        -12    1    3    3    0    0  0.20204117216E+02 -0.34808326333E+01  0.12341126153E+02  0.23929603905E+02  0.00000000000E+00 0.  1.
</event>
<event>
 7    1  0.5329250E-013  0.5052886E+02  0.7816164E-02  0.1300439E+00
        -11   -1    0    0    0    0  0.00000000000E+00  0.00000000000E+00  0.45593999997E+02  0.45594000000E+02  0.51100000000E-03 0.  1.
         11   -1    0    0    0    0 -0.00000000000E+00 -0.00000000000E+00 -0.45593999997E+02  0.45594000000E+02  0.51100000000E-03 0. -1.
    9900012    2    1    2    0    0 -0.21282812519E+02 -0.10505428023E+02  0.33012783591E+02  0.50528855800E+02  0.29999987689E+02 0.  0.
         12    1    1    2    0    0  0.21282812519E+02  0.10505428023E+02 -0.33012783591E+02  0.40659144200E+02  0.00000000000E+00 0. -1.
         11    1    3    3    0    0 -0.12061981727E+02 -0.11950602158E+02  0.25442179165E+02  0.30587788021E+02  0.51100000000E-03 0. -1.
        -11    1    3    3    0    0 -0.10170062319E+02  0.74647771704E+00  0.11773687413E+02  0.15575850285E+02  0.51100000000E-03 0.  1.
         12    1    3    3    0    0  0.94923152738E+00  0.69869641799E+00 -0.42030829860E+01  0.43652174934E+01  0.00000000000E+00 0. -1.
</event>
<event>
 7    1  0.5329250E-013  0.5052887E+02  0.7816164E-02  0.1300439E+00
        -11   -1    0    0    0    0  0.00000000000E+00  0.00000000000E+00  0.45593999997E+02  0.45594000000E+02  0.51100000000E-03 0. -1.
         11   -1    0    0    0    0 -0.00000000000E+00 -0.00000000000E+00 -0.45593999997E+02  0.45594000000E+02  0.51100000000E-03 0.  1.
    9900012    2    1    2    0    0 -0.16356841533E+02  0.33705518002E+02 -0.15797350258E+02  0.50528874531E+02  0.30000044623E+02 0.  0.
         12    1    1    2    0    0  0.16356841533E+02 -0.33705518002E+02  0.15797350258E+02  0.40659125469E+02  0.00000000000E+00 0. -1.
         11    1    3    3    0    0  0.34955019901E+01  0.16886581735E+02 -0.98163636724E+01  0.19842786419E+02  0.51100000000E-03 0. -1.
        -11    1    3    3    0    0 -0.10698865288E+02  0.14375947558E+02 -0.98543799663E+01  0.20450975318E+02  0.51100000000E-03 0.  1.
         12    1    3    3    0    0 -0.91534782351E+01  0.24429887093E+01  0.38733933805E+01  0.10235112794E+02  0.00000000000E+00 0. -1.
</event>
<event>
 7    1  0.5329250E-013  0.5052886E+02  0.7816164E-02  0.1300439E+00
        -11   -1    0    0    0    0  0.00000000000E+00  0.00000000000E+00  0.45593999997E+02  0.45594000000E+02  0.51100000000E-03 0.  1.
         11   -1    0    0    0    0 -0.00000000000E+00 -0.00000000000E+00 -0.45593999997E+02  0.45594000000E+02  0.51100000000E-03 0. -1.
    9900012    2    1    2    0    0  0.34402841931E+02 -0.74084348895E+01  0.20364794828E+02  0.50528864386E+02  0.30000013788E+02 0.  0.
         12    1    1    2    0    0 -0.34402841931E+02  0.74084348895E+01 -0.20364794828E+02  0.40659135614E+02  0.00000000000E+00 0. -1.
         11    1    3    3    0    0  0.12077094667E+02 -0.90342002362E+01 -0.52408915444E+00  0.15091310719E+02  0.51100000000E-03 0. -1.
        -11    1    3    3    0    0  0.12874475852E+02 -0.79752586120E+01  0.10598338481E+02  0.18484633002E+02  0.51100000000E-03 0.  1.
        -12    1    3    3    0    0  0.94512714122E+01  0.96010239588E+01  0.10290545502E+02  0.16952920666E+02  0.00000000000E+00 0.  1.
</event>
<event>
 7    1  0.5329250E-013  0.5052887E+02  0.7816164E-02  0.1300439E+00
        -11   -1    0    0    0    0  0.00000000000E+00  0.00000000000E+00  0.45593999997E+02  0.45594000000E+02  0.51100000000E-03 0.  1.
         11   -1    0    0    0    0 -0.00000000000E+00 -0.00000000000E+00 -0.45593999997E+02  0.45594000000E+02  0.51100000000E-03 0. -1.
    9900012    2    1    2    0    0 -0.15150694968E+02  0.33093430935E+02  0.18123091195E+02  0.50528866174E+02  0.30000019221E+02 0.  0.
         12    1    1    2    0    0  0.15150694968E+02 -0.33093430935E+02 -0.18123091195E+02  0.40659133826E+02  0.00000000000E+00 0. -1.
         11    1    3    3    0    0  0.61421425963E+01  0.68731870709E+01 -0.16132661148E+01  0.93578439826E+01  0.51100000000E-03 0. -1.
        -11    1    3    3    0    0 -0.57182134726E+01  0.11670773097E+02  0.14293362141E+01  0.13074705055E+02  0.51100000000E-03 0.  1.
         12    1    3    3    0    0 -0.15574624092E+02  0.14549470767E+02  0.18307021096E+02  0.28096317136E+02  0.00000000000E+00 0. -1.
</event>
<event>
 7    1  0.5329250E-013  0.5052886E+02  0.7816164E-02  0.1300439E+00
        -11   -1    0    0    0    0  0.00000000000E+00  0.00000000000E+00  0.45593999997E+02  0.45594000000E+02  0.51100000000E-03 0.  1.
         11   -1    0    0    0    0 -0.00000000000E+00 -0.00000000000E+00 -0.45593999997E+02  0.45594000000E+02  0.51100000000E-03 0. -1.
    9900012    2    1    2    0    0 -0.32569116279E+02 -0.21502123215E+02 -0.11405122258E+02  0.50528862630E+02  0.30000008450E+02 0.  0.
         12    1    1    2    0    0  0.32569116279E+02  0.21502123215E+02  0.11405122258E+02  0.40659137370E+02  0.00000000000E+00 0. -1.
         11    1    3    3    0    0 -0.94203210775E+01 -0.77518219800E+01  0.37858738932E+01  0.12773646097E+02  0.51100000000E-03 0. -1.
        -11    1    3    3    0    0 -0.26737410596E+02 -0.94656391505E+01 -0.15171630105E+02  0.32166221572E+02  0.51100000000E-03 0.  1.
         12    1    3    3    0    0  0.35886153946E+01 -0.42846620847E+01 -0.19366046462E-01  0.55889949610E+01  0.00000000000E+00 0. -1.
</event>
<event>
 7    1  0.5329250E-013  0.5052889E+02  0.7816164E-02  0.1300439E+00
        -11   -1    0    0    0    0  0.00000000000E+00  0.00000000000E+00  0.45593999997E+02  0.45594000000E+02  0.51100000000E-03 0.  1.
         11   -1    0    0    0    0 -0.00000000000E+00 -0.00000000000E+00 -0.45593999997E+02  0.45594000000E+02  0.51100000000E-03 0. -1.
    9900012    2    1    2    0    0  0.19191684043E+02 -0.18540901352E+02  0.30676979803E+02  0.50528894634E+02  0.30000105729E+02 0.  0.
         12    1    1    2    0    0 -0.19191684043E+02  0.18540901352E+02 -0.30676979803E+02  0.40659105366E+02  0.00000000000E+00 0. -1.
         11    1    3    3    0    0  0.74519053403E+01 -0.30029045606E+01  0.16587830930E+02  0.18431073333E+02  0.51100000000E-03 0. -1.
        -11    1    3    3    0    0  0.93003939227E+01 -0.20665590772E+02  0.87159605137E+01  0.24280278767E+02  0.51100000000E-03 0.  1.
         12    1    3    3    0    0  0.24393847801E+01  0.51275939798E+01  0.53731883591E+01  0.78175425339E+01  0.00000000000E+00 0. -1.
</event>
<event>
 7    1  0.5329250E-013  0.5052886E+02  0.7816164E-02  0.1300439E+00
        -11   -1    0    0    0    0  0.00000000000E+00  0.00000000000E+00  0.45593999997E+02  0.45594000000E+02  0.51100000000E-03 0.  1.
         11   -1    0    0    0    0 -0.00000000000E+00 -0.00000000000E+00 -0.45593999997E+02  0.45594000000E+02  0.51100000000E-03 0. -1.
    9900012    2    1    2    0    0 -0.11592104832E+02 -0.30433357828E+02  0.24343360709E+02  0.50528863588E+02  0.30000011363E+02 0.  0.
         12    1    1    2    0    0  0.11592104832E+02  0.30433357828E+02 -0.24343360709E+02  0.40659136412E+02  0.00000000000E+00 0. -1.
         11    1    3    3    0    0 -0.24278706288E+01 -0.11556578558E+02 -0.19262850885E+01  0.11964933692E+02  0.51100000000E-03 0. -1.
        -11    1    3    3    0    0 -0.44099083869E-01 -0.43044985037E+01 -0.25523373691E+01  0.50045058102E+01  0.51100000000E-03 0.  1.
        -12    1    3    3    0    0 -0.91201351191E+01 -0.14572280767E+02  0.28821983166E+02  0.33559424086E+02  0.00000000000E+00 0.  1.
</event>
<event>
 7    1  0.5329250E-013  0.5052886E+02  0.7816164E-02  0.1300439E+00
        -11   -1    0    0    0    0  0.00000000000E+00  0.00000000000E+00  0.45593999997E+02  0.45594000000E+02  0.51100000000E-03 0.  1.
         11   -1    0    0    0    0 -0.00000000000E+00 -0.00000000000E+00 -0.45593999997E+02  0.45594000000E+02  0.51100000000E-03 0. -1.
    9900012    2    1    2    0    0 -0.14922668538E+02 -0.37783043168E+02 -0.17090765774E+01  0.50528864125E+02  0.30000012995E+02 0.  0.
         12    1    1    2    0    0  0.14922668538E+02  0.37783043168E+02  0.17090765774E+01  0.40659135875E+02  0.00000000000E+00 0. -1.
         11    1    3    3    0    0 -0.26692445018E+01 -0.19171066517E+00 -0.37633113699E+01  0.46178059636E+01  0.51100000000E-03 0. -1.
        -11    1    3    3    0    0 -0.17796805993E+02 -0.25482684109E+02 -0.38954577788E+01  0.31325198874E+02  0.51100000000E-03 0.  1.
         12    1    3    3    0    0  0.55433819574E+01 -0.12108648394E+02  0.59496925714E+01  0.14585859287E+02  0.00000000000E+00 0. -1.
</event>
<event>
 7    1  0.5329250E-013  0.5052887E+02  0.7816164E-02  0.1300439E+00
        -11   -1    0    0    0    0  0.00000000000E+00  0.00000000000E+00  0.45593999997E+02  0.45594000000E+02  0.51100000000E-03 0.  1.
         11   -1    0    0    0    0 -0.00000000000E+00 -0.00000000000E+00 -0.45593999997E+02  0.45594000000E+02  0.51100000000E-03 0. -1.
    9900012    2    1    2    0    0 -0.16432407539E+02  0.53887690490E+01  0.36798128135E+02  0.50528867156E+02  0.30000022206E+02 0.  0.
         12    1    1    2    0    0  0.16432407539E+02 -0.53887690490E+01 -0.36798128135E+02  0.40659132844E+02  0.00000000000E+00 0. -1.
         11    1    3    3    0    0 -0.45450871153E+01  0.37313042158E+01  0.12167599240E+01  0.60050772693E+01  0.51100000000E-03 0. -1.
        -11    1    3    3    0    0 -0.14661898764E+02 -0.71102682398E+01  0.15743467028E+02  0.22657977494E+02  0.51100000000E-03 0.  1.
         12    1    3    3    0    0  0.27745783401E+01  0.87677330730E+01  0.19837901183E+02  0.21865812392E+02  0.00000000000E+00 0. -1.
</event>
<event>
 7    1  0.5329250E-013  0.5052886E+02  0.7816164E-02  0.1300439E+00
        -11   -1    0    0    0    0  0.00000000000E+00  0.00000000000E+00  0.45593999997E+02  0.45594000000E+02  0.51100000000E-03 0.  1.
         11   -1    0    0    0    0 -0.00000000000E+00 -0.00000000000E+00 -0.45593999997E+02  0.45594000000E+02  0.51100000000E-03 0. -1.
    9900012    2    1    2    0    0  0.97205630364E+00  0.35413076082E+02  0.19953312734E+02  0.50528861543E+02  0.30000005145E+02 0.  0.
         12    1    1    2    0    0 -0.97205630364E+00 -0.35413076082E+02 -0.19953312734E+02  0.40659138457E+02  0.00000000000E+00 0. -1.
         11    1    3    3    0    0  0.82995964754E+01  0.92313286371E+01  0.50186067671E+01  0.13389814943E+02  0.51100000000E-03 0. -1.
        -11    1    3    3    0    0  0.14052462922E+01  0.25043374310E+02  0.12366065873E+02  0.27965423283E+02  0.51100000000E-03 0.  1.
         12    1    3    3    0    0 -0.87327864640E+01  0.11383731345E+01  0.25686400938E+01  0.91736233164E+01  0.00000000000E+00 0. -1.
</event>
<event>
 7    1  0.5329250E-013  0.5052887E+02  0.7816164E-02  0.1300439E+00
        -11   -1    0    0    0    0  0.00000000000E+00  0.00000000000E+00  0.45593999997E+02  0.45594000000E+02  0.51100000000E-03 0.  1.
         11   -1    0    0    0    0 -0.00000000000E+00 -0.00000000000E+00 -0.45593999997E+02  0.45594000000E+02  0.51100000000E-03 0. -1.
    9900012    2    1    2    0    0 -0.11021480193E+02 -0.27202886812E+02  0.28137078002E+02  0.50528865294E+02  0.30000016548E+02 0.  0.
         12    1    1    2    0    0  0.11021480193E+02  0.27202886812E+02 -0.28137078002E+02  0.40659134706E+02  0.00000000000E+00 0. -1.
         11    1    3    3    0    0 -0.10091253042E+02 -0.14735513620E+02  0.45047597636E+01  0.18419055632E+02  0.51100000000E-03 0. -1.
        -11    1    3    3    0    0 -0.76750830287E+01 -0.10452398498E+02  0.20822576416E+02  0.24530373473E+02  0.51100000000E-03 0.  1.
         12    1    3    3    0    0  0.67448558779E+01 -0.20149746941E+01  0.28097418224E+01  0.75794361887E+01  0.00000000000E+00 0. -1.
</event>
<event>
 7    1  0.5329250E-013  0.5052887E+02  0.7816164E-02  0.1300439E+00
        -11   -1    0    0    0    0  0.00000000000E+00  0.00000000000E+00  0.45593999997E+02  0.45594000000E+02  0.51100000000E-03 0.  1.
         11   -1    0    0    0    0 -0.00000000000E+00 -0.00000000000E+00 -0.45593999997E+02  0.45594000000E+02  0.51100000000E-03 0. -1.
    9900012    2    1    2    0    0  0.89025297973E+01 -0.39081632539E+02 -0.68217461104E+01  0.50528865003E+02  0.30000015663E+02 0.  0.
         12    1    1    2    0    0 -0.89025297973E+01  0.39081632539E+02  0.68217461104E+01  0.40659134997E+02  0.00000000000E+00 0. -1.
         11    1    3    3    0    0  0.12461761766E+02 -0.13478153089E+02 -0.57065364439E+01  0.19222920576E+02  0.51100000000E-03 0.  1.
        -11    1    3    3    0    0 -0.35134507396E+01  0.73249876997E+00 -0.33051566148E+01  0.48790317745E+01  0.51100000000E-03 0. -1.
        -12    1    3    3    0    0 -0.45781229462E-01 -0.26335978220E+02  0.21899469483E+01  0.26426912653E+02  0.00000000000E+00 0.  1.
</event>
<event>
 7    1  0.5329250E-013  0.5052887E+02  0.7816164E-02  0.1300439E+00
        -11   -1    0    0    0    0  0.00000000000E+00  0.00000000000E+00  0.45593999997E+02  0.45594000000E+02  0.51100000000E-03 0. -1.
         11   -1    0    0    0    0 -0.00000000000E+00 -0.00000000000E+00 -0.45593999997E+02  0.45594000000E+02  0.51100000000E-03 0.  1.
    9900012    2    1    2    0    0  0.40391944189E+02  0.45621926542E+01  0.91782169405E+00  0.50528866293E+02  0.30000019583E+02 0.  0.
         12    1    1    2    0    0 -0.40391944189E+02 -0.45621926542E+01 -0.91782169405E+00  0.40659133707E+02  0.00000000000E+00 0. -1.
         11    1    3    3    0    0  0.18216047446E+02  0.70702794311E+01  0.13135455463E+01  0.19584142513E+02  0.51100000000E-03 0. -1.
        -11    1    3    3    0    0  0.41435275521E+01  0.48857119940E+01  0.75467550763E+01  0.98991168649E+01  0.51100000000E-03 0.  1.
        -12    1    3    3    0    0  0.18032369191E+02 -0.73937987709E+01 -0.79424789286E+01  0.21045606915E+02  0.00000000000E+00 0.  1.
</event>
<event>
 7    1  0.5329250E-013  0.5052886E+02  0.7816164E-02  0.1300439E+00
        -11   -1    0    0    0    0  0.00000000000E+00  0.00000000000E+00  0.45593999997E+02  0.45594000000E+02  0.51100000000E-03 0.  1.
         11   -1    0    0    0    0 -0.00000000000E+00 -0.00000000000E+00 -0.45593999997E+02  0.45594000000E+02  0.51100000000E-03 0. -1.
    9900012    2    1    2    0    0  0.12178458567E+02 -0.37132268963E+02  0.11226998188E+02  0.50528859087E+02  0.29999997682E+02 0.  0.
         12    1    1    2    0    0 -0.12178458567E+02  0.37132268963E+02 -0.11226998188E+02  0.40659140913E+02  0.00000000000E+00 0. -1.
         11    1    3    3    0    0  0.67696753106E+01 -0.14192414910E+02  0.15855046527E+02  0.22330151039E+02  0.51100000000E-03 0. -1.
        -11    1    3    3    0    0  0.62101992306E+01 -0.20426984001E+02  0.16252624288E+01  0.21411906222E+02  0.51100000000E-03 0.  1.
         12    1    3    3    0    0 -0.80141597385E+00 -0.25128700527E+01 -0.62533107678E+01  0.67868018258E+01  0.00000000000E+00 0. -1.
</event>
<event>
 7    1  0.5329250E-013  0.5052887E+02  0.7816164E-02  0.1300439E+00
        -11   -1    0    0    0    0  0.00000000000E+00  0.00000000000E+00  0.45593999997E+02  0.45594000000E+02  0.51100000000E-03 0.  1.
         11   -1    0    0    0    0 -0.00000000000E+00 -0.00000000000E+00 -0.45593999997E+02  0.45594000000E+02  0.51100000000E-03 0. -1.
    9900012    2    1    2    0    0 -0.64362501324E+01 -0.82877041068E+01  0.39281717724E+02  0.50528871843E+02  0.30000036455E+02 0.  0.
         12    1    1    2    0    0  0.64362501324E+01  0.82877041068E+01 -0.39281717724E+02  0.40659128157E+02  0.00000000000E+00 0. -1.
         11    1    3    3    0    0  0.62519758270E+01 -0.70151168979E+01  0.78269052531E+01  0.12229452683E+02  0.51100000000E-03 0. -1.
        -11    1    3    3    0    0 -0.21361256401E+00 -0.49150370791E+01  0.77448365052E+00  0.49802655554E+01  0.51100000000E-03 0.  1.
         12    1    3    3    0    0 -0.12474613395E+02  0.36424498702E+01  0.30680328820E+02  0.33319153605E+02  0.00000000000E+00 0. -1.
</event>
<event>
 7    1  0.5329250E-013  0.5052886E+02  0.7816164E-02  0.1300439E+00
        -11   -1    0    0    0    0  0.00000000000E+00  0.00000000000E+00  0.45593999997E+02  0.45594000000E+02  0.51100000000E-03 0. -1.
         11   -1    0    0    0    0 -0.00000000000E+00 -0.00000000000E+00 -0.45593999997E+02  0.45594000000E+02  0.51100000000E-03 0.  1.
    9900012    2    1    2    0    0  0.34212879431E+02 -0.21944555704E+02 -0.10396764241E+01  0.50528861162E+02  0.30000003988E+02 0.  0.
         12    1    1    2    0    0 -0.34212879431E+02  0.21944555704E+02  0.10396764241E+01  0.40659138838E+02  0.00000000000E+00 0. -1.
         11    1    3    3    0    0 -0.14089390247E+01  0.49515395349E+00 -0.64702693188E+00  0.16275536012E+01  0.51100000000E-03 0. -1.
        -11    1    3    3    0    0  0.21969057315E+02 -0.38087195858E+01  0.88957075916E+01  0.24005820919E+02  0.51100000000E-03 0.  1.
        -12    1    3    3    0    0  0.13652761141E+02 -0.18630990072E+02 -0.92883570838E+01  0.24895486642E+02  0.00000000000E+00 0.  1.
</event>
<event>
 7    1  0.5329250E-013  0.5052887E+02  0.7816164E-02  0.1300439E+00
        -11   -1    0    0    0    0  0.00000000000E+00  0.00000000000E+00  0.45593999997E+02  0.45594000000E+02  0.51100000000E-03 0.  1.
         11   -1    0    0    0    0 -0.00000000000E+00 -0.00000000000E+00 -0.45593999997E+02  0.45594000000E+02  0.51100000000E-03 0. -1.
    9900012    2    1    2    0    0  0.55914681534E+01 -0.26859613001E+02  0.30007689389E+02  0.50528871269E+02  0.30000034709E+02 0.  0.
         12    1    1    2    0    0 -0.55914681534E+01  0.26859613001E+02 -0.30007689389E+02  0.40659128731E+02  0.00000000000E+00 0. -1.
         11    1    3    3    0    0  0.12578577464E+01 -0.84722253711E+01  0.13092805326E+02  0.15645522056E+02  0.51100000000E-03 0. -1.
        -11    1    3    3    0    0 -0.41800361927E+01 -0.21130225316E+02  0.12571959036E+02  0.24940194040E+02  0.51100000000E-03 0.  1.
         12    1    3    3    0    0  0.85136465997E+01  0.27428376861E+01  0.43429250279E+01  0.99431551731E+01  0.00000000000E+00 0. -1.
</event>
<event>
 7    1  0.5329250E-013  0.5052886E+02  0.7816164E-02  0.1300439E+00
        -11   -1    0    0    0    0  0.00000000000E+00  0.00000000000E+00  0.45593999997E+02  0.45594000000E+02  0.51100000000E-03 0. -1.
         11   -1    0    0    0    0 -0.00000000000E+00 -0.00000000000E+00 -0.45593999997E+02  0.45594000000E+02  0.51100000000E-03 0.  1.
    9900012    2    1    2    0    0 -0.75112008701E+01 -0.65398426010E+01 -0.39420528978E+02  0.50528858536E+02  0.29999996005E+02 0.  0.
         12    1    1    2    0    0  0.75112008701E+01  0.65398426010E+01  0.39420528978E+02  0.40659141464E+02  0.00000000000E+00 0. -1.
         11    1    3    3    0    0 -0.14173066947E+02 -0.57407391057E+01 -0.12323588868E+02  0.19639316562E+02  0.51100000000E-03 0. -1.
        -11    1    3    3    0    0 -0.13021521018E+01  0.38467907953E+01 -0.15769385805E+02  0.16283946955E+02  0.51100000000E-03 0.  1.
         12    1    3    3    0    0  0.79640181790E+01 -0.46458942905E+01 -0.11327554305E+02  0.14605595019E+02  0.00000000000E+00 0. -1.
</event>
<event>
 7    1  0.5329250E-013  0.5052886E+02  0.7816164E-02  0.1300439E+00
        -11   -1    0    0    0    0  0.00000000000E+00  0.00000000000E+00  0.45593999997E+02  0.45594000000E+02  0.51100000000E-03 0. -1.
         11   -1    0    0    0    0 -0.00000000000E+00 -0.00000000000E+00 -0.45593999997E+02  0.45594000000E+02  0.51100000000E-03 0.  1.
    9900012    2    1    2    0    0 -0.59769465159E+01 -0.37227303397E+02 -0.15217423275E+02  0.50528856145E+02  0.29999988739E+02 0.  0.
         12    1    1    2    0    0  0.59769465159E+01  0.37227303397E+02  0.15217423275E+02  0.40659143855E+02  0.00000000000E+00 0. -1.
         11    1    3    3    0    0 -0.95743554572E+00 -0.29063324938E+01 -0.10719293201E+02  0.11147497404E+02  0.51100000000E-03 0. -1.
        -11    1    3    3    0    0  0.26119089487E+01  0.97083818515E-01  0.22956968598E+01  0.34787523564E+01  0.51100000000E-03 0.  1.
        -12    1    3    3    0    0 -0.76314199189E+01 -0.34418054722E+02 -0.67938269340E+01  0.35902606385E+02  0.00000000000E+00 0.  1.
</event>
<event>
 7    1  0.5329250E-013  0.5052887E+02  0.7816164E-02  0.1300439E+00
        -11   -1    0    0    0    0  0.00000000000E+00  0.00000000000E+00  0.45593999997E+02  0.45594000000E+02  0.51100000000E-03 0.  1.
         11   -1    0    0    0    0 -0.00000000000E+00 -0.00000000000E+00 -0.45593999997E+02  0.45594000000E+02  0.51100000000E-03 0. -1.
    9900012    2    1    2    0    0 -0.45288671099E+01  0.19282552015E+02  0.35508276736E+02  0.50528866140E+02  0.30000019118E+02 0.  0.
         12    1    1    2    0    0  0.45288671099E+01 -0.19282552015E+02 -0.35508276736E+02  0.40659133860E+02  0.00000000000E+00 0. -1.
         11    1    3    3    0    0  0.95957488797E+01  0.13936723288E+02  0.21779994072E+02  0.27580405991E+02  0.51100000000E-03 0. -1.
        -11    1    3    3    0    0 -0.40576902041E+01  0.33142897485E+01  0.11210663683E+02  0.12374503901E+02  0.51100000000E-03 0.  1.
        -12    1    3    3    0    0 -0.10066925785E+02  0.20315389787E+01  0.25176189804E+01  0.10573956247E+02  0.00000000000E+00 0.  1.
</event>
<event>
 7    1  0.5329250E-013  0.5052886E+02  0.7816164E-02  0.1300439E+00
        -11   -1    0    0    0    0  0.00000000000E+00  0.00000000000E+00  0.45593999997E+02  0.45594000000E+02  0.51100000000E-03 0.  1.
         11   -1    0    0    0    0 -0.00000000000E+00 -0.00000000000E+00 -0.45593999997E+02  0.45594000000E+02  0.51100000000E-03 0. -1.
    9900012    2    1    2    0    0 -0.40358420832E+02  0.50556323894E-01  0.49356637192E+01  0.50528862474E+02  0.30000007977E+02 0.  0.
         12    1    1    2    0    0  0.40358420832E+02 -0.50556323894E-01 -0.49356637192E+01  0.40659137526E+02  0.00000000000E+00 0. -1.
         11    1    3    3    0    0 -0.71105709181E+01 -0.47415016627E+01  0.12297536449E+00  0.85473492967E+01  0.51100000000E-03 0. -1.
        -11    1    3    3    0    0  0.20684580318E+01  0.39912671867E+01  0.49085201768E+01  0.66559975190E+01  0.51100000000E-03 0.  1.
         12    1    3    3    0    0 -0.35316307946E+02  0.80079079985E+00 -0.95831822162E-01  0.35325515659E+02  0.00000000000E+00 0. -1.
</event>
<event>
 7    1  0.5329250E-013  0.5052885E+02  0.7816164E-02  0.1300439E+00
        -11   -1    0    0    0    0  0.00000000000E+00  0.00000000000E+00  0.45593999997E+02  0.45594000000E+02  0.51100000000E-03 0. -1.
         11   -1    0    0    0    0 -0.00000000000E+00 -0.00000000000E+00 -0.45593999997E+02  0.45594000000E+02  0.51100000000E-03 0.  1.
    9900012    2    1    2    0    0  0.48748732463E+01 -0.39797024319E+02 -0.67526920703E+01  0.50528851165E+02  0.29999973600E+02 0.  0.
         12    1    1    2    0    0 -0.48748732463E+01  0.39797024319E+02  0.67526920703E+01  0.40659148835E+02  0.00000000000E+00 0. -1.
         11    1    3    3    0    0 -0.28793591763E+00 -0.23838883057E+02 -0.12414666753E+02  0.26879345293E+02  0.51100000000E-03 0. -1.
        -11    1    3    3    0    0 -0.45800696143E+01 -0.29474031811E+01 -0.18380783011E+01  0.57482828120E+01  0.51100000000E-03 0.  1.
         12    1    3    3    0    0  0.97428787783E+01 -0.13010738081E+02  0.75000529834E+01  0.17901223060E+02  0.00000000000E+00 0. -1.
</event>
<event>
 7    1  0.5329250E-013  0.5052886E+02  0.7816164E-02  0.1300439E+00
        -11   -1    0    0    0    0  0.00000000000E+00  0.00000000000E+00  0.45593999997E+02  0.45594000000E+02  0.51100000000E-03 0.  1.
         11   -1    0    0    0    0 -0.00000000000E+00 -0.00000000000E+00 -0.45593999997E+02  0.45594000000E+02  0.51100000000E-03 0. -1.
    9900012    2    1    2    0    0 -0.29635953784E+01 -0.87988263085E+01  0.39584885168E+02  0.50528863564E+02  0.30000011290E+02 0.  0.
         12    1    1    2    0    0  0.29635953784E+01  0.87988263085E+01 -0.39584885168E+02  0.40659136436E+02  0.00000000000E+00 0. -1.
         11    1    3    3    0    0 -0.45255216556E+01  0.53275305852E+01  0.93844769177E+01  0.11701766348E+02  0.51100000000E-03 0. -1.
        -11    1    3    3    0    0 -0.40847388231E+01 -0.13451687055E+02  0.30007113238E+02  0.33136985696E+02  0.51100000000E-03 0.  1.
         12    1    3    3    0    0  0.56466651004E+01 -0.67466983860E+00  0.19329501200E+00  0.56901115199E+01  0.00000000000E+00 0. -1.
</event>
<event>
 7    1  0.5329250E-013  0.5052886E+02  0.7816164E-02  0.1300439E+00
        -11   -1    0    0    0    0  0.00000000000E+00  0.00000000000E+00  0.45593999997E+02  0.45594000000E+02  0.51100000000E-03 0.  1.
         11   -1    0    0    0    0 -0.00000000000E+00 -0.00000000000E+00 -0.45593999997E+02  0.45594000000E+02  0.51100000000E-03 0. -1.
    9900012    2    1    2    0    0 -0.73085422173E+01 -0.22559809737E+02  0.33027352229E+02  0.50528858347E+02  0.29999995431E+02 0.  0.
         12    1    1    2    0    0  0.73085422173E+01  0.22559809737E+02 -0.33027352229E+02  0.40659141653E+02  0.00000000000E+00 0. -1.
         11    1    3    3    0    0 -0.19217092443E+01 -0.83547391254E+01  0.19191981095E+01  0.87850984012E+01  0.51100000000E-03 0. -1.
        -11    1    3    3    0    0 -0.69393507075E+01 -0.20282936728E+02  0.25649374485E+02  0.33428169592E+02  0.51100000000E-03 0.  1.
         12    1    3    3    0    0  0.15525177345E+01  0.60778661157E+01  0.54587796347E+01  0.83155903541E+01  0.00000000000E+00 0. -1.
</event>
<event>
 7    1  0.5329250E-013  0.5052886E+02  0.7816164E-02  0.1300439E+00
        -11   -1    0    0    0    0  0.00000000000E+00  0.00000000000E+00  0.45593999997E+02  0.45594000000E+02  0.51100000000E-03 0.  1.
         11   -1    0    0    0    0 -0.00000000000E+00 -0.00000000000E+00 -0.45593999997E+02  0.45594000000E+02  0.51100000000E-03 0. -1.
    9900012    2    1    2    0    0 -0.11544769021E+02  0.31996077050E+02  0.22274087143E+02  0.50528860850E+02  0.30000003040E+02 0.  0.
         12    1    1    2    0    0  0.11544769021E+02 -0.31996077050E+02 -0.22274087143E+02  0.40659139150E+02  0.00000000000E+00 0. -1.
         11    1    3    3    0    0  0.25297014564E+01 -0.18949936340E+01  0.39501073054E+01  0.50590254315E+01  0.51100000000E-03 0. -1.
        -11    1    3    3    0    0 -0.82466377930E+01  0.35729735800E+01 -0.10076646664E+01  0.90437029713E+01  0.51100000000E-03 0.  1.
        -12    1    3    3    0    0 -0.58278326848E+01  0.30318097104E+02  0.19331644504E+02  0.36426132447E+02  0.00000000000E+00 0.  1.
</event>
<event>
 7    1  0.5329250E-013  0.5052886E+02  0.7816164E-02  0.1300439E+00
        -11   -1    0    0    0    0  0.00000000000E+00  0.00000000000E+00  0.45593999997E+02  0.45594000000E+02  0.51100000000E-03 0.  1.
         11   -1    0    0    0    0 -0.00000000000E+00 -0.00000000000E+00 -0.45593999997E+02  0.45594000000E+02  0.51100000000E-03 0. -1.
    9900012    2    1    2    0    0  0.73220636452E+01  0.34729467220E+02  0.19834746499E+02  0.50528859845E+02  0.29999999986E+02 0.  0.
         12    1    1    2    0    0 -0.73220636452E+01 -0.34729467220E+02 -0.19834746499E+02  0.40659140155E+02  0.00000000000E+00 0. -1.
         11    1    3    3    0    0 -0.21675938210E+01  0.33388620426E+01 -0.31732249360E+01  0.50907582410E+01  0.51100000000E-03 0. -1.
        -11    1    3    3    0    0  0.12305816315E+02  0.63464206717E+01  0.99803873278E+01  0.17068049156E+02  0.51100000000E-03 0.  1.
        -12    1    3    3    0    0 -0.28161588492E+01  0.25044184506E+02  0.13027584107E+02  0.28370052448E+02  0.00000000000E+00 0.  1.
</event>
<event>
 7    1  0.5329250E-013  0.5052876E+02  0.7816164E-02  0.1300439E+00
        -11   -1    0    0    0    0  0.00000000000E+00  0.00000000000E+00  0.45593999997E+02  0.45594000000E+02  0.51100000000E-03 0. -1.
         11   -1    0    0    0    0 -0.00000000000E+00 -0.00000000000E+00 -0.45593999997E+02  0.45594000000E+02  0.51100000000E-03 0.  1.
    9900012    2    1    2    0    0  0.25917163808E+02  0.21370874584E+02 -0.22907643964E+02  0.50528759817E+02  0.29999695937E+02 0.  0.
         12    1    1    2    0    0 -0.25917163808E+02 -0.21370874584E+02  0.22907643964E+02  0.40659240183E+02  0.00000000000E+00 0. -1.
         11    1    3    3    0    0  0.13742873293E+02  0.21497415615E+02 -0.79923193120E+01  0.26737288806E+02  0.51100000000E-03 0. -1.
        -11    1    3    3    0    0  0.38789634708E+01  0.56913272772E+01 -0.10897929899E+02  0.12891952534E+02  0.51100000000E-03 0.  1.
         12    1    3    3    0    0  0.82953270440E+01 -0.58178683085E+01 -0.40173947522E+01  0.10899518476E+02  0.00000000000E+00 0. -1.
</event>
<event>
 7    1  0.5329250E-013  0.5052886E+02  0.7816164E-02  0.1300439E+00
        -11   -1    0    0    0    0  0.00000000000E+00  0.00000000000E+00  0.45593999997E+02  0.45594000000E+02  0.51100000000E-03 0. -1.
         11   -1    0    0    0    0 -0.00000000000E+00 -0.00000000000E+00 -0.45593999997E+02  0.45594000000E+02  0.51100000000E-03 0.  1.
    9900012    2    1    2    0    0 -0.22264871670E+02 -0.32565853505E+02  0.98440885261E+01  0.50528863218E+02  0.30000010237E+02 0.  0.
         12    1    1    2    0    0  0.22264871670E+02  0.32565853505E+02 -0.98440885261E+01  0.40659136782E+02  0.00000000000E+00 0. -1.
         11    1    3    3    0    0 -0.58118482132E+01  0.20681637008E+01  0.10006037754E+02  0.11754814867E+02  0.51100000000E-03 0. -1.
        -11    1    3    3    0    0 -0.41582245656E+01 -0.41277302643E+01 -0.51303582187E+00  0.58815129591E+01  0.51100000000E-03 0.  1.
        -12    1    3    3    0    0 -0.12294798891E+02 -0.30506286941E+02  0.35108659346E+00  0.32892535392E+02  0.00000000000E+00 0.  1.
</event>
<event>
 7    1  0.5610875E-013  0.5052886E+02  0.7816164E-02  0.1300439E+00
        -11   -1    0    0    0    0  0.00000000000E+00  0.00000000000E+00  0.45593999997E+02  0.45594000000E+02  0.51100000000E-03 0. -1.
         11   -1    0    0    0    0 -0.00000000000E+00 -0.00000000000E+00 -0.45593999997E+02  0.45594000000E+02  0.51100000000E-03 0.  1.
    9900012    2    1    2    0    0 -0.20882654968E+02 -0.15299754656E+02 -0.31352798027E+02  0.50528859390E+02  0.29999998602E+02 0.  0.
         12    1    1    2    0    0  0.20882654968E+02  0.15299754656E+02  0.31352798027E+02  0.40659140610E+02  0.00000000000E+00 0. -1.
         11    1    3    3    0    0 -0.14623366798E+02 -0.16421391072E+01 -0.80208198810E+01  0.16759266964E+02  0.51100000000E-03 0. -1.
        -11    1    3    3    0    0 -0.11417569220E+02 -0.12056004791E+02 -0.22987726121E+02  0.28357427437E+02  0.51100000000E-03 0.  1.
        -12    1    3    3    0    0  0.51582810497E+01 -0.16016107584E+01 -0.34425202501E+00  0.54121649887E+01  0.00000000000E+00 0.  1.
</event>
<event>
 7    1  0.5329250E-013  0.5052886E+02  0.7816164E-02  0.1300439E+00
        -11   -1    0    0    0    0  0.00000000000E+00  0.00000000000E+00  0.45593999997E+02  0.45594000000E+02  0.51100000000E-03 0.  1.
         11   -1    0    0    0    0 -0.00000000000E+00 -0.00000000000E+00 -0.45593999997E+02  0.45594000000E+02  0.51100000000E-03 0. -1.
    9900012    2    1    2    0    0 -0.36633735741E+02 -0.11342355171E+02  0.13508736524E+02  0.50528861081E+02  0.30000003741E+02 0.  0.
         12    1    1    2    0    0  0.36633735741E+02  0.11342355171E+02 -0.13508736524E+02  0.40659138919E+02  0.00000000000E+00 0. -1.
         11    1    3    3    0    0 -0.31492794643E+02 -0.13745511265E+02  0.11506744337E+02  0.36237278593E+02  0.51100000000E-03 0.  1.
        -11    1    3    3    0    0 -0.81974554289E+01  0.28008818647E+01 -0.23340200443E+01  0.89716701097E+01  0.51100000000E-03 0. -1.
        -12    1    3    3    0    0  0.30565143300E+01 -0.39772576981E+00  0.43360122316E+01  0.53199123780E+01  0.00000000000E+00 0.  1.
</event>
<event>
 7    1  0.5329250E-013  0.5052886E+02  0.7816164E-02  0.1300439E+00
        -11   -1    0    0    0    0  0.00000000000E+00  0.00000000000E+00  0.45593999997E+02  0.45594000000E+02  0.51100000000E-03 0.  1.
         11   -1    0    0    0    0 -0.00000000000E+00 -0.00000000000E+00 -0.45593999997E+02  0.45594000000E+02  0.51100000000E-03 0. -1.
    9900012    2    1    2    0    0 -0.29252759733E+02  0.61566038006E+00 -0.28232294724E+02  0.50528862588E+02  0.30000008323E+02 0.  0.
         12    1    1    2    0    0  0.29252759733E+02 -0.61566038006E+00  0.28232294724E+02  0.40659137412E+02  0.00000000000E+00 0. -1.
         11    1    3    3    0    0  0.50873433912E+00 -0.42360736297E+01 -0.10182725256E+02  0.11040426818E+02  0.51100000000E-03 0. -1.
        -11    1    3    3    0    0 -0.17914887963E+01  0.66587075571E+01 -0.52978885432E+01  0.86957139854E+01  0.51100000000E-03 0.  1.
         12    1    3    3    0    0 -0.27970005276E+02 -0.18069735474E+01 -0.12751680925E+02  0.30792721785E+02  0.00000000000E+00 0. -1.
</event>
<event>
 7    1  0.5329250E-013  0.5052886E+02  0.7816164E-02  0.1300439E+00
        -11   -1    0    0    0    0  0.00000000000E+00  0.00000000000E+00  0.45593999997E+02  0.45594000000E+02  0.51100000000E-03 0. -1.
         11   -1    0    0    0    0 -0.00000000000E+00 -0.00000000000E+00 -0.45593999997E+02  0.45594000000E+02  0.51100000000E-03 0.  1.
    9900012    2    1    2    0    0 -0.35803679906E+02  0.10566807390E+02 -0.16112247225E+02  0.50528862972E+02  0.30000009489E+02 0.  0.
         12    1    1    2    0    0  0.35803679906E+02 -0.10566807390E+02  0.16112247225E+02  0.40659137028E+02  0.00000000000E+00 0. -1.
         11    1    3    3    0    0 -0.90486295367E+01  0.47776941345E+00  0.24404823916E+01  0.93841310023E+01  0.51100000000E-03 0. -1.
        -11    1    3    3    0    0 -0.22463528881E+02  0.17161222116E+02 -0.12579925310E+02  0.30941431696E+02  0.51100000000E-03 0.  1.
         12    1    3    3    0    0 -0.42915214878E+01 -0.70721841396E+01 -0.59728043065E+01  0.10203300273E+02  0.00000000000E+00 0. -1.
</event>
<event>
 7    1  0.5329250E-013  0.5052886E+02  0.7816164E-02  0.1300439E+00
        -11   -1    0    0    0    0  0.00000000000E+00  0.00000000000E+00  0.45593999997E+02  0.45594000000E+02  0.51100000000E-03 0. -1.
         11   -1    0    0    0    0 -0.00000000000E+00 -0.00000000000E+00 -0.45593999997E+02  0.45594000000E+02  0.51100000000E-03 0.  1.
    9900012    2    1    2    0    0 -0.11213718553E+02  0.33710700127E+02  0.19773891278E+02  0.50528861260E+02  0.30000004285E+02 0.  0.
         12    1    1    2    0    0  0.11213718553E+02 -0.33710700127E+02 -0.19773891278E+02  0.40659138740E+02  0.00000000000E+00 0. -1.
         11    1    3    3    0    0 -0.83405102672E+01  0.13487981633E+02 -0.12304379052E+01  0.15906091215E+02  0.51100000000E-03 0. -1.
        -11    1    3    3    0    0 -0.87283485586E+01  0.47415833331E+01  0.12645962766E+02  0.16080642264E+02  0.51100000000E-03 0.  1.
         12    1    3    3    0    0  0.58551402731E+01  0.15481135161E+02  0.83583664172E+01  0.18542127781E+02  0.00000000000E+00 0. -1.
</event>
<event>
 7    1  0.5329250E-013  0.5052886E+02  0.7816164E-02  0.1300439E+00
        -11   -1    0    0    0    0  0.00000000000E+00  0.00000000000E+00  0.45593999997E+02  0.45594000000E+02  0.51100000000E-03 0.  1.
         11   -1    0    0    0    0 -0.00000000000E+00 -0.00000000000E+00 -0.45593999997E+02  0.45594000000E+02  0.51100000000E-03 0. -1.
    9900012    2    1    2    0    0  0.19892561388E+02  0.22559774432E+02  0.27358874052E+02  0.50528863138E+02  0.30000009994E+02 0.  0.
         12    1    1    2    0    0 -0.19892561388E+02 -0.22559774432E+02 -0.27358874052E+02  0.40659136862E+02  0.00000000000E+00 0. -1.
         11    1    3    3    0    0 -0.29726442221E+01  0.58437295278E+01  0.30936635926E+01  0.72495891711E+01  0.51100000000E-03 0. -1.
        -11    1    3    3    0    0  0.36746291543E+01  0.27610219030E+01  0.18223373093E+02  0.18794080677E+02  0.51100000000E-03 0.  1.
         12    1    3    3    0    0  0.19190576456E+02  0.13955023001E+02  0.60418373668E+01  0.24485193289E+02  0.00000000000E+00 0. -1.
</event>
<event>
 7    1  0.5329250E-013  0.5052884E+02  0.7816164E-02  0.1300439E+00
        -11   -1    0    0    0    0  0.00000000000E+00  0.00000000000E+00  0.45593999997E+02  0.45594000000E+02  0.51100000000E-03 0.  1.
         11   -1    0    0    0    0 -0.00000000000E+00 -0.00000000000E+00 -0.45593999997E+02  0.45594000000E+02  0.51100000000E-03 0. -1.
    9900012    2    1    2    0    0  0.10422992878E+02  0.46223634918E+01  0.39027711571E+02  0.50528839958E+02  0.29999939537E+02 0.  0.
         12    1    1    2    0    0 -0.10422992878E+02 -0.46223634918E+01 -0.39027711571E+02  0.40659160042E+02  0.00000000000E+00 0. -1.
         11    1    3    3    0    0  0.12047487215E+02  0.12039227640E+01  0.21391112603E+02  0.24579891718E+02  0.51100000000E-03 0. -1.
        -11    1    3    3    0    0  0.51739600070E+01 -0.45806583915E+01  0.12451271331E+02  0.14240310793E+02  0.51100000000E-03 0.  1.
        -12    1    3    3    0    0 -0.67984543431E+01  0.79990991193E+01  0.51853276374E+01  0.11708637448E+02  0.00000000000E+00 0.  1.
</event>
<event>
 7    1  0.5329250E-013  0.5052887E+02  0.7816164E-02  0.1300439E+00
        -11   -1    0    0    0    0  0.00000000000E+00  0.00000000000E+00  0.45593999997E+02  0.45594000000E+02  0.51100000000E-03 0.  1.
         11   -1    0    0    0    0 -0.00000000000E+00 -0.00000000000E+00 -0.45593999997E+02  0.45594000000E+02  0.51100000000E-03 0. -1.
    9900012    2    1    2    0    0  0.26305862859E+02 -0.28086639689E+02 -0.13126593693E+02  0.50528865580E+02  0.30000017417E+02 0.  0.
         12    1    1    2    0    0 -0.26305862859E+02  0.28086639689E+02  0.13126593693E+02  0.40659134420E+02  0.00000000000E+00 0. -1.
         11    1    3    3    0    0  0.89601240289E+01 -0.19287982237E+01 -0.81723771047E+01  0.12279732611E+02  0.51100000000E-03 0. -1.
        -11    1    3    3    0    0  0.21663431566E+02 -0.16207479233E+02 -0.41616808728E+01  0.27373458646E+02  0.51100000000E-03 0.  1.
        -12    1    3    3    0    0 -0.43176927355E+01 -0.99503622326E+01 -0.79253571528E+00  0.10875674323E+02  0.00000000000E+00 0.  1.
</event>
<event>
 7    1  0.5329250E-013  0.5052886E+02  0.7816164E-02  0.1300439E+00
        -11   -1    0    0    0    0  0.00000000000E+00  0.00000000000E+00  0.45593999997E+02  0.45594000000E+02  0.51100000000E-03 0.  1.
         11   -1    0    0    0    0 -0.00000000000E+00 -0.00000000000E+00 -0.45593999997E+02  0.45594000000E+02  0.51100000000E-03 0. -1.
    9900012    2    1    2    0    0  0.20769012830E+02 -0.12628482568E+02  0.32593483141E+02  0.50528860693E+02  0.30000002563E+02 0.  0.
         12    1    1    2    0    0 -0.20769012830E+02  0.12628482568E+02 -0.32593483141E+02  0.40659139307E+02  0.00000000000E+00 0. -1.
         11    1    3    3    0    0  0.13755020103E+02 -0.11296628608E+02  0.17804452041E+02  0.25175641178E+02  0.51100000000E-03 0. -1.
        -11    1    3    3    0    0  0.65594047109E+00 -0.63983221944E+01  0.15896425802E+02  0.17148327567E+02  0.51100000000E-03 0.  1.
         12    1    3    3    0    0  0.63580522555E+01  0.50664682345E+01 -0.11073947024E+01  0.82048919482E+01  0.00000000000E+00 0. -1.
</event>
<event>
 7    1  0.5329250E-013  0.5052886E+02  0.7816164E-02  0.1300439E+00
        -11   -1    0    0    0    0  0.00000000000E+00  0.00000000000E+00  0.45593999997E+02  0.45594000000E+02  0.51100000000E-03 0. -1.
         11   -1    0    0    0    0 -0.00000000000E+00 -0.00000000000E+00 -0.45593999997E+02  0.45594000000E+02  0.51100000000E-03 0.  1.
    9900012    2    1    2    0    0  0.36841608710E+02 -0.13069193953E+02  0.11182925002E+02  0.50528858660E+02  0.29999996384E+02 0.  0.
         12    1    1    2    0    0 -0.36841608710E+02  0.13069193953E+02 -0.11182925002E+02  0.40659141340E+02  0.00000000000E+00 0. -1.
         11    1    3    3    0    0  0.26387730866E+02 -0.67472636520E+01  0.14619684596E+02  0.30912345188E+02  0.51100000000E-03 0. -1.
        -11    1    3    3    0    0  0.13344619084E+02 -0.18890292240E+01 -0.45184971005E+01  0.14214925474E+02  0.51100000000E-03 0.  1.
        -12    1    3    3    0    0 -0.28907412408E+01 -0.44329010767E+01  0.10817375067E+01  0.54015879989E+01  0.00000000000E+00 0.  1.
</event>
<event>
 7    1  0.5329250E-013  0.5052896E+02  0.7816164E-02  0.1300438E+00
        -11   -1    0    0    0    0  0.00000000000E+00  0.00000000000E+00  0.45593999997E+02  0.45594000000E+02  0.51100000000E-03 0.  1.
         11   -1    0    0    0    0 -0.00000000000E+00 -0.00000000000E+00 -0.45593999997E+02  0.45594000000E+02  0.51100000000E-03 0. -1.
    9900012    2    1    2    0    0 -0.94729225187E+00 -0.35374946262E+02  0.20021818859E+02  0.50528961447E+02  0.30000308813E+02 0.  0.
         12    1    1    2    0    0  0.94729225187E+00  0.35374946262E+02 -0.20021818859E+02  0.40659038553E+02  0.00000000000E+00 0. -1.
         11    1    3    3    0    0  0.20708808834E+01 -0.16308215093E+02  0.14633408580E+01  0.16504175043E+02  0.51100000000E-03 0. -1.
        -11    1    3    3    0    0 -0.93903793246E+01 -0.11209981469E+02  0.21954350818E+01  0.14787252748E+02  0.51100000000E-03 0.  1.
        -12    1    3    3    0    0  0.63722061893E+01 -0.78567497007E+01  0.16363042919E+02  0.19237533655E+02  0.00000000000E+00 0.  1.
</event>
<event>
 7    1  0.5329250E-013  0.5052886E+02  0.7816164E-02  0.1300439E+00
        -11   -1    0    0    0    0  0.00000000000E+00  0.00000000000E+00  0.45593999997E+02  0.45594000000E+02  0.51100000000E-03 0.  1.
         11   -1    0    0    0    0 -0.00000000000E+00 -0.00000000000E+00 -0.45593999997E+02  0.45594000000E+02  0.51100000000E-03 0. -1.
    9900012    2    1    2    0    0  0.11581830904E+02  0.10556017005E+01  0.38960402140E+02  0.50528855433E+02  0.29999986574E+02 0.  0.
         12    1    1    2    0    0 -0.11581830904E+02 -0.10556017005E+01 -0.38960402140E+02  0.40659144567E+02  0.00000000000E+00 0. -1.
         11    1    3    3    0    0  0.10695145407E+02  0.14161376007E+01  0.26386773238E+02  0.28507076019E+02  0.51100000000E-03 0. -1.
        -11    1    3    3    0    0  0.27857561606E+01 -0.88668060090E+01  0.74515092625E+01  0.11912416914E+02  0.51100000000E-03 0.  1.
         12    1    3    3    0    0 -0.18990706639E+01  0.85062701088E+01  0.51221196397E+01  0.10109362500E+02  0.00000000000E+00 0. -1.
</event>
<event>
 7    1  0.5462013E-013  0.5052886E+02  0.7816164E-02  0.1300439E+00
        -11   -1    0    0    0    0  0.00000000000E+00  0.00000000000E+00  0.45593999997E+02  0.45594000000E+02  0.51100000000E-03 0. -1.
         11   -1    0    0    0    0 -0.00000000000E+00 -0.00000000000E+00 -0.45593999997E+02  0.45594000000E+02  0.51100000000E-03 0.  1.
    9900012    2    1    2    0    0  0.70748470382E+01  0.14824182461E+02 -0.37193492215E+02  0.50528859461E+02  0.29999998817E+02 0.  0.
         12    1    1    2    0    0 -0.70748470382E+01 -0.14824182461E+02  0.37193492215E+02  0.40659140539E+02  0.00000000000E+00 0. -1.
         11    1    3    3    0    0  0.46413227302E+01  0.27595095364E+01  0.25618686079E+01  0.59766161490E+01  0.51100000000E-03 0. -1.
        -11    1    3    3    0    0  0.51940311508E+00 -0.38338660231E+01 -0.53446181548E+01  0.65979733071E+01  0.51100000000E-03 0.  1.
        -12    1    3    3    0    0  0.19141211929E+01  0.15898538948E+02 -0.34410742668E+02  0.37954270005E+02  0.00000000000E+00 0.  1.
</event>
<event>
 7    1  0.5329250E-013  0.5052886E+02  0.7816164E-02  0.1300439E+00
        -11   -1    0    0    0    0  0.00000000000E+00  0.00000000000E+00  0.45593999997E+02  0.45594000000E+02  0.51100000000E-03 0.  1.
         11   -1    0    0    0    0 -0.00000000000E+00 -0.00000000000E+00 -0.45593999997E+02  0.45594000000E+02  0.51100000000E-03 0. -1.
    9900012    2    1    2    0    0  0.39786512419E+02  0.48814688281E+01  0.68095757893E+01  0.50528860427E+02  0.30000001755E+02 0.  0.
         12    1    1    2    0    0 -0.39786512419E+02 -0.48814688281E+01 -0.68095757893E+01  0.40659139573E+02  0.00000000000E+00 0. -1.
         11    1    3    3    0    0  0.13537951559E+02  0.49756954469E+01  0.49712987253E+01  0.15256064004E+02  0.51100000000E-03 0.  1.
        -11    1    3    3    0    0  0.34819713251E+00  0.32301128213E+01  0.78335859447E+01  0.84805624281E+01  0.51100000000E-03 0. -1.
        -12    1    3    3    0    0  0.25900363727E+02 -0.33243394402E+01 -0.59953088807E+01  0.26792233996E+02  0.00000000000E+00 0.  1.
</event>
<event>
 7    1  0.5329250E-013  0.5052876E+02  0.7816164E-02  0.1300439E+00
        -11   -1    0    0    0    0  0.00000000000E+00  0.00000000000E+00  0.45593999997E+02  0.45594000000E+02  0.51100000000E-03 0.  1.
         11   -1    0    0    0    0 -0.00000000000E+00 -0.00000000000E+00 -0.45593999997E+02  0.45594000000E+02  0.51100000000E-03 0. -1.
    9900012    2    1    2    0    0 -0.82720482613E+01  0.14045707773E+02  0.37248696415E+02  0.50528756599E+02  0.29999686157E+02 0.  0.
         12    1    1    2    0    0  0.82720482613E+01 -0.14045707773E+02 -0.37248696415E+02  0.40659243401E+02  0.00000000000E+00 0. -1.
         11    1    3    3    0    0 -0.85188150424E+01  0.78989545687E+01 -0.14976961777E+00  0.11618352904E+02  0.51100000000E-03 0. -1.
        -11    1    3    3    0    0  0.92182460116E+00  0.95355177201E+00  0.19544517533E+00  0.13406045856E+01  0.51100000000E-03 0.  1.
        -12    1    3    3    0    0 -0.67505782009E+00  0.51932014324E+01  0.37203020858E+02  0.37569799109E+02  0.00000000000E+00 0.  1.
</event>
<event>
 7    1  0.5329250E-013  0.5052886E+02  0.7816164E-02  0.1300439E+00
        -11   -1    0    0    0    0  0.00000000000E+00  0.00000000000E+00  0.45593999997E+02  0.45594000000E+02  0.51100000000E-03 0.  1.
         11   -1    0    0    0    0 -0.00000000000E+00 -0.00000000000E+00 -0.45593999997E+02  0.45594000000E+02  0.51100000000E-03 0. -1.
    9900012    2    1    2    0    0 -0.32945281956E+02  0.35725296960E+01  0.23558674702E+02  0.50528859265E+02  0.29999998223E+02 0.  0.
         12    1    1    2    0    0  0.32945281956E+02 -0.35725296960E+01 -0.23558674702E+02  0.40659140735E+02  0.00000000000E+00 0. -1.
         11    1    3    3    0    0 -0.43427212399E+01 -0.66409947638E+01  0.88777489919E+00  0.79843712184E+01  0.51100000000E-03 0. -1.
        -11    1    3    3    0    0 -0.30313928392E+02  0.56349328713E+01  0.21275991359E+02  0.37461373861E+02  0.51100000000E-03 0.  1.
         12    1    3    3    0    0  0.17113676760E+01  0.45785915885E+01  0.13949084442E+01  0.50831141856E+01  0.00000000000E+00 0. -1.
</event>
<event>
 7    1  0.5329250E-013  0.5052886E+02  0.7816164E-02  0.1300439E+00
        -11   -1    0    0    0    0  0.00000000000E+00  0.00000000000E+00  0.45593999997E+02  0.45594000000E+02  0.51100000000E-03 0.  1.
         11   -1    0    0    0    0 -0.00000000000E+00 -0.00000000000E+00 -0.45593999997E+02  0.45594000000E+02  0.51100000000E-03 0. -1.
    9900012    2    1    2    0    0 -0.78781869572E+01  0.38545968554E+02  0.10261967015E+02  0.50528862177E+02  0.30000007074E+02 0.  0.
         12    1    1    2    0    0  0.78781869572E+01 -0.38545968554E+02 -0.10261967015E+02  0.40659137823E+02  0.00000000000E+00 0. -1.
         11    1    3    3    0    0 -0.13234215553E+02  0.19120110736E+02  0.18089086374E+01  0.23323705678E+02  0.51100000000E-03 0. -1.
        -11    1    3    3    0    0  0.21338335252E+01  0.13232282367E+02  0.13160970067E+02  0.18784506262E+02  0.51100000000E-03 0.  1.
        -12    1    3    3    0    0  0.32221950701E+01  0.61935754509E+01 -0.47079116893E+01  0.84206502367E+01  0.00000000000E+00 0.  1.
</event>
<event>
 7    1  0.5329250E-013  0.5052887E+02  0.7816164E-02  0.1300439E+00
        -11   -1    0    0    0    0  0.00000000000E+00  0.00000000000E+00  0.45593999997E+02  0.45594000000E+02  0.51100000000E-03 0. -1.
         11   -1    0    0    0    0 -0.00000000000E+00 -0.00000000000E+00 -0.45593999997E+02  0.45594000000E+02  0.51100000000E-03 0.  1.
    9900012    2    1    2    0    0 -0.14473166533E+02 -0.18757432645E+02 -0.33043174813E+02  0.50528865348E+02  0.30000016712E+02 0.  0.
         12    1    1    2    0    0  0.14473166533E+02  0.18757432645E+02  0.33043174813E+02  0.40659134652E+02  0.00000000000E+00 0. -1.
         11    1    3    3    0    0  0.52607763848E+01  0.15242527408E+01 -0.10108083854E+02  0.11496628812E+02  0.51100000000E-03 0. -1.
        -11    1    3    3    0    0  0.45540647603E+00 -0.77826166759E+01 -0.65526870331E+01  0.10184018117E+02  0.51100000000E-03 0.  1.
        -12    1    3    3    0    0 -0.20189349394E+02 -0.12499068710E+02 -0.16382403926E+02  0.28848218419E+02  0.00000000000E+00 0.  1.
</event>
<event>
 7    1  0.5329250E-013  0.5052887E+02  0.7816164E-02  0.1300439E+00
        -11   -1    0    0    0    0  0.00000000000E+00  0.00000000000E+00  0.45593999997E+02  0.45594000000E+02  0.51100000000E-03 0. -1.
         11   -1    0    0    0    0 -0.00000000000E+00 -0.00000000000E+00 -0.45593999997E+02  0.45594000000E+02  0.51100000000E-03 0.  1.
    9900012    2    1    2    0    0 -0.28750133884E+02  0.23577749321E+02 -0.16452491746E+02  0.50528868848E+02  0.30000027351E+02 0.  0.
         12    1    1    2    0    0  0.28750133884E+02 -0.23577749321E+02  0.16452491746E+02  0.40659131152E+02  0.00000000000E+00 0. -1.
         11    1    3    3    0    0 -0.82747963038E+01  0.39054738045E+01 -0.15776559950E+02  0.18238004925E+02  0.51100000000E-03 0. -1.
        -11    1    3    3    0    0  0.72784768046E+00  0.36087405099E+00  0.32446164259E+01  0.33447762764E+01  0.51100000000E-03 0.  1.
        -12    1    3    3    0    0 -0.21203185260E+02  0.19311401465E+02 -0.39205482217E+01  0.28946087647E+02  0.00000000000E+00 0.  1.
</event>
<event>
 7    1  0.5329250E-013  0.5052886E+02  0.7816164E-02  0.1300439E+00
        -11   -1    0    0    0    0  0.00000000000E+00  0.00000000000E+00  0.45593999997E+02  0.45594000000E+02  0.51100000000E-03 0. -1.
         11   -1    0    0    0    0 -0.00000000000E+00 -0.00000000000E+00 -0.45593999997E+02  0.45594000000E+02  0.51100000000E-03 0.  1.
    9900012    2    1    2    0    0 -0.31333193340E+02 -0.13433329075E+02 -0.22157218884E+02  0.50528859778E+02  0.29999999782E+02 0.  0.
         12    1    1    2    0    0  0.31333193340E+02  0.13433329075E+02  0.22157218884E+02  0.40659140222E+02  0.00000000000E+00 0. -1.
         11    1    3    3    0    0 -0.14868050576E+02 -0.15825805644E+01 -0.21418673702E+02  0.26121314527E+02  0.51100000000E-03 0. -1.
        -11    1    3    3    0    0 -0.28571237310E+01 -0.65778632891E+01 -0.55204064741E+01  0.90502115646E+01  0.51100000000E-03 0.  1.
         12    1    3    3    0    0 -0.13608019033E+02 -0.52728852211E+01  0.47818612927E+01  0.15357333687E+02  0.00000000000E+00 0. -1.
</event>
<event>
 7    1  0.5329250E-013  0.5052886E+02  0.7816164E-02  0.1300439E+00
        -11   -1    0    0    0    0  0.00000000000E+00  0.00000000000E+00  0.45593999997E+02  0.45594000000E+02  0.51100000000E-03 0. -1.
         11   -1    0    0    0    0 -0.00000000000E+00 -0.00000000000E+00 -0.45593999997E+02  0.45594000000E+02  0.51100000000E-03 0.  1.
    9900012    2    1    2    0    0  0.23648509413E+02  0.19065761203E+02 -0.27026108356E+02  0.50528858585E+02  0.29999996155E+02 0.  0.
         12    1    1    2    0    0 -0.23648509413E+02 -0.19065761203E+02  0.27026108356E+02  0.40659141415E+02  0.00000000000E+00 0. -1.
         11    1    3    3    0    0  0.32726853605E+01  0.84660913541E+01  0.22065546899E+01  0.93409879641E+01  0.51100000000E-03 0.  1.
        -11    1    3    3    0    0 -0.22464082559E+01  0.50330769496E+01 -0.37821581208E+01  0.66845294483E+01  0.51100000000E-03 0. -1.
        -12    1    3    3    0    0  0.22622232309E+02  0.55665928995E+01 -0.25450504925E+02  0.34503341173E+02  0.00000000000E+00 0.  1.
</event>
<event>
 7    1  0.5329250E-013  0.5052886E+02  0.7816164E-02  0.1300439E+00
        -11   -1    0    0    0    0  0.00000000000E+00  0.00000000000E+00  0.45593999997E+02  0.45594000000E+02  0.51100000000E-03 0.  1.
         11   -1    0    0    0    0 -0.00000000000E+00 -0.00000000000E+00 -0.45593999997E+02  0.45594000000E+02  0.51100000000E-03 0. -1.
    9900012    2    1    2    0    0  0.17974419860E+00  0.32838662538E+02  0.23974061084E+02  0.50528859943E+02  0.30000000284E+02 0.  0.
         12    1    1    2    0    0 -0.17974419860E+00 -0.32838662538E+02 -0.23974061084E+02  0.40659140057E+02  0.00000000000E+00 0. -1.
         11    1    3    3    0    0 -0.20961562403E+01  0.37363498533E+01  0.74082100324E+01  0.85577892797E+01  0.51100000000E-03 0. -1.
        -11    1    3    3    0    0  0.55760995056E+01  0.29830740275E+02  0.20622313117E+02  0.36691221696E+02  0.51100000000E-03 0.  1.
         12    1    3    3    0    0 -0.33001990667E+01 -0.72842758984E+00 -0.40564620648E+01  0.52798489672E+01  0.00000000000E+00 0. -1.
</event>
<event>
 7    1  0.5329250E-013  0.5052887E+02  0.7816164E-02  0.1300439E+00
        -11   -1    0    0    0    0  0.00000000000E+00  0.00000000000E+00  0.45593999997E+02  0.45594000000E+02  0.51100000000E-03 0.  1.
         11   -1    0    0    0    0 -0.00000000000E+00 -0.00000000000E+00 -0.45593999997E+02  0.45594000000E+02  0.51100000000E-03 0. -1.
    9900012    2    1    2    0    0 -0.19693379552E+02 -0.26694510246E+02  0.23510400641E+02  0.50528868015E+02  0.30000024819E+02 0.  0.
         12    1    1    2    0    0  0.19693379552E+02  0.26694510246E+02 -0.23510400641E+02  0.40659131985E+02  0.00000000000E+00 0. -1.
         11    1    3    3    0    0 -0.10564799518E+02 -0.21486036777E+02  0.11082035018E+02  0.26383257298E+02  0.51100000000E-03 0. -1.
        -11    1    3    3    0    0  0.33994373589E+01 -0.70430793346E+01  0.64798709085E+01  0.10156272354E+02  0.51100000000E-03 0.  1.
         12    1    3    3    0    0 -0.12528017393E+02  0.18346058659E+01  0.59484947143E+01  0.13989338363E+02  0.00000000000E+00 0. -1.
</event>
<event>
 7    1  0.5329250E-013  0.5052886E+02  0.7816164E-02  0.1300439E+00
        -11   -1    0    0    0    0  0.00000000000E+00  0.00000000000E+00  0.45593999997E+02  0.45594000000E+02  0.51100000000E-03 0.  1.
         11   -1    0    0    0    0 -0.00000000000E+00 -0.00000000000E+00 -0.45593999997E+02  0.45594000000E+02  0.51100000000E-03 0. -1.
    9900012    2    1    2    0    0 -0.42850271125E+01 -0.20370143404E+02  0.34926517325E+02  0.50528858197E+02  0.29999994977E+02 0.  0.
         12    1    1    2    0    0  0.42850271125E+01  0.20370143404E+02 -0.34926517325E+02  0.40659141803E+02  0.00000000000E+00 0. -1.
         11    1    3    3    0    0  0.75722805314E+01 -0.12073823132E+02  0.15379422916E+02  0.20967672426E+02  0.51100000000E-03 0. -1.
        -11    1    3    3    0    0 -0.35559268696E+01 -0.10036731836E+02  0.31565486646E+01  0.11106052475E+02  0.51100000000E-03 0.  1.
        -12    1    3    3    0    0 -0.83013807743E+01  0.17404115641E+01  0.16390545745E+02  0.18455133296E+02  0.00000000000E+00 0.  1.
</event>
<event>
 7    1  0.5329250E-013  0.5052886E+02  0.7816164E-02  0.1300439E+00
        -11   -1    0    0    0    0  0.00000000000E+00  0.00000000000E+00  0.45593999997E+02  0.45594000000E+02  0.51100000000E-03 0.  1.
         11   -1    0    0    0    0 -0.00000000000E+00 -0.00000000000E+00 -0.45593999997E+02  0.45594000000E+02  0.51100000000E-03 0. -1.
    9900012    2    1    2    0    0  0.31550189916E+02 -0.86409937986E+01  0.24147137571E+02  0.50528861907E+02  0.30000006254E+02 0.  0.
         12    1    1    2    0    0 -0.31550189916E+02  0.86409937986E+01 -0.24147137571E+02  0.40659138093E+02  0.00000000000E+00 0. -1.
         11    1    3    3    0    0  0.19277724213E+02 -0.71660510438E+01  0.18024008098E+02  0.27346806149E+02  0.51100000000E-03 0. -1.
        -11    1    3    3    0    0 -0.99483530027E+00  0.34250210518E+01  0.81482002847E+01  0.88945845671E+01  0.51100000000E-03 0.  1.
         12    1    3    3    0    0  0.13267301004E+02 -0.48999638066E+01 -0.20250708125E+01  0.14287471191E+02  0.00000000000E+00 0. -1.
</event>
<event>
 7    1  0.5329250E-013  0.5052887E+02  0.7816164E-02  0.1300439E+00
        -11   -1    0    0    0    0  0.00000000000E+00  0.00000000000E+00  0.45593999997E+02  0.45594000000E+02  0.51100000000E-03 0. -1.
         11   -1    0    0    0    0 -0.00000000000E+00 -0.00000000000E+00 -0.45593999997E+02  0.45594000000E+02  0.51100000000E-03 0.  1.
    9900012    2    1    2    0    0 -0.40252446310E+02 -0.19113412114E+01 -0.54085460839E+01  0.50528867817E+02  0.30000024217E+02 0.  0.
         12    1    1    2    0    0  0.40252446310E+02  0.19113412114E+01  0.54085460839E+01  0.40659132183E+02  0.00000000000E+00 0. -1.
         11    1    3    3    0    0 -0.12083191945E+02  0.30350520856E+01 -0.91288813119E+01  0.15445113888E+02  0.51100000000E-03 0. -1.
        -11    1    3    3    0    0 -0.96146004430E+00  0.43453030878E+01 -0.32372096569E+01  0.55032345912E+01  0.51100000000E-03 0.  1.
        -12    1    3    3    0    0 -0.27207794320E+02 -0.92916963847E+01  0.69575448850E+01  0.29580519338E+02  0.00000000000E+00 0.  1.
</event>
<event>
 7    1  0.5966096E-013  0.5052886E+02  0.7816164E-02  0.1300439E+00
        -11   -1    0    0    0    0  0.00000000000E+00  0.00000000000E+00  0.45593999997E+02  0.45594000000E+02  0.51100000000E-03 0.  1.
         11   -1    0    0    0    0 -0.00000000000E+00 -0.00000000000E+00 -0.45593999997E+02  0.45594000000E+02  0.51100000000E-03 0. -1.
    9900012    2    1    2    0    0 -0.15775870738E+02  0.37206115983E+02  0.44712813666E+01  0.50528861775E+02  0.30000005852E+02 0.  0.
         12    1    1    2    0    0  0.15775870738E+02 -0.37206115983E+02 -0.44712813666E+01  0.40659138225E+02  0.00000000000E+00 0. -1.
         11    1    3    3    0    0 -0.14188938609E+01  0.59338365879E+01 -0.80909814139E+01  0.10133491843E+02  0.51100000000E-03 0. -1.
        -11    1    3    3    0    0 -0.10720505460E+02  0.81031262378E+01 -0.69237354386E+00  0.13456198332E+02  0.51100000000E-03 0.  1.
        -12    1    3    3    0    0 -0.36364714165E+01  0.23169153158E+02  0.13254636324E+02  0.26939171600E+02  0.00000000000E+00 0.  1.
</event>
<event>
 7    1  0.5329250E-013  0.5052887E+02  0.7816164E-02  0.1300439E+00
        -11   -1    0    0    0    0  0.00000000000E+00  0.00000000000E+00  0.45593999997E+02  0.45594000000E+02  0.51100000000E-03 0.  1.
         11   -1    0    0    0    0 -0.00000000000E+00 -0.00000000000E+00 -0.45593999997E+02  0.45594000000E+02  0.51100000000E-03 0. -1.
    9900012    2    1    2    0    0  0.65460695237E+01 -0.94625712719E+01  0.38997099814E+02  0.50528867260E+02  0.30000022522E+02 0.  0.
         12    1    1    2    0    0 -0.65460695237E+01  0.94625712719E+01 -0.38997099814E+02  0.40659132740E+02  0.00000000000E+00 0. -1.
         11    1    3    3    0    0  0.10570166176E+02 -0.12260452606E+02  0.18402630250E+02  0.24509261749E+02  0.51100000000E-03 0. -1.
        -11    1    3    3    0    0 -0.34468630333E+01 -0.59943279412E+01  0.71630621199E+01  0.99560178501E+01  0.51100000000E-03 0.  1.
        -12    1    3    3    0    0 -0.57723361861E+00  0.87922092757E+01  0.13431407444E+02  0.16063587660E+02  0.00000000000E+00 0.  1.
</event>
<event>
 7    1  0.5329250E-013  0.5052886E+02  0.7816164E-02  0.1300439E+00
        -11   -1    0    0    0    0  0.00000000000E+00  0.00000000000E+00  0.45593999997E+02  0.45594000000E+02  0.51100000000E-03 0.  1.
         11   -1    0    0    0    0 -0.00000000000E+00 -0.00000000000E+00 -0.45593999997E+02  0.45594000000E+02  0.51100000000E-03 0. -1.
    9900012    2    1    2    0    0  0.33679177561E+02 -0.19204207658E+02  0.12250581525E+02  0.50528863996E+02  0.30000012602E+02 0.  0.
         12    1    1    2    0    0 -0.33679177561E+02  0.19204207658E+02 -0.12250581525E+02  0.40659136004E+02  0.00000000000E+00 0. -1.
         11    1    3    3    0    0 -0.38571204621E+00 -0.15745329451E+01 -0.11587698300E-01  0.16211299497E+01  0.51100000000E-03 0. -1.
        -11    1    3    3    0    0  0.49455163642E+01 -0.16390067143E+02  0.96320827456E+01  0.19643560047E+02  0.51100000000E-03 0.  1.
        -12    1    3    3    0    0  0.29119373242E+02 -0.12396075697E+01  0.26300864773E+01  0.29264173999E+02  0.00000000000E+00 0.  1.
</event>
<event>
 7    1  0.5329250E-013  0.5052886E+02  0.7816164E-02  0.1300439E+00
        -11   -1    0    0    0    0  0.00000000000E+00  0.00000000000E+00  0.45593999997E+02  0.45594000000E+02  0.51100000000E-03 0. -1.
         11   -1    0    0    0    0 -0.00000000000E+00 -0.00000000000E+00 -0.45593999997E+02  0.45594000000E+02  0.51100000000E-03 0.  1.
    9900012    2    1    2    0    0 -0.18968099569E+02  0.35827544133E+02 -0.31246688501E+01  0.50528864799E+02  0.30000015042E+02 0.  0.
         12    1    1    2    0    0  0.18968099569E+02 -0.35827544133E+02  0.31246688501E+01  0.40659135201E+02  0.00000000000E+00 0. -1.
         11    1    3    3    0    0  0.34306040414E+01  0.84181359672E+01  0.47504528094E+01  0.10256747019E+02  0.51100000000E-03 0. -1.
        -11    1    3    3    0    0 -0.12262860888E+02  0.25898248196E+02 -0.26722334630E+01  0.28779121750E+02  0.51100000000E-03 0.  1.
        -12    1    3    3    0    0 -0.10135842722E+02  0.15111599703E+01 -0.52028881966E+01  0.11492996029E+02  0.00000000000E+00 0.  1.
</event>
<event>
 7    1  0.5329250E-013  0.5052888E+02  0.7816164E-02  0.1300439E+00
        -11   -1    0    0    0    0  0.00000000000E+00  0.00000000000E+00  0.45593999997E+02  0.45594000000E+02  0.51100000000E-03 0.  1.
         11   -1    0    0    0    0 -0.00000000000E+00 -0.00000000000E+00 -0.45593999997E+02  0.45594000000E+02  0.51100000000E-03 0. -1.
    9900012    2    1    2    0    0 -0.30938737569E+02  0.96349689073E+01  0.24558621697E+02  0.50528880385E+02  0.30000062417E+02 0.  0.
         12    1    1    2    0    0  0.30938737569E+02 -0.96349689073E+01 -0.24558621697E+02  0.40659119615E+02  0.00000000000E+00 0. -1.
         11    1    3    3    0    0 -0.32593904896E+01  0.39791718467E+01  0.75906167674E+01  0.91692365069E+01  0.51100000000E-03 0. -1.
        -11    1    3    3    0    0 -0.19168327567E+01  0.89386477052E+01 -0.17996807789E+01  0.93173237457E+01  0.51100000000E-03 0.  1.
         12    1    3    3    0    0 -0.25762514323E+02 -0.32828506446E+01  0.18767685709E+02  0.32042320132E+02  0.00000000000E+00 0. -1.
</event>
<event>
 7    1  0.5329250E-013  0.5052885E+02  0.7816164E-02  0.1300439E+00
        -11   -1    0    0    0    0  0.00000000000E+00  0.00000000000E+00  0.45593999997E+02  0.45594000000E+02  0.51100000000E-03 0. -1.
         11   -1    0    0    0    0 -0.00000000000E+00 -0.00000000000E+00 -0.45593999997E+02  0.45594000000E+02  0.51100000000E-03 0.  1.
    9900012    2    1    2    0    0 -0.28265113884E+02  0.23684245871E+02 -0.17126184348E+02  0.50528851513E+02  0.29999974660E+02 0.  0.
         12    1    1    2    0    0  0.28265113884E+02 -0.23684245871E+02  0.17126184348E+02  0.40659148487E+02  0.00000000000E+00 0. -1.
         11    1    3    3    0    0 -0.99236490619E+00  0.73646499578E+01 -0.39462693250E+01  0.84140298879E+01  0.51100000000E-03 0. -1.
        -11    1    3    3    0    0 -0.26422938955E+00  0.13936805559E+01  0.57435968214E+01  0.59161699916E+01  0.51100000000E-03 0.  1.
        -12    1    3    3    0    0 -0.27008519588E+02  0.14925915358E+02 -0.18923511844E+02  0.36198651634E+02  0.00000000000E+00 0.  1.
</event>
<event>
 7    1  0.5329250E-013  0.5052886E+02  0.7816164E-02  0.1300439E+00
        -11   -1    0    0    0    0  0.00000000000E+00  0.00000000000E+00  0.45593999997E+02  0.45594000000E+02  0.51100000000E-03 0.  1.
         11   -1    0    0    0    0 -0.00000000000E+00 -0.00000000000E+00 -0.45593999997E+02  0.45594000000E+02  0.51100000000E-03 0. -1.
    9900012    2    1    2    0    0  0.16814751262E+02  0.22596708265E+02  0.29322664599E+02  0.50528859040E+02  0.29999997538E+02 0.  0.
         12    1    1    2    0    0 -0.16814751262E+02 -0.22596708265E+02 -0.29322664599E+02  0.40659140960E+02  0.00000000000E+00 0. -1.
         11    1    3    3    0    0  0.26154289216E+01 -0.13320656645E+01  0.61749904159E+01  0.68370588908E+01  0.51100000000E-03 0. -1.
        -11    1    3    3    0    0  0.20684023423E+02  0.18243101569E+02  0.21360613709E+02  0.34884314500E+02  0.51100000000E-03 0.  1.
        -12    1    3    3    0    0 -0.64847010826E+01  0.56856723613E+01  0.17870604736E+01  0.88074856495E+01  0.00000000000E+00 0.  1.
</event>
<event>
 7    1  0.5329250E-013  0.5052884E+02  0.7816164E-02  0.1300439E+00
        -11   -1    0    0    0    0  0.00000000000E+00  0.00000000000E+00  0.45593999997E+02  0.45594000000E+02  0.51100000000E-03 0. -1.
         11   -1    0    0    0    0 -0.00000000000E+00 -0.00000000000E+00 -0.45593999997E+02  0.45594000000E+02  0.51100000000E-03 0.  1.
    9900012    2    1    2    0    0 -0.23524056819E+02 -0.32833822553E+02 -0.46611638049E+01  0.50528836203E+02  0.29999928123E+02 0.  0.
         12    1    1    2    0    0  0.23524056819E+02  0.32833822553E+02  0.46611638049E+01  0.40659163797E+02  0.00000000000E+00 0. -1.
         11    1    3    3    0    0 -0.34350292151E+01 -0.50707781539E+01 -0.91895906824E+01  0.11043586101E+02  0.51100000000E-03 0. -1.
        -11    1    3    3    0    0 -0.10372502414E+02 -0.26086039123E+02 -0.11698283700E+01  0.28096952542E+02  0.51100000000E-03 0.  1.
         12    1    3    3    0    0 -0.97165251897E+01 -0.16770052755E+01  0.56982552475E+01  0.11388297560E+02  0.00000000000E+00 0. -1.
</event>
<event>
 7    1  0.5329250E-013  0.5052887E+02  0.7816164E-02  0.1300439E+00
        -11   -1    0    0    0    0  0.00000000000E+00  0.00000000000E+00  0.45593999997E+02  0.45594000000E+02  0.51100000000E-03 0. -1.
         11   -1    0    0    0    0 -0.00000000000E+00 -0.00000000000E+00 -0.45593999997E+02  0.45594000000E+02  0.51100000000E-03 0.  1.
    9900012    2    1    2    0    0 -0.38145565506E+02  0.13768858594E+02  0.29153872048E+01  0.50528866742E+02  0.30000020949E+02 0.  0.
         12    1    1    2    0    0  0.38145565506E+02 -0.13768858594E+02 -0.29153872048E+01  0.40659133258E+02  0.00000000000E+00 0. -1.
         11    1    3    3    0    0 -0.16151988762E+01  0.80690125567E+01  0.24601015245E+01  0.85889423576E+01  0.51100000000E-03 0. -1.
        -11    1    3    3    0    0 -0.15224860212E+02  0.24448346585E+01 -0.95925400659E+01  0.18160132438E+02  0.51100000000E-03 0.  1.
         12    1    3    3    0    0 -0.21305506417E+02  0.32550113783E+01  0.10047825746E+02  0.23779791946E+02  0.00000000000E+00 0. -1.
</event>
<event>
 7    1  0.5329250E-013  0.5052886E+02  0.7816164E-02  0.1300439E+00
        -11   -1    0    0    0    0  0.00000000000E+00  0.00000000000E+00  0.45593999997E+02  0.45594000000E+02  0.51100000000E-03 0.  1.
         11   -1    0    0    0    0 -0.00000000000E+00 -0.00000000000E+00 -0.45593999997E+02  0.45594000000E+02  0.51100000000E-03 0. -1.
    9900012    2    1    2    0    0 -0.37980609213E+02 -0.13479234429E+02  0.53804490203E+01  0.50528859962E+02  0.30000000340E+02 0.  0.
         12    1    1    2    0    0  0.37980609213E+02  0.13479234429E+02 -0.53804490203E+01  0.40659140038E+02  0.00000000000E+00 0. -1.
         11    1    3    3    0    0 -0.31688843918E+02 -0.49398927760E+01  0.61084434599E+01  0.32648100270E+02  0.51100000000E-03 0. -1.
        -11    1    3    3    0    0 -0.92685914956E+01 -0.78084430151E+01  0.35402952404E+01  0.12625856853E+02  0.51100000000E-03 0.  1.
         12    1    3    3    0    0  0.29768262006E+01 -0.73089863803E+00 -0.42682896800E+01  0.52549028383E+01  0.00000000000E+00 0. -1.
</event>
<event>
 7    1  0.5329250E-013  0.5052886E+02  0.7816164E-02  0.1300439E+00
        -11   -1    0    0    0    0  0.00000000000E+00  0.00000000000E+00  0.45593999997E+02  0.45594000000E+02  0.51100000000E-03 0. -1.
         11   -1    0    0    0    0 -0.00000000000E+00 -0.00000000000E+00 -0.45593999997E+02  0.45594000000E+02  0.51100000000E-03 0.  1.
    9900012    2    1    2    0    0  0.29960130223E+02 -0.58569343595E+01 -0.26856149554E+02  0.50528857708E+02  0.29999993488E+02 0.  0.
         12    1    1    2    0    0 -0.29960130223E+02  0.58569343595E+01  0.26856149554E+02  0.40659142292E+02  0.00000000000E+00 0. -1.
         11    1    3    3    0    0  0.58948882328E+01 -0.19219653542E+01  0.99206429308E+00  0.62791599695E+01  0.51100000000E-03 0. -1.
        -11    1    3    3    0    0  0.28676646342E+02 -0.58945663130E+01 -0.24921364496E+02  0.38446981235E+02  0.51100000000E-03 0.  1.
         12    1    3    3    0    0 -0.46114043514E+01  0.19595973077E+01 -0.29268493506E+01  0.58027165036E+01  0.00000000000E+00 0. -1.
</event>
<event>
 7    1  0.5329250E-013  0.5052886E+02  0.7816164E-02  0.1300439E+00
        -11   -1    0    0    0    0  0.00000000000E+00  0.00000000000E+00  0.45593999997E+02  0.45594000000E+02  0.51100000000E-03 0. -1.
         11   -1    0    0    0    0 -0.00000000000E+00 -0.00000000000E+00 -0.45593999997E+02  0.45594000000E+02  0.51100000000E-03 0.  1.
    9900012    2    1    2    0    0 -0.18426342901E+01 -0.14641706153E+02 -0.37886551823E+02  0.50528859954E+02  0.30000000317E+02 0.  0.
         12    1    1    2    0    0  0.18426342901E+01  0.14641706153E+02  0.37886551823E+02  0.40659140046E+02  0.00000000000E+00 0. -1.
         11    1    3    3    0    0  0.47883063146E+01 -0.57813840155E+00  0.20171208754E+01  0.52278961601E+01  0.51100000000E-03 0. -1.
        -11    1    3    3    0    0  0.36858603313E+01 -0.24589068076E+01 -0.17433389452E+02  0.17987630670E+02  0.51100000000E-03 0.  1.
         12    1    3    3    0    0 -0.10316800936E+02 -0.11604660944E+02 -0.22470283247E+02  0.27313333124E+02  0.00000000000E+00 0. -1.
</event>
<event>
 7    1  0.5329250E-013  0.5052887E+02  0.7816164E-02  0.1300439E+00
        -11   -1    0    0    0    0  0.00000000000E+00  0.00000000000E+00  0.45593999997E+02  0.45594000000E+02  0.51100000000E-03 0. -1.
         11   -1    0    0    0    0 -0.00000000000E+00 -0.00000000000E+00 -0.45593999997E+02  0.45594000000E+02  0.51100000000E-03 0.  1.
    9900012    2    1    2    0    0 -0.17830628442E+02 -0.36522842194E+02  0.11468466399E+01  0.50528873475E+02  0.30000041413E+02 0.  0.
         12    1    1    2    0    0  0.17830628442E+02  0.36522842194E+02 -0.11468466399E+01  0.40659126525E+02  0.00000000000E+00 0. -1.
         11    1    3    3    0    0  0.18050604926E+01 -0.18346031142E+02 -0.22070332194E+01  0.18566262357E+02  0.51100000000E-03 0. -1.
        -11    1    3    3    0    0 -0.31839696632E+01 -0.12559083018E+02 -0.32639043459E+01  0.13361186359E+02  0.51100000000E-03 0.  1.
         12    1    3    3    0    0 -0.16451719271E+02 -0.56177280346E+01  0.66177842052E+01  0.18601424758E+02  0.00000000000E+00 0. -1.
</event>
<event>
 7    1  0.5329250E-013  0.5052886E+02  0.7816164E-02  0.1300439E+00
        -11   -1    0    0    0    0  0.00000000000E+00  0.00000000000E+00  0.45593999997E+02  0.45594000000E+02  0.51100000000E-03 0.  1.
         11   -1    0    0    0    0 -0.00000000000E+00 -0.00000000000E+00 -0.45593999997E+02  0.45594000000E+02  0.51100000000E-03 0. -1.
    9900012    2    1    2    0    0 -0.12580774948E+01 -0.25236842078E+02  0.31854118808E+02  0.50528857829E+02  0.29999993856E+02 0.  0.
         12    1    1    2    0    0  0.12580774948E+01  0.25236842078E+02 -0.31854118808E+02  0.40659142171E+02  0.00000000000E+00 0. -1.
         11    1    3    3    0    0  0.62769430784E+00 -0.67810088546E+01  0.19283485523E+02  0.20450645355E+02  0.51100000000E-03 0.  1.
        -11    1    3    3    0    0 -0.59788214264E+01  0.12902947548E+01  0.67069463292E+01  0.90771303575E+01  0.51100000000E-03 0. -1.
         12    1    3    3    0    0  0.40930496238E+01 -0.19746127978E+02  0.58636869555E+01  0.21001082117E+02  0.00000000000E+00 0. -1.
</event>
<event>
 7    1  0.5329250E-013  0.5052886E+02  0.7816164E-02  0.1300439E+00
        -11   -1    0    0    0    0  0.00000000000E+00  0.00000000000E+00  0.45593999997E+02  0.45594000000E+02  0.51100000000E-03 0.  1.
         11   -1    0    0    0    0 -0.00000000000E+00 -0.00000000000E+00 -0.45593999997E+02  0.45594000000E+02  0.51100000000E-03 0. -1.
    9900012    2    1    2    0    0 -0.10459640260E+02 -0.33357434182E+01  0.39148877946E+02  0.50528857080E+02  0.29999991581E+02 0.  0.
         12    1    1    2    0    0  0.10459640260E+02  0.33357434182E+01 -0.39148877946E+02  0.40659142920E+02  0.00000000000E+00 0. -1.
         11    1    3    3    0    0  0.15568269640E+01 -0.18316012266E+01 -0.22057193692E+01  0.32624640145E+01  0.51100000000E-03 0. -1.
        -11    1    3    3    0    0  0.40718846978E+01 -0.35015570014E+01  0.18374809679E+02  0.19143530955E+02  0.51100000000E-03 0.  1.
         12    1    3    3    0    0 -0.16088351922E+02  0.19974148098E+01  0.22979787636E+02  0.28122862111E+02  0.00000000000E+00 0. -1.
</event>
<event>
 7    1  0.5329250E-013  0.5052886E+02  0.7816164E-02  0.1300439E+00
        -11   -1    0    0    0    0  0.00000000000E+00  0.00000000000E+00  0.45593999997E+02  0.45594000000E+02  0.51100000000E-03 0.  1.
         11   -1    0    0    0    0 -0.00000000000E+00 -0.00000000000E+00 -0.45593999997E+02  0.45594000000E+02  0.51100000000E-03 0. -1.
    9900012    2    1    2    0    0 -0.30467824033E+02 -0.25723339596E+02  0.79490506006E+01  0.50528857034E+02  0.29999991441E+02 0.  0.
         12    1    1    2    0    0  0.30467824033E+02  0.25723339596E+02 -0.79490506006E+01  0.40659142966E+02  0.00000000000E+00 0. -1.
         11    1    3    3    0    0 -0.46290649589E+01 -0.12432484002E+02  0.22364624665E+01  0.13453500120E+02  0.51100000000E-03 0. -1.
        -11    1    3    3    0    0 -0.12310479324E+02 -0.35897001744E+01  0.13567215784E+02  0.18668240220E+02  0.51100000000E-03 0.  1.
         12    1    3    3    0    0 -0.13528279750E+02 -0.97011554196E+01 -0.78546276500E+01  0.18407116694E+02  0.00000000000E+00 0. -1.
</event>
<event>
 7    1  0.5329250E-013  0.5052886E+02  0.7816164E-02  0.1300439E+00
        -11   -1    0    0    0    0  0.00000000000E+00  0.00000000000E+00  0.45593999997E+02  0.45594000000E+02  0.51100000000E-03 0.  1.
         11   -1    0    0    0    0 -0.00000000000E+00 -0.00000000000E+00 -0.45593999997E+02  0.45594000000E+02  0.51100000000E-03 0. -1.
    9900012    2    1    2    0    0  0.17560651710E+02  0.31096816730E+02  0.19436488502E+02  0.50528860997E+02  0.30000003487E+02 0.  0.
         12    1    1    2    0    0 -0.17560651710E+02 -0.31096816730E+02 -0.19436488502E+02  0.40659139003E+02  0.00000000000E+00 0. -1.
         11    1    3    3    0    0  0.36715758549E+01  0.14137511751E+02 -0.28787968347E+01  0.14887483980E+02  0.51100000000E-03 0. -1.
        -11    1    3    3    0    0  0.82848666793E+01  0.17530228971E+02  0.93932782915E+01  0.21544874588E+02  0.51100000000E-03 0.  1.
         12    1    3    3    0    0  0.56042091756E+01 -0.57092399237E+00  0.12922007045E+02  0.14096502430E+02  0.00000000000E+00 0. -1.
</event>
<event>
 7    1  0.5329250E-013  0.5052882E+02  0.7816164E-02  0.1300439E+00
        -11   -1    0    0    0    0  0.00000000000E+00  0.00000000000E+00  0.45593999997E+02  0.45594000000E+02  0.51100000000E-03 0.  1.
         11   -1    0    0    0    0 -0.00000000000E+00 -0.00000000000E+00 -0.45593999997E+02  0.45594000000E+02  0.51100000000E-03 0. -1.
    9900012    2    1    2    0    0  0.29760490351E+02 -0.20128553879E+02  0.19034787684E+02  0.50528823799E+02  0.29999890418E+02 0.  0.
         12    1    1    2    0    0 -0.29760490351E+02  0.20128553879E+02 -0.19034787684E+02  0.40659176201E+02  0.00000000000E+00 0. -1.
         11    1    3    3    0    0 -0.47044378039E+01 -0.19426804165E+01  0.57802348483E+01  0.77017437905E+01  0.51100000000E-03 0. -1.
        -11    1    3    3    0    0  0.12355048548E+02 -0.21227806937E+01  0.83477605116E+01  0.15061159594E+02  0.51100000000E-03 0.  1.
        -12    1    3    3    0    0  0.22109879607E+02 -0.16063092769E+02  0.49067923245E+01  0.27765920414E+02  0.00000000000E+00 0.  1.
</event>
<event>
 7    1  0.5329250E-013  0.5052887E+02  0.7816164E-02  0.1300439E+00
        -11   -1    0    0    0    0  0.00000000000E+00  0.00000000000E+00  0.45593999997E+02  0.45594000000E+02  0.51100000000E-03 0. -1.
         11   -1    0    0    0    0 -0.00000000000E+00 -0.00000000000E+00 -0.45593999997E+02  0.45594000000E+02  0.51100000000E-03 0.  1.
    9900012    2    1    2    0    0  0.28719624850E+02  0.28745900716E+02  0.14215551841E+01  0.50528874596E+02  0.30000044822E+02 0.  0.
         12    1    1    2    0    0 -0.28719624850E+02 -0.28745900716E+02 -0.14215551841E+01  0.40659125404E+02  0.00000000000E+00 0. -1.
         11    1    3    3    0    0  0.56038753668E+01  0.91787750759E+01  0.48570087728E+01  0.11800163791E+02  0.51100000000E-03 0. -1.
        -11    1    3    3    0    0 -0.35233254716E+01 -0.34413662640E+00  0.32496066254E+01  0.48054339947E+01  0.51100000000E-03 0.  1.
        -12    1    3    3    0    0  0.26639074955E+02  0.19911262266E+02 -0.66850602141E+01  0.33923276810E+02  0.00000000000E+00 0.  1.
</event>
<event>
 7    1  0.5329250E-013  0.5052899E+02  0.7816164E-02  0.1300438E+00
        -11   -1    0    0    0    0  0.00000000000E+00  0.00000000000E+00  0.45593999997E+02  0.45594000000E+02  0.51100000000E-03 0.  1.
         11   -1    0    0    0    0 -0.00000000000E+00 -0.00000000000E+00 -0.45593999997E+02  0.45594000000E+02  0.51100000000E-03 0. -1.
    9900012    2    1    2    0    0 -0.15200140705E+02 -0.42772139182E+01  0.37467540850E+02  0.50528985579E+02  0.30000382162E+02 0.  0.
         12    1    1    2    0    0  0.15200140705E+02  0.42772139182E+01 -0.37467540850E+02  0.40659014421E+02  0.00000000000E+00 0. -1.
         11    1    3    3    0    0 -0.13145890619E+02 -0.42709480967E+01  0.86281128981E+01  0.16294163687E+02  0.51100000000E-03 0. -1.
        -11    1    3    3    0    0 -0.74522591453E+01  0.35734103290E+00  0.33515171784E+01  0.81790296882E+01  0.51100000000E-03 0.  1.
         12    1    3    3    0    0  0.53980090589E+01 -0.36360685434E+00  0.25487910774E+02  0.26055792203E+02  0.00000000000E+00 0. -1.
</event>
<event>
 7    1  0.5329250E-013  0.5052883E+02  0.7816164E-02  0.1300439E+00
        -11   -1    0    0    0    0  0.00000000000E+00  0.00000000000E+00  0.45593999997E+02  0.45594000000E+02  0.51100000000E-03 0.  1.
         11   -1    0    0    0    0 -0.00000000000E+00 -0.00000000000E+00 -0.45593999997E+02  0.45594000000E+02  0.51100000000E-03 0. -1.
    9900012    2    1    2    0    0  0.39084129105E+02  0.79241419450E+01 -0.79250643996E+01  0.50528833515E+02  0.29999919953E+02 0.  0.
         12    1    1    2    0    0 -0.39084129105E+02 -0.79241419450E+01  0.79250643996E+01  0.40659166485E+02  0.00000000000E+00 0. -1.
         11    1    3    3    0    0  0.36289768351E+01  0.45894629433E+01 -0.58176984593E+01  0.82509550115E+01  0.51100000000E-03 0. -1.
        -11    1    3    3    0    0  0.28921530079E+02  0.68203159816E+01 -0.10097713586E+02  0.31383680984E+02  0.51100000000E-03 0.  1.
         12    1    3    3    0    0  0.65336221916E+01 -0.34856369799E+01  0.79903476460E+01  0.10894197520E+02  0.00000000000E+00 0. -1.
</event>
<event>
 7    1  0.5329250E-013  0.5052879E+02  0.7816164E-02  0.1300439E+00
        -11   -1    0    0    0    0  0.00000000000E+00  0.00000000000E+00  0.45593999997E+02  0.45594000000E+02  0.51100000000E-03 0. -1.
         11   -1    0    0    0    0 -0.00000000000E+00 -0.00000000000E+00 -0.45593999997E+02  0.45594000000E+02  0.51100000000E-03 0.  1.
    9900012    2    1    2    0    0  0.32308089447E+02  0.24565864445E+02  0.24241834926E+01  0.50528794336E+02  0.29999800862E+02 0.  0.
         12    1    1    2    0    0 -0.32308089447E+02 -0.24565864445E+02 -0.24241834926E+01  0.40659205664E+02  0.00000000000E+00 0. -1.
         11    1    3    3    0    0  0.10740688841E+02  0.61701902311E+01 -0.87133162041E+01  0.15144488232E+02  0.51100000000E-03 0. -1.
        -11    1    3    3    0    0  0.85899789677E+01 -0.25357607991E+01  0.31105736187E+01  0.94812177484E+01  0.51100000000E-03 0.  1.
         12    1    3    3    0    0  0.12977421638E+02  0.20931435013E+02  0.80269260780E+01  0.25903088355E+02  0.00000000000E+00 0. -1.
</event>
<event>
 7    1  0.5329250E-013  0.5052889E+02  0.7816164E-02  0.1300439E+00
        -11   -1    0    0    0    0  0.00000000000E+00  0.00000000000E+00  0.45593999997E+02  0.45594000000E+02  0.51100000000E-03 0.  1.
         11   -1    0    0    0    0 -0.00000000000E+00 -0.00000000000E+00 -0.45593999997E+02  0.45594000000E+02  0.51100000000E-03 0. -1.
    9900012    2    1    2    0    0 -0.19411155590E+01  0.53777909078E+01  0.40255116082E+02  0.50528893573E+02  0.30000102504E+02 0.  0.
         12    1    1    2    0    0  0.19411155590E+01 -0.53777909078E+01 -0.40255116082E+02  0.40659106427E+02  0.00000000000E+00 0. -1.
         11    1    3    3    0    0 -0.61236989758E+01  0.10752313440E+02  0.71620825378E+01  0.14297110198E+02  0.51100000000E-03 0. -1.
        -11    1    3    3    0    0  0.38751849957E+01  0.29605045673E+01  0.52463264522E+01  0.71627918823E+01  0.51100000000E-03 0.  1.
         12    1    3    3    0    0  0.30739842114E+00 -0.83350270999E+01  0.27846707092E+02  0.29068991493E+02  0.00000000000E+00 0. -1.
</event>
<event>
 7    1  0.5329250E-013  0.5052886E+02  0.7816164E-02  0.1300439E+00
        -11   -1    0    0    0    0  0.00000000000E+00  0.00000000000E+00  0.45593999997E+02  0.45594000000E+02  0.51100000000E-03 0. -1.
         11   -1    0    0    0    0 -0.00000000000E+00 -0.00000000000E+00 -0.45593999997E+02  0.45594000000E+02  0.51100000000E-03 0.  1.
    9900012    2    1    2    0    0  0.16583706453E+02  0.34028785233E+02 -0.14838749891E+02  0.50528855365E+02  0.29999986367E+02 0.  0.
         12    1    1    2    0    0 -0.16583706453E+02 -0.34028785233E+02  0.14838749891E+02  0.40659144635E+02  0.00000000000E+00 0. -1.
         11    1    3    3    0    0  0.95362052415E+01  0.58951436247E+01 -0.81780114543E+01  0.13877024190E+02  0.51100000000E-03 0. -1.
        -11    1    3    3    0    0  0.80045909718E+01  0.21535882583E+01  0.31458065756E+01  0.88660881049E+01  0.51100000000E-03 0.  1.
         12    1    3    3    0    0 -0.95708976004E+00  0.25980053350E+02 -0.98065450122E+01  0.27785743070E+02  0.00000000000E+00 0. -1.
</event>
<event>
 7    1  0.5329250E-013  0.5052884E+02  0.7816164E-02  0.1300439E+00
        -11   -1    0    0    0    0  0.00000000000E+00  0.00000000000E+00  0.45593999997E+02  0.45594000000E+02  0.51100000000E-03 0.  1.
         11   -1    0    0    0    0 -0.00000000000E+00 -0.00000000000E+00 -0.45593999997E+02  0.45594000000E+02  0.51100000000E-03 0. -1.
    9900012    2    1    2    0    0 -0.95590292610E+01 -0.10124630521E+02  0.38200577170E+02  0.50528840150E+02  0.29999940120E+02 0.  0.
         12    1    1    2    0    0  0.95590292610E+01  0.10124630521E+02 -0.38200577170E+02  0.40659159850E+02  0.00000000000E+00 0. -1.
         11    1    3    3    0    0 -0.23944399540E+00  0.75506661837E+01  0.43326677401E+01  0.87087256962E+01  0.51100000000E-03 0. -1.
        -11    1    3    3    0    0 -0.42023080108E+01 -0.42267933161E+01  0.11395308500E+01  0.60682538818E+01  0.51100000000E-03 0.  1.
        -12    1    3    3    0    0 -0.51172772548E+01 -0.13448503388E+02  0.32728378580E+02  0.35751860572E+02  0.00000000000E+00 0.  1.
</event>
<event>
 7    1  0.5329250E-013  0.5052887E+02  0.7816164E-02  0.1300439E+00
        -11   -1    0    0    0    0  0.00000000000E+00  0.00000000000E+00  0.45593999997E+02  0.45594000000E+02  0.51100000000E-03 0. -1.
         11   -1    0    0    0    0 -0.00000000000E+00 -0.00000000000E+00 -0.45593999997E+02  0.45594000000E+02  0.51100000000E-03 0.  1.
    9900012    2    1    2    0    0 -0.29661965532E+02 -0.94376186719E+01  0.26158447563E+02  0.50528865426E+02  0.30000016949E+02 0.  0.
         12    1    1    2    0    0  0.29661965532E+02  0.94376186719E+01 -0.26158447563E+02  0.40659134574E+02  0.00000000000E+00 0. -1.
         11    1    3    3    0    0 -0.14851425491E+02 -0.23547646023E+01  0.40403836527E+01  0.15570306861E+02  0.51100000000E-03 0.  1.
        -11    1    3    3    0    0 -0.45296723209E+01 -0.88671874864E+01 -0.58298676403E+00  0.99742076919E+01  0.51100000000E-03 0. -1.
        -12    1    3    3    0    0 -0.10280867720E+02  0.17843334168E+01  0.22701050674E+02  0.24984350873E+02  0.00000000000E+00 0.  1.
</event>
<event>
 7    1  0.5329250E-013  0.5052883E+02  0.7816164E-02  0.1300439E+00
        -11   -1    0    0    0    0  0.00000000000E+00  0.00000000000E+00  0.45593999997E+02  0.45594000000E+02  0.51100000000E-03 0.  1.
         11   -1    0    0    0    0 -0.00000000000E+00 -0.00000000000E+00 -0.45593999997E+02  0.45594000000E+02  0.51100000000E-03 0. -1.
    9900012    2    1    2    0    0 -0.39381380121E+02 -0.89016929068E+01 -0.47994638237E+01  0.50528830187E+02  0.29999909837E+02 0.  0.
         12    1    1    2    0    0  0.39381380121E+02  0.89016929068E+01  0.47994638237E+01  0.40659169813E+02  0.00000000000E+00 0. -1.
         11    1    3    3    0    0 -0.14059568595E+02 -0.14324426716E+02 -0.10030989693E+02  0.22438391749E+02  0.51100000000E-03 0. -1.
        -11    1    3    3    0    0 -0.15721818654E+02  0.57497350285E+01 -0.78078147773E+00  0.16758420411E+02  0.51100000000E-03 0.  1.
        -12    1    3    3    0    0 -0.95999928717E+01 -0.32700121953E+00  0.60123073466E+01  0.11332018027E+02  0.00000000000E+00 0.  1.
</event>
<event>
 7    1  0.5329250E-013  0.5052887E+02  0.7816164E-02  0.1300439E+00
        -11   -1    0    0    0    0  0.00000000000E+00  0.00000000000E+00  0.45593999997E+02  0.45594000000E+02  0.51100000000E-03 0.  1.
         11   -1    0    0    0    0 -0.00000000000E+00 -0.00000000000E+00 -0.45593999997E+02  0.45594000000E+02  0.51100000000E-03 0. -1.
    9900012    2    1    2    0    0 -0.31423251458E+02 -0.65554928004E+00  0.25793695405E+02  0.50528865728E+02  0.30000017868E+02 0.  0.
         12    1    1    2    0    0  0.31423251458E+02  0.65554928004E+00 -0.25793695405E+02  0.40659134272E+02  0.00000000000E+00 0. -1.
         11    1    3    3    0    0 -0.63072180927E+01  0.93670615739E+01 -0.59857468647E+00  0.11308454117E+02  0.51100000000E-03 0. -1.
        -11    1    3    3    0    0 -0.18370128616E+01 -0.59547959201E+00  0.76302250062E+01  0.78708033964E+01  0.51100000000E-03 0.  1.
         12    1    3    3    0    0 -0.23279020504E+02 -0.94271312620E+01  0.18762045085E+02  0.31349608215E+02  0.00000000000E+00 0. -1.
</event>
<event>
 7    1  0.5329250E-013  0.5052887E+02  0.7816164E-02  0.1300439E+00
        -11   -1    0    0    0    0  0.00000000000E+00  0.00000000000E+00  0.45593999997E+02  0.45594000000E+02  0.51100000000E-03 0.  1.
         11   -1    0    0    0    0 -0.00000000000E+00 -0.00000000000E+00 -0.45593999997E+02  0.45594000000E+02  0.51100000000E-03 0. -1.
    9900012    2    1    2    0    0 -0.30699265742E+02  0.25296666786E+02  0.84142035494E+01  0.50528867090E+02  0.30000022006E+02 0.  0.
         12    1    1    2    0    0  0.30699265742E+02 -0.25296666786E+02 -0.84142035494E+01  0.40659132910E+02  0.00000000000E+00 0. -1.
         11    1    3    3    0    0 -0.11058465698E+02  0.12540071325E+01 -0.26633926620E+01  0.11443594637E+02  0.51100000000E-03 0. -1.
        -11    1    3    3    0    0 -0.14559163052E+02  0.32163852900E+01  0.93035682050E+01  0.17574718909E+02  0.51100000000E-03 0.  1.
         12    1    3    3    0    0 -0.50816369921E+01  0.20826274364E+02  0.17740280065E+01  0.21510553544E+02  0.00000000000E+00 0. -1.
</event>
<event>
 7    1  0.5329250E-013  0.5052886E+02  0.7816164E-02  0.1300439E+00
        -11   -1    0    0    0    0  0.00000000000E+00  0.00000000000E+00  0.45593999997E+02  0.45594000000E+02  0.51100000000E-03 0.  1.
         11   -1    0    0    0    0 -0.00000000000E+00 -0.00000000000E+00 -0.45593999997E+02  0.45594000000E+02  0.51100000000E-03 0. -1.
    9900012    2    1    2    0    0 -0.23940716711E+02 -0.42491792661E+01  0.32587613305E+02  0.50528856108E+02  0.29999988627E+02 0.  0.
         12    1    1    2    0    0  0.23940716711E+02  0.42491792661E+01 -0.32587613305E+02  0.40659143892E+02  0.00000000000E+00 0. -1.
         11    1    3    3    0    0 -0.62458185123E+01 -0.42232313964E+01  0.18396095341E+02  0.19881203595E+02  0.51100000000E-03 0. -1.
        -11    1    3    3    0    0 -0.13719547223E+02 -0.88681221501E+01  0.13004996449E+02  0.20880601030E+02  0.51100000000E-03 0.  1.
         12    1    3    3    0    0 -0.39753509760E+01  0.88421742804E+01  0.11865215154E+01  0.97670514841E+01  0.00000000000E+00 0. -1.
</event>
<event>
 7    1  0.5329250E-013  0.5052886E+02  0.7816164E-02  0.1300439E+00
        -11   -1    0    0    0    0  0.00000000000E+00  0.00000000000E+00  0.45593999997E+02  0.45594000000E+02  0.51100000000E-03 0.  1.
         11   -1    0    0    0    0 -0.00000000000E+00 -0.00000000000E+00 -0.45593999997E+02  0.45594000000E+02  0.51100000000E-03 0. -1.
    9900012    2    1    2    0    0 -0.11114495369E+02  0.26639979295E+02  0.28634688684E+02  0.50528857115E+02  0.29999991685E+02 0.  0.
         12    1    1    2    0    0  0.11114495369E+02 -0.26639979295E+02 -0.28634688684E+02  0.40659142885E+02  0.00000000000E+00 0. -1.
         11    1    3    3    0    0  0.10879483827E+01  0.26456074731E+02  0.12905198632E+02  0.29455927652E+02  0.51100000000E-03 0.  1.
        -11    1    3    3    0    0 -0.73803378348E-01 -0.15648730595E+01  0.80212457724E+00  0.17600223662E+01  0.51100000000E-03 0. -1.
        -12    1    3    3    0    0 -0.12128640374E+02  0.17487776234E+01  0.14927365474E+02  0.19312907096E+02  0.00000000000E+00 0.  1.
</event>
<event>
 7    1  0.5329250E-013  0.5052887E+02  0.7816164E-02  0.1300439E+00
        -11   -1    0    0    0    0  0.00000000000E+00  0.00000000000E+00  0.45593999997E+02  0.45594000000E+02  0.51100000000E-03 0.  1.
         11   -1    0    0    0    0 -0.00000000000E+00 -0.00000000000E+00 -0.45593999997E+02  0.45594000000E+02  0.51100000000E-03 0. -1.
    9900012    2    1    2    0    0  0.22012230914E+02 -0.31874899973E+02  0.12353852172E+02  0.50528865459E+02  0.30000017049E+02 0.  0.
         12    1    1    2    0    0 -0.22012230914E+02  0.31874899973E+02 -0.12353852172E+02  0.40659134541E+02  0.00000000000E+00 0. -1.
         11    1    3    3    0    0  0.64850164730E+01 -0.50295777578E+01  0.30968616017E+01  0.87716955669E+01  0.51100000000E-03 0. -1.
        -11    1    3    3    0    0  0.17826249787E+02 -0.13308264440E+02  0.15045373020E+02  0.26856066977E+02  0.51100000000E-03 0.  1.
         12    1    3    3    0    0 -0.22990353460E+01 -0.13537057775E+02 -0.57883824489E+01  0.14901102916E+02  0.00000000000E+00 0. -1.
</event>
<event>
 7    1  0.5329250E-013  0.5052882E+02  0.7816164E-02  0.1300439E+00
        -11   -1    0    0    0    0  0.00000000000E+00  0.00000000000E+00  0.45593999997E+02  0.45594000000E+02  0.51100000000E-03 0. -1.
         11   -1    0    0    0    0 -0.00000000000E+00 -0.00000000000E+00 -0.45593999997E+02  0.45594000000E+02  0.51100000000E-03 0.  1.
    9900012    2    1    2    0    0  0.23930135587E+01  0.37567483609E+02 -0.15366405467E+02  0.50528822000E+02  0.29999884952E+02 0.  0.
         12    1    1    2    0    0 -0.23930135587E+01 -0.37567483609E+02  0.15366405467E+02  0.40659178000E+02  0.00000000000E+00 0. -1.
         11    1    3    3    0    0 -0.66130571302E+01  0.58848827332E+01 -0.12083578322E+02  0.14979226773E+02  0.51100000000E-03 0. -1.
        -11    1    3    3    0    0  0.17591158890E+01 -0.10195797146E+00  0.18418810004E+01  0.25490017692E+01  0.51100000000E-03 0.  1.
        -12    1    3    3    0    0  0.72469547999E+01  0.31784558848E+02 -0.51247081447E+01  0.33000593458E+02  0.00000000000E+00 0.  1.
</event>
<event>
 7    1  0.5329250E-013  0.5052886E+02  0.7816164E-02  0.1300439E+00
        -11   -1    0    0    0    0  0.00000000000E+00  0.00000000000E+00  0.45593999997E+02  0.45594000000E+02  0.51100000000E-03 0.  1.
         11   -1    0    0    0    0 -0.00000000000E+00 -0.00000000000E+00 -0.45593999997E+02  0.45594000000E+02  0.51100000000E-03 0. -1.
    9900012    2    1    2    0    0  0.26672418160E+02  0.30545045063E+02  0.29577022286E+01  0.50528859934E+02  0.30000000256E+02 0.  0.
         12    1    1    2    0    0 -0.26672418160E+02 -0.30545045063E+02 -0.29577022286E+01  0.40659140066E+02  0.00000000000E+00 0. -1.
         11    1    3    3    0    0  0.11918211801E+02  0.41162699540E+01  0.88829151578E+01  0.15423800856E+02  0.51100000000E-03 0. -1.
        -11    1    3    3    0    0  0.45711724874E+01 -0.11487090045E+00 -0.48342528476E+01  0.66542327949E+01  0.51100000000E-03 0.  1.
        -12    1    3    3    0    0  0.10183033872E+02  0.26543646010E+02 -0.10909600816E+01  0.28450826284E+02  0.00000000000E+00 0.  1.
</event>
<event>
 7    1  0.5329250E-013  0.5052886E+02  0.7816164E-02  0.1300439E+00
        -11   -1    0    0    0    0  0.00000000000E+00  0.00000000000E+00  0.45593999997E+02  0.45594000000E+02  0.51100000000E-03 0. -1.
         11   -1    0    0    0    0 -0.00000000000E+00 -0.00000000000E+00 -0.45593999997E+02  0.45594000000E+02  0.51100000000E-03 0.  1.
    9900012    2    1    2    0    0  0.65074813889E+01 -0.92704981026E+01 -0.39049665397E+02  0.50528858141E+02  0.29999994805E+02 0.  0.
         12    1    1    2    0    0 -0.65074813889E+01  0.92704981026E+01  0.39049665397E+02  0.40659141859E+02  0.00000000000E+00 0. -1.
         11    1    3    3    0    0  0.26595830690E+01  0.37739363649E+01 -0.49907274367E+01  0.67987747717E+01  0.51100000000E-03 0. -1.
        -11    1    3    3    0    0  0.16324196933E+01 -0.11493325655E+02 -0.37556022085E+02  0.39309237130E+02  0.51100000000E-03 0.  1.
         12    1    3    3    0    0  0.22154786266E+01 -0.15511088129E+01  0.34970841245E+01  0.44208462389E+01  0.00000000000E+00 0. -1.
</event>
<event>
 7    1  0.5329250E-013  0.5052885E+02  0.7816164E-02  0.1300439E+00
        -11   -1    0    0    0    0  0.00000000000E+00  0.00000000000E+00  0.45593999997E+02  0.45594000000E+02  0.51100000000E-03 0.  1.
         11   -1    0    0    0    0 -0.00000000000E+00 -0.00000000000E+00 -0.45593999997E+02  0.45594000000E+02  0.51100000000E-03 0. -1.
    9900012    2    1    2    0    0 -0.43697720158E+00  0.15868077593E+02  0.37432330016E+02  0.50528853845E+02  0.29999981748E+02 0.  0.
         12    1    1    2    0    0  0.43697720158E+00 -0.15868077593E+02 -0.37432330016E+02  0.40659146155E+02  0.00000000000E+00 0. -1.
         11    1    3    3    0    0  0.68108722673E+01 -0.77024379070E+00  0.15742115155E+02  0.17169608218E+02  0.51100000000E-03 0. -1.
        -11    1    3    3    0    0  0.42077467559E+01  0.43292696260E+01  0.15795563202E+00  0.60392597642E+01  0.51100000000E-03 0.  1.
        -12    1    3    3    0    0 -0.11455596225E+02  0.12309051758E+02  0.21532259229E+02  0.27319985863E+02  0.00000000000E+00 0.  1.
</event>
<event>
 7    1  0.5329250E-013  0.5052885E+02  0.7816164E-02  0.1300439E+00
        -11   -1    0    0    0    0  0.00000000000E+00  0.00000000000E+00  0.45593999997E+02  0.45594000000E+02  0.51100000000E-03 0. -1.
         11   -1    0    0    0    0 -0.00000000000E+00 -0.00000000000E+00 -0.45593999997E+02  0.45594000000E+02  0.51100000000E-03 0.  1.
    9900012    2    1    2    0    0 -0.19827808391E+02  0.87956672482E+01 -0.34389837837E+02  0.50528847348E+02  0.29999961997E+02 0.  0.
         12    1    1    2    0    0  0.19827808391E+02 -0.87956672482E+01  0.34389837837E+02  0.40659152652E+02  0.00000000000E+00 0. -1.
         11    1    3    3    0    0  0.56750138411E+01 -0.16864140841E+01 -0.26157810242E+01  0.64724095350E+01  0.51100000000E-03 0. -1.
        -11    1    3    3    0    0 -0.67386315760E+01 -0.87221027641E+00 -0.20124220403E+01  0.70865893780E+01  0.51100000000E-03 0.  1.
        -12    1    3    3    0    0 -0.18764190657E+02  0.11354291609E+02 -0.29761634773E+02  0.36969848435E+02  0.00000000000E+00 0.  1.
</event>
<event>
 7    1  0.5329250E-013  0.5052886E+02  0.7816164E-02  0.1300439E+00
        -11   -1    0    0    0    0  0.00000000000E+00  0.00000000000E+00  0.45593999997E+02  0.45594000000E+02  0.51100000000E-03 0. -1.
         11   -1    0    0    0    0 -0.00000000000E+00 -0.00000000000E+00 -0.45593999997E+02  0.45594000000E+02  0.51100000000E-03 0.  1.
    9900012    2    1    2    0    0  0.34283247159E+02 -0.18484058239E+02  0.11668949583E+02  0.50528857989E+02  0.29999994343E+02 0.  0.
         12    1    1    2    0    0 -0.34283247159E+02  0.18484058239E+02 -0.11668949583E+02  0.40659142011E+02  0.00000000000E+00 0. -1.
         11    1    3    3    0    0  0.12515585444E+01 -0.52935036483E+01  0.64001057838E+01  0.83993412819E+01  0.51100000000E-03 0. -1.
        -11    1    3    3    0    0  0.20783576040E+01  0.40926926848E+01 -0.33045291069E+01  0.56559364054E+01  0.51100000000E-03 0.  1.
         12    1    3    3    0    0  0.30953331010E+02 -0.17283247275E+02  0.85733729065E+01  0.36473580301E+02  0.00000000000E+00 0. -1.
</event>
<event>
 7    1  0.5329250E-013  0.5052886E+02  0.7816164E-02  0.1300439E+00
        -11   -1    0    0    0    0  0.00000000000E+00  0.00000000000E+00  0.45593999997E+02  0.45594000000E+02  0.51100000000E-03 0.  1.
         11   -1    0    0    0    0 -0.00000000000E+00 -0.00000000000E+00 -0.45593999997E+02  0.45594000000E+02  0.51100000000E-03 0. -1.
    9900012    2    1    2    0    0  0.14356408534E+02  0.10441535025E+02  0.36579144699E+02  0.50528856544E+02  0.29999989952E+02 0.  0.
         12    1    1    2    0    0 -0.14356408534E+02 -0.10441535025E+02 -0.36579144699E+02  0.40659143456E+02  0.00000000000E+00 0. -1.
         11    1    3    3    0    0 -0.16343476601E+01  0.86700963542E+01  0.37936438186E+01  0.96038219866E+01  0.51100000000E-03 0. -1.
        -11    1    3    3    0    0  0.37314038826E+00  0.62284256229E+01  0.17666013761E+02  0.18735542745E+02  0.51100000000E-03 0.  1.
         12    1    3    3    0    0  0.15617615806E+02 -0.44569869523E+01  0.15119487119E+02  0.22189491813E+02  0.00000000000E+00 0. -1.
</event>
<event>
 7    1  0.5329250E-013  0.5052885E+02  0.7816164E-02  0.1300439E+00
        -11   -1    0    0    0    0  0.00000000000E+00  0.00000000000E+00  0.45593999997E+02  0.45594000000E+02  0.51100000000E-03 0. -1.
         11   -1    0    0    0    0 -0.00000000000E+00 -0.00000000000E+00 -0.45593999997E+02  0.45594000000E+02  0.51100000000E-03 0.  1.
    9900012    2    1    2    0    0  0.38267079863E+01  0.16765451640E+02 -0.36843488338E+02  0.50528847333E+02  0.29999961954E+02 0.  0.
         12    1    1    2    0    0 -0.38267079863E+01 -0.16765451640E+02  0.36843488338E+02  0.40659152667E+02  0.00000000000E+00 0. -1.
         11    1    3    3    0    0 -0.52275140037E+01 -0.33740090320E+01 -0.12347882092E+02  0.13826822918E+02  0.51100000000E-03 0. -1.
        -11    1    3    3    0    0  0.82226384209E+01  0.10238105944E+02 -0.23231362838E+02  0.26685704328E+02  0.51100000000E-03 0.  1.
        -12    1    3    3    0    0  0.83158356905E+00  0.99013547282E+01 -0.12642434082E+01  0.10016320087E+02  0.00000000000E+00 0.  1.
</event>
<event>
 7    1  0.5329250E-013  0.5052886E+02  0.7816164E-02  0.1300439E+00
        -11   -1    0    0    0    0  0.00000000000E+00  0.00000000000E+00  0.45593999997E+02  0.45594000000E+02  0.51100000000E-03 0.  1.
         11   -1    0    0    0    0 -0.00000000000E+00 -0.00000000000E+00 -0.45593999997E+02  0.45594000000E+02  0.51100000000E-03 0. -1.
    9900012    2    1    2    0    0  0.16273809673E+02 -0.63068606435E+01  0.36722643311E+02  0.50528857065E+02  0.29999991535E+02 0.  0.
         12    1    1    2    0    0 -0.16273809673E+02  0.63068606435E+01 -0.36722643311E+02  0.40659142935E+02  0.00000000000E+00 0. -1.
         11    1    3    3    0    0  0.30195468129E+01  0.50880740736E-01  0.58447814563E+00  0.30760147544E+01  0.51100000000E-03 0. -1.
        -11    1    3    3    0    0  0.65064962037E+00  0.98597100476E+01  0.86056305347E+01  0.13103209695E+02  0.51100000000E-03 0.  1.
         12    1    3    3    0    0  0.12603613240E+02 -0.16217451432E+02  0.27532534631E+02  0.34349632616E+02  0.00000000000E+00 0. -1.
</event>
<event>
 7    1  0.5329250E-013  0.5052885E+02  0.7816164E-02  0.1300439E+00
        -11   -1    0    0    0    0  0.00000000000E+00  0.00000000000E+00  0.45593999997E+02  0.45594000000E+02  0.51100000000E-03 0.  1.
         11   -1    0    0    0    0 -0.00000000000E+00 -0.00000000000E+00 -0.45593999997E+02  0.45594000000E+02  0.51100000000E-03 0. -1.
    9900012    2    1    2    0    0  0.12531844205E+02 -0.18094012399E+02 -0.34186630423E+02  0.50528854614E+02  0.29999984085E+02 0.  0.
         12    1    1    2    0    0 -0.12531844205E+02  0.18094012399E+02  0.34186630423E+02  0.40659145386E+02  0.00000000000E+00 0. -1.
         11    1    3    3    0    0  0.13711823432E+02 -0.62066947681E+01 -0.14042396030E+02  0.20584607072E+02  0.51100000000E-03 0. -1.
        -11    1    3    3    0    0  0.41101477432E+01 -0.16300416582E+01  0.20918887594E+01  0.48914567484E+01  0.51100000000E-03 0.  1.
         12    1    3    3    0    0 -0.52901269707E+01 -0.10257275972E+02 -0.22236123152E+02  0.25052790794E+02  0.00000000000E+00 0. -1.
</event>
<event>
 7    1  0.5329250E-013  0.5052886E+02  0.7816164E-02  0.1300439E+00
        -11   -1    0    0    0    0  0.00000000000E+00  0.00000000000E+00  0.45593999997E+02  0.45594000000E+02  0.51100000000E-03 0.  1.
         11   -1    0    0    0    0 -0.00000000000E+00 -0.00000000000E+00 -0.45593999997E+02  0.45594000000E+02  0.51100000000E-03 0. -1.
    9900012    2    1    2    0    0 -0.60441338126E+01 -0.27620055105E+02  0.29219284479E+02  0.50528861015E+02  0.30000003542E+02 0.  0.
         12    1    1    2    0    0  0.60441338126E+01  0.27620055105E+02 -0.29219284479E+02  0.40659138985E+02  0.00000000000E+00 0. -1.
         11    1    3    3    0    0 -0.50125196573E+01 -0.10374943945E+01 -0.17570698196E+01  0.54119351941E+01  0.51100000000E-03 0. -1.
        -11    1    3    3    0    0  0.62861176835E+01 -0.17300863886E+02  0.97709673188E+01  0.20840032853E+02  0.51100000000E-03 0.  1.
         12    1    3    3    0    0 -0.73177318388E+01 -0.92816968246E+01  0.21205386980E+02  0.24276892968E+02  0.00000000000E+00 0. -1.
</event>
<event>
 7    1  0.5329250E-013  0.5052887E+02  0.7816164E-02  0.1300439E+00
        -11   -1    0    0    0    0  0.00000000000E+00  0.00000000000E+00  0.45593999997E+02  0.45594000000E+02  0.51100000000E-03 0.  1.
         11   -1    0    0    0    0 -0.00000000000E+00 -0.00000000000E+00 -0.45593999997E+02  0.45594000000E+02  0.51100000000E-03 0. -1.
    9900012    2    1    2    0    0 -0.47422350837E+01 -0.27932210052E+02  0.29162786204E+02  0.50528865096E+02  0.30000015946E+02 0.  0.
         12    1    1    2    0    0  0.47422350837E+01  0.27932210052E+02 -0.29162786204E+02  0.40659134904E+02  0.00000000000E+00 0. -1.
         11    1    3    3    0    0  0.59757043206E+01 -0.71298639097E+01  0.99561685377E+01  0.13626052022E+02  0.51100000000E-03 0. -1.
        -11    1    3    3    0    0 -0.13159158287E+02 -0.10412068487E+02  0.20110107477E+02  0.26191430660E+02  0.51100000000E-03 0.  1.
         12    1    3    3    0    0  0.24412188826E+01 -0.10390277655E+02 -0.90348981094E+00  0.10711382414E+02  0.00000000000E+00 0. -1.
</event>
<event>
 7    1  0.5329250E-013  0.5052886E+02  0.7816164E-02  0.1300439E+00
        -11   -1    0    0    0    0  0.00000000000E+00  0.00000000000E+00  0.45593999997E+02  0.45594000000E+02  0.51100000000E-03 0.  1.
         11   -1    0    0    0    0 -0.00000000000E+00 -0.00000000000E+00 -0.45593999997E+02  0.45594000000E+02  0.51100000000E-03 0. -1.
    9900012    2    1    2    0    0 -0.28167391398E+01 -0.30516160844E+02  0.26720696110E+02  0.50528859667E+02  0.29999999445E+02 0.  0.
         12    1    1    2    0    0  0.28167391398E+01  0.30516160844E+02 -0.26720696110E+02  0.40659140333E+02  0.00000000000E+00 0. -1.
         11    1    3    3    0    0 -0.43870923367E+01 -0.42276957657E+01  0.10038855587E+02  0.11743023989E+02  0.51100000000E-03 0. -1.
        -11    1    3    3    0    0  0.55381644396E+01 -0.17303615426E+02  0.21246219434E+02  0.27955110672E+02  0.51100000000E-03 0.  1.
         12    1    3    3    0    0 -0.39678112427E+01 -0.89848496517E+01 -0.45643789108E+01  0.10830725006E+02  0.00000000000E+00 0. -1.
</event>
<event>
 7    1  0.5329250E-013  0.5052886E+02  0.7816164E-02  0.1300439E+00
        -11   -1    0    0    0    0  0.00000000000E+00  0.00000000000E+00  0.45593999997E+02  0.45594000000E+02  0.51100000000E-03 0. -1.
         11   -1    0    0    0    0 -0.00000000000E+00 -0.00000000000E+00 -0.45593999997E+02  0.45594000000E+02  0.51100000000E-03 0.  1.
    9900012    2    1    2    0    0  0.47213810279E+01  0.20895686273E+02 -0.34557841998E+02  0.50528860963E+02  0.30000003383E+02 0.  0.
         12    1    1    2    0    0 -0.47213810279E+01 -0.20895686273E+02  0.34557841998E+02  0.40659139037E+02  0.00000000000E+00 0. -1.
         11    1    3    3    0    0  0.45016165977E+01  0.12546767074E+02 -0.21004288909E+02  0.24877018890E+02  0.51100000000E-03 0.  1.
        -11    1    3    3    0    0 -0.77235316879E+01  0.17830998952E+01 -0.13130403703E+02  0.15337532026E+02  0.51100000000E-03 0. -1.
        -12    1    3    3    0    0  0.79432961180E+01  0.65658193043E+01 -0.42314938636E+00  0.10314310048E+02  0.00000000000E+00 0.  1.
</event>
<event>
 7    1  0.5329250E-013  0.5052885E+02  0.7816164E-02  0.1300439E+00
        -11   -1    0    0    0    0  0.00000000000E+00  0.00000000000E+00  0.45593999997E+02  0.45594000000E+02  0.51100000000E-03 0.  1.
         11   -1    0    0    0    0 -0.00000000000E+00 -0.00000000000E+00 -0.45593999997E+02  0.45594000000E+02  0.51100000000E-03 0. -1.
    9900012    2    1    2    0    0 -0.33041238876E+02  0.16688308129E+02 -0.16820930148E+02  0.50528846225E+02  0.29999958584E+02 0.  0.
         12    1    1    2    0    0  0.33041238876E+02 -0.16688308129E+02  0.16820930148E+02  0.40659153775E+02  0.00000000000E+00 0. -1.
         11    1    3    3    0    0 -0.89367543004E+01 -0.40613648996E+01 -0.48307488047E+01  0.10940584836E+02  0.51100000000E-03 0. -1.
        -11    1    3    3    0    0 -0.52828722363E+01 -0.39448243618E+01 -0.10999258336E+01  0.66843261000E+01  0.51100000000E-03 0.  1.
        -12    1    3    3    0    0 -0.18821612339E+02  0.24694497390E+02 -0.10890255510E+02  0.32903935289E+02  0.00000000000E+00 0.  1.
</event>
<event>
 7    1  0.5329250E-013  0.5052885E+02  0.7816164E-02  0.1300439E+00
        -11   -1    0    0    0    0  0.00000000000E+00  0.00000000000E+00  0.45593999997E+02  0.45594000000E+02  0.51100000000E-03 0. -1.
         11   -1    0    0    0    0 -0.00000000000E+00 -0.00000000000E+00 -0.45593999997E+02  0.45594000000E+02  0.51100000000E-03 0.  1.
    9900012    2    1    2    0    0 -0.39687336681E+02  0.67411802216E+01 -0.57130032151E+01  0.50528848394E+02  0.29999965179E+02 0.  0.
         12    1    1    2    0    0  0.39687336681E+02 -0.67411802216E+01  0.57130032151E+01  0.40659151606E+02  0.00000000000E+00 0. -1.
         11    1    3    3    0    0 -0.93720773595E+01  0.22437060832E+01  0.34741910593E+01  0.10244025322E+02  0.51100000000E-03 0. -1.
        -11    1    3    3    0    0  0.37772065559E+01 -0.88143155186E-01  0.17838844669E+01  0.41781937047E+01  0.51100000000E-03 0.  1.
        -12    1    3    3    0    0 -0.34092465877E+02  0.45856172935E+01 -0.10971078741E+02  0.36106629367E+02  0.00000000000E+00 0.  1.
</event>
<event>
 7    1  0.5329250E-013  0.5052895E+02  0.7816164E-02  0.1300438E+00
        -11   -1    0    0    0    0  0.00000000000E+00  0.00000000000E+00  0.45593999997E+02  0.45594000000E+02  0.51100000000E-03 0. -1.
         11   -1    0    0    0    0 -0.00000000000E+00 -0.00000000000E+00 -0.45593999997E+02  0.45594000000E+02  0.51100000000E-03 0.  1.
    9900012    2    1    2    0    0 -0.75968087067E+01 -0.24874578882E+01 -0.39865516518E+02  0.50528949882E+02  0.30000273659E+02 0.  0.
         12    1    1    2    0    0  0.75968087067E+01  0.24874578882E+01  0.39865516518E+02  0.40659050118E+02  0.00000000000E+00 0. -1.
         11    1    3    3    0    0  0.10645858443E+01 -0.33508964060E+01  0.16908462518E+01  0.39013857861E+01  0.51100000000E-03 0. -1.
        -11    1    3    3    0    0 -0.91186745284E+01  0.18388520225E+01 -0.60317944612E+01  0.11086665260E+02  0.51100000000E-03 0.  1.
         12    1    3    3    0    0  0.45727997746E+00 -0.97541350465E+00 -0.35524568309E+02  0.35540898835E+02  0.00000000000E+00 0. -1.
</event>
<event>
 7    1  0.5329250E-013  0.5052886E+02  0.7816164E-02  0.1300439E+00
        -11   -1    0    0    0    0  0.00000000000E+00  0.00000000000E+00  0.45593999997E+02  0.45594000000E+02  0.51100000000E-03 0.  1.
         11   -1    0    0    0    0 -0.00000000000E+00 -0.00000000000E+00 -0.45593999997E+02  0.45594000000E+02  0.51100000000E-03 0. -1.
    9900012    2    1    2    0    0 -0.54591284450E+00 -0.32215591091E+02  0.24799668315E+02  0.50528857378E+02  0.29999992487E+02 0.  0.
         12    1    1    2    0    0  0.54591284450E+00  0.32215591091E+02 -0.24799668315E+02  0.40659142622E+02  0.00000000000E+00 0. -1.
         11    1    3    3    0    0 -0.41398224861E+01 -0.27432126128E+01 -0.31821895122E+01  0.58982773763E+01  0.51100000000E-03 0. -1.
        -11    1    3    3    0    0  0.72921396783E+01 -0.22620328061E+02  0.11501457138E+02  0.26403372118E+02  0.51100000000E-03 0.  1.
         12    1    3    3    0    0 -0.36982300367E+01 -0.68520504177E+01  0.16480400690E+02  0.18227207884E+02  0.00000000000E+00 0. -1.
</event>
<event>
 7    1  0.5329250E-013  0.5052887E+02  0.7816164E-02  0.1300439E+00
        -11   -1    0    0    0    0  0.00000000000E+00  0.00000000000E+00  0.45593999997E+02  0.45594000000E+02  0.51100000000E-03 0.  1.
         11   -1    0    0    0    0 -0.00000000000E+00 -0.00000000000E+00 -0.45593999997E+02  0.45594000000E+02  0.51100000000E-03 0. -1.
    9900012    2    1    2    0    0  0.25865018944E+02 -0.25618761481E+02  0.18106489067E+02  0.50528867064E+02  0.30000021928E+02 0.  0.
         12    1    1    2    0    0 -0.25865018944E+02  0.25618761481E+02 -0.18106489067E+02  0.40659132936E+02  0.00000000000E+00 0. -1.
         11    1    3    3    0    0  0.54443982308E+01 -0.29745124212E+01 -0.74534474265E+01  0.96975808860E+01  0.51100000000E-03 0. -1.
        -11    1    3    3    0    0  0.11632178293E+02 -0.62641969110E+01  0.96024553718E+01  0.16332632495E+02  0.51100000000E-03 0.  1.
        -12    1    3    3    0    0  0.87884424200E+01 -0.16380052149E+02  0.15957481122E+02  0.24498653684E+02  0.00000000000E+00 0.  1.
</event>
<event>
 7    1  0.5329250E-013  0.5052886E+02  0.7816164E-02  0.1300439E+00
        -11   -1    0    0    0    0  0.00000000000E+00  0.00000000000E+00  0.45593999997E+02  0.45594000000E+02  0.51100000000E-03 0.  1.
         11   -1    0    0    0    0 -0.00000000000E+00 -0.00000000000E+00 -0.45593999997E+02  0.45594000000E+02  0.51100000000E-03 0. -1.
    9900012    2    1    2    0    0  0.28845898279E+02 -0.13406174380E+01  0.28623119447E+02  0.50528855032E+02  0.29999985356E+02 0.  0.
         12    1    1    2    0    0 -0.28845898279E+02  0.13406174380E+01 -0.28623119447E+02  0.40659144968E+02  0.00000000000E+00 0. -1.
         11    1    3    3    0    0 -0.13385462102E+01 -0.42230419712E+01 -0.76256976631E+00  0.44952533140E+01  0.51100000000E-03 0. -1.
        -11    1    3    3    0    0  0.11474158518E+01  0.58555362015E+01  0.73141969653E+01  0.94393508703E+01  0.51100000000E-03 0.  1.
        -12    1    3    3    0    0  0.29037028637E+02 -0.29731116683E+01  0.22071492248E+02  0.36594250848E+02  0.00000000000E+00 0.  1.
</event>
<event>
 7    1  0.5329250E-013  0.5052885E+02  0.7816164E-02  0.1300439E+00
        -11   -1    0    0    0    0  0.00000000000E+00  0.00000000000E+00  0.45593999997E+02  0.45594000000E+02  0.51100000000E-03 0.  1.
         11   -1    0    0    0    0 -0.00000000000E+00 -0.00000000000E+00 -0.45593999997E+02  0.45594000000E+02  0.51100000000E-03 0. -1.
    9900012    2    1    2    0    0  0.18036331659E+02 -0.19354787763E+02  0.30874737950E+02  0.50528849584E+02  0.29999968797E+02 0.  0.
         12    1    1    2    0    0 -0.18036331659E+02  0.19354787763E+02 -0.30874737950E+02  0.40659150416E+02  0.00000000000E+00 0. -1.
         11    1    3    3    0    0 -0.12842000756E+01 -0.76775962377E+01  0.15680159110E+02  0.17506057346E+02  0.51100000000E-03 0. -1.
        -11    1    3    3    0    0  0.84935216781E+01  0.29955152377E+00  0.14567559776E+02  0.16865451068E+02  0.51100000000E-03 0.  1.
        -12    1    3    3    0    0  0.10827010057E+02 -0.11976743049E+02  0.62701906359E+00  0.16157341171E+02  0.00000000000E+00 0.  1.
</event>
<event>
 7    1  0.5329250E-013  0.5052886E+02  0.7816164E-02  0.1300439E+00
        -11   -1    0    0    0    0  0.00000000000E+00  0.00000000000E+00  0.45593999997E+02  0.45594000000E+02  0.51100000000E-03 0.  1.
         11   -1    0    0    0    0 -0.00000000000E+00 -0.00000000000E+00 -0.45593999997E+02  0.45594000000E+02  0.51100000000E-03 0. -1.
    9900012    2    1    2    0    0  0.58450673468E+01 -0.91417273478E+01  0.39184558550E+02  0.50528860560E+02  0.30000002159E+02 0.  0.
         12    1    1    2    0    0 -0.58450673468E+01  0.91417273478E+01 -0.39184558550E+02  0.40659139440E+02  0.00000000000E+00 0. -1.
         11    1    3    3    0    0 -0.77547126874E+00 -0.16306337514E+02  0.16519786904E+02  0.23225015790E+02  0.51100000000E-03 0.  1.
        -11    1    3    3    0    0 -0.30866652636E+01  0.38209839993E+01  0.83552546509E+01  0.96921463936E+01  0.51100000000E-03 0. -1.
        -12    1    3    3    0    0  0.97072038792E+01  0.33436261666E+01  0.14309516995E+02  0.17611698377E+02  0.00000000000E+00 0.  1.
</event>
<event>
 7    1  0.5329250E-013  0.5052880E+02  0.7816164E-02  0.1300439E+00
        -11   -1    0    0    0    0  0.00000000000E+00  0.00000000000E+00  0.45593999997E+02  0.45594000000E+02  0.51100000000E-03 0.  1.
         11   -1    0    0    0    0 -0.00000000000E+00 -0.00000000000E+00 -0.45593999997E+02  0.45594000000E+02  0.51100000000E-03 0. -1.
    9900012    2    1    2    0    0 -0.97685493661E+01  0.37151846475E+02  0.13322396216E+02  0.50528800621E+02  0.29999819966E+02 0.  0.
         12    1    1    2    0    0  0.97685493661E+01 -0.37151846475E+02 -0.13322396216E+02  0.40659199379E+02  0.00000000000E+00 0. -1.
         11    1    3    3    0    0 -0.56431067519E+01 -0.17209949325E+01  0.57227122096E+01  0.82192403947E+01  0.51100000000E-03 0. -1.
        -11    1    3    3    0    0 -0.13884996046E+01  0.43677007238E+01 -0.37086208246E+01  0.58956432597E+01  0.51100000000E-03 0.  1.
        -12    1    3    3    0    0 -0.27369430095E+01  0.34505140684E+02  0.11308304831E+02  0.36413916966E+02  0.00000000000E+00 0.  1.
</event>
<event>
 7    1  0.5329250E-013  0.5052880E+02  0.7816164E-02  0.1300439E+00
        -11   -1    0    0    0    0  0.00000000000E+00  0.00000000000E+00  0.45593999997E+02  0.45594000000E+02  0.51100000000E-03 0. -1.
         11   -1    0    0    0    0 -0.00000000000E+00 -0.00000000000E+00 -0.45593999997E+02  0.45594000000E+02  0.51100000000E-03 0.  1.
    9900012    2    1    2    0    0  0.27159741294E+02 -0.29431712812E+02 -0.70208978799E+01  0.50528803337E+02  0.29999828223E+02 0.  0.
         12    1    1    2    0    0 -0.27159741294E+02  0.29431712812E+02  0.70208978799E+01  0.40659196663E+02  0.00000000000E+00 0. -1.
         11    1    3    3    0    0 -0.12140701364E+01 -0.10894577320E+02  0.46285430000E+00  0.10971782701E+02  0.51100000000E-03 0.  1.
        -11    1    3    3    0    0  0.17687936785E+02 -0.95711050483E+01 -0.13649562474E+02  0.24305960495E+02  0.51100000000E-03 0. -1.
         12    1    3    3    0    0  0.10685874645E+02 -0.89660304438E+01  0.61658102943E+01  0.15251060141E+02  0.00000000000E+00 0. -1.
</event>
<event>
 7    1  0.5329250E-013  0.5052886E+02  0.7816164E-02  0.1300439E+00
        -11   -1    0    0    0    0  0.00000000000E+00  0.00000000000E+00  0.45593999997E+02  0.45594000000E+02  0.51100000000E-03 0. -1.
         11   -1    0    0    0    0 -0.00000000000E+00 -0.00000000000E+00 -0.45593999997E+02  0.45594000000E+02  0.51100000000E-03 0.  1.
    9900012    2    1    2    0    0 -0.20829209508E+01  0.22611100989E+02 -0.33727807677E+02  0.50528862548E+02  0.30000008202E+02 0.  0.
         12    1    1    2    0    0  0.20829209508E+01 -0.22611100989E+02  0.33727807677E+02  0.40659137452E+02  0.00000000000E+00 0. -1.
         11    1    3    3    0    0 -0.17422057653E+01  0.85023296340E-01  0.39170572193E+00  0.17877202027E+01  0.51100000000E-03 0. -1.
        -11    1    3    3    0    0  0.77358080730E+01  0.21543341144E+02 -0.13500204224E+02  0.26574683225E+02  0.51100000000E-03 0.  1.
        -12    1    3    3    0    0 -0.80765232586E+01  0.98273654860E+00 -0.20619309175E+02  0.22166459120E+02  0.00000000000E+00 0.  1.
</event>
<event>
 7    1  0.5329250E-013  0.5052886E+02  0.7816164E-02  0.1300439E+00
        -11   -1    0    0    0    0  0.00000000000E+00  0.00000000000E+00  0.45593999997E+02  0.45594000000E+02  0.51100000000E-03 0.  1.
         11   -1    0    0    0    0 -0.00000000000E+00 -0.00000000000E+00 -0.45593999997E+02  0.45594000000E+02  0.51100000000E-03 0. -1.
    9900012    2    1    2    0    0 -0.12677508937E+02  0.36766186393E+02  0.11861457951E+02  0.50528857370E+02  0.29999992460E+02 0.  0.
         12    1    1    2    0    0  0.12677508937E+02 -0.36766186393E+02 -0.11861457951E+02  0.40659142630E+02  0.00000000000E+00 0. -1.
         11    1    3    3    0    0 -0.10083686435E+02  0.32858338274E+01  0.12203548113E+01  0.10675518825E+02  0.51100000000E-03 0. -1.
        -11    1    3    3    0    0 -0.57245424724E+01  0.17261384141E+02  0.14057192735E+02  0.22985439670E+02  0.51100000000E-03 0.  1.
        -12    1    3    3    0    0  0.31307199707E+01  0.16218968425E+02 -0.34160895958E+01  0.16867898874E+02  0.00000000000E+00 0.  1.
</event>
<event>
 7    1  0.5329250E-013  0.5052886E+02  0.7816164E-02  0.1300439E+00
        -11   -1    0    0    0    0  0.00000000000E+00  0.00000000000E+00  0.45593999997E+02  0.45594000000E+02  0.51100000000E-03 0. -1.
         11   -1    0    0    0    0 -0.00000000000E+00 -0.00000000000E+00 -0.45593999997E+02  0.45594000000E+02  0.51100000000E-03 0.  1.
    9900012    2    1    2    0    0  0.16192976394E+02 -0.37238727249E+02  0.20567546341E+01  0.50528861651E+02  0.30000005475E+02 0.  0.
         12    1    1    2    0    0 -0.16192976394E+02  0.37238727249E+02 -0.20567546341E+01  0.40659138349E+02  0.00000000000E+00 0. -1.
         11    1    3    3    0    0  0.39453764090E+00  0.31070658838E+01 -0.17167297318E+01  0.35716494214E+01  0.51100000000E-03 0. -1.
        -11    1    3    3    0    0  0.13993450531E+02 -0.12112477256E+02  0.10993196246E+01  0.18540152829E+02  0.51100000000E-03 0.  1.
        -12    1    3    3    0    0  0.18049882218E+01 -0.28233315877E+02  0.26741647413E+01  0.28417059401E+02  0.00000000000E+00 0.  1.
</event>
<event>
 7    1  0.5329250E-013  0.5052885E+02  0.7816164E-02  0.1300439E+00
        -11   -1    0    0    0    0  0.00000000000E+00  0.00000000000E+00  0.45593999997E+02  0.45594000000E+02  0.51100000000E-03 0. -1.
         11   -1    0    0    0    0 -0.00000000000E+00 -0.00000000000E+00 -0.45593999997E+02  0.45594000000E+02  0.51100000000E-03 0.  1.
    9900012    2    1    2    0    0 -0.99540711638E+01 -0.15318132254E+02 -0.36324071154E+02  0.50528845389E+02  0.29999956046E+02 0.  0.
         12    1    1    2    0    0  0.99540711638E+01  0.15318132254E+02  0.36324071154E+02  0.40659154611E+02  0.00000000000E+00 0. -1.
         11    1    3    3    0    0  0.74399325517E+00 -0.45921481807E+01 -0.33494104795E+02  0.33815623714E+02  0.51100000000E-03 0.  1.
        -11    1    3    3    0    0 -0.33042990447E+01 -0.72733044798E+01 -0.30472095387E+01  0.85501366344E+01  0.51100000000E-03 0. -1.
        -12    1    3    3    0    0 -0.73937653743E+01 -0.34526795931E+01  0.21724318045E+00  0.81630850407E+01  0.00000000000E+00 0.  1.
</event>
<event>
 7    1  0.5329250E-013  0.5052885E+02  0.7816164E-02  0.1300439E+00
        -11   -1    0    0    0    0  0.00000000000E+00  0.00000000000E+00  0.45593999997E+02  0.45594000000E+02  0.51100000000E-03 0. -1.
         11   -1    0    0    0    0 -0.00000000000E+00 -0.00000000000E+00 -0.45593999997E+02  0.45594000000E+02  0.51100000000E-03 0.  1.
    9900012    2    1    2    0    0  0.18898735703E+01 -0.38045473319E+02 -0.14217471857E+02  0.50528853819E+02  0.29999981667E+02 0.  0.
         12    1    1    2    0    0 -0.18898735703E+01  0.38045473319E+02  0.14217471857E+02  0.40659146181E+02  0.00000000000E+00 0. -1.
         11    1    3    3    0    0  0.20476905230E+01 -0.13935077441E+02 -0.11443857857E+02  0.18147763021E+02  0.51100000000E-03 0.  1.
        -11    1    3    3    0    0  0.57299665859E+01  0.15112258171E+01  0.16316452432E+00  0.59281484014E+01  0.51100000000E-03 0. -1.
         12    1    3    3    0    0 -0.58877835386E+01 -0.25621621696E+02 -0.29367785244E+01  0.26452942396E+02  0.00000000000E+00 0. -1.
</event>
<event>
 7    1  0.5329250E-013  0.5052885E+02  0.7816164E-02  0.1300439E+00
        -11   -1    0    0    0    0  0.00000000000E+00  0.00000000000E+00  0.45593999997E+02  0.45594000000E+02  0.51100000000E-03 0.  1.
         11   -1    0    0    0    0 -0.00000000000E+00 -0.00000000000E+00 -0.45593999997E+02  0.45594000000E+02  0.51100000000E-03 0. -1.
    9900012    2    1    2    0    0 -0.25806599616E+02  0.95294813989E+01  0.29939514239E+02  0.50528854505E+02  0.29999983754E+02 0.  0.
         12    1    1    2    0    0  0.25806599616E+02 -0.95294813989E+01 -0.29939514239E+02  0.40659145495E+02  0.00000000000E+00 0. -1.
         11    1    3    3    0    0 -0.48439949715E+01  0.11993661305E+02  0.97845205410E+01  0.16218786677E+02  0.51100000000E-03 0. -1.
        -11    1    3    3    0    0 -0.84439679177E+01  0.37733762160E+00  0.19731880924E+02  0.21466022056E+02  0.51100000000E-03 0.  1.
         12    1    3    3    0    0 -0.12518636727E+02 -0.28415175282E+01  0.42311277472E+00  0.12844045772E+02  0.00000000000E+00 0. -1.
</event>
<event>
 7    1  0.5436448E-013  0.5052889E+02  0.7816164E-02  0.1300439E+00
        -11   -1    0    0    0    0  0.00000000000E+00  0.00000000000E+00  0.45593999997E+02  0.45594000000E+02  0.51100000000E-03 0. -1.
         11   -1    0    0    0    0 -0.00000000000E+00 -0.00000000000E+00 -0.45593999997E+02  0.45594000000E+02  0.51100000000E-03 0.  1.
    9900012    2    1    2    0    0  0.24029075538E+02  0.19208427398E+02 -0.26585771840E+02  0.50528887631E+02  0.30000084443E+02 0.  0.
         12    1    1    2    0    0 -0.24029075538E+02 -0.19208427398E+02  0.26585771840E+02  0.40659112369E+02  0.00000000000E+00 0. -1.
         11    1    3    3    0    0  0.79556543438E+01  0.62979510946E+00  0.34821816490E+01  0.87071618347E+01  0.51100000000E-03 0. -1.
        -11    1    3    3    0    0  0.10024397842E+02  0.12661550149E+02 -0.76692362545E+01  0.17877935822E+02  0.51100000000E-03 0.  1.
        -12    1    3    3    0    0  0.60490233516E+01  0.59170821399E+01 -0.22398717235E+02  0.23943789974E+02  0.00000000000E+00 0.  1.
</event>
<event>
 7    1  0.5329250E-013  0.5052886E+02  0.7816164E-02  0.1300439E+00
        -11   -1    0    0    0    0  0.00000000000E+00  0.00000000000E+00  0.45593999997E+02  0.45594000000E+02  0.51100000000E-03 0. -1.
         11   -1    0    0    0    0 -0.00000000000E+00 -0.00000000000E+00 -0.45593999997E+02  0.45594000000E+02  0.51100000000E-03 0.  1.
    9900012    2    1    2    0    0  0.26690939730E+02  0.19728247340E+01 -0.30608287955E+02  0.50528860897E+02  0.30000003182E+02 0.  0.
         12    1    1    2    0    0 -0.26690939730E+02 -0.19728247340E+01  0.30608287955E+02  0.40659139103E+02  0.00000000000E+00 0. -1.
         11    1    3    3    0    0  0.12480049620E+02  0.35440340374E+01 -0.24661663827E+02  0.27865919665E+02  0.51100000000E-03 0. -1.
        -11    1    3    3    0    0  0.16269742148E+02  0.31235947658E+01 -0.57375221227E+01  0.17532270651E+02  0.51100000000E-03 0.  1.
         12    1    3    3    0    0 -0.20588520380E+01 -0.46948040692E+01 -0.20910200492E+00  0.51306705810E+01  0.00000000000E+00 0. -1.
</event>
<event>
 7    1  0.5329250E-013  0.5052884E+02  0.7816164E-02  0.1300439E+00
        -11   -1    0    0    0    0  0.00000000000E+00  0.00000000000E+00  0.45593999997E+02  0.45594000000E+02  0.51100000000E-03 0. -1.
         11   -1    0    0    0    0 -0.00000000000E+00 -0.00000000000E+00 -0.45593999997E+02  0.45594000000E+02  0.51100000000E-03 0.  1.
    9900012    2    1    2    0    0  0.21746995771E+01 -0.26805002115E+02 -0.30494746563E+02  0.50528843287E+02  0.29999949656E+02 0.  0.
         12    1    1    2    0    0 -0.21746995771E+01  0.26805002115E+02  0.30494746563E+02  0.40659156713E+02  0.00000000000E+00 0. -1.
         11    1    3    3    0    0  0.46595013652E+01 -0.14061134983E+02 -0.21006704496E+02  0.25704242919E+02  0.51100000000E-03 0.  1.
        -11    1    3    3    0    0 -0.26780243148E+01 -0.17697376964E+02 -0.65357001148E+01  0.19054772155E+02  0.51100000000E-03 0. -1.
         12    1    3    3    0    0  0.19322252672E+00  0.49535098322E+01 -0.29523419522E+01  0.57698282128E+01  0.00000000000E+00 0. -1.
</event>
<event>
 7    1  0.5329250E-013  0.5052887E+02  0.7816164E-02  0.1300439E+00
        -11   -1    0    0    0    0  0.00000000000E+00  0.00000000000E+00  0.45593999997E+02  0.45594000000E+02  0.51100000000E-03 0.  1.
         11   -1    0    0    0    0 -0.00000000000E+00 -0.00000000000E+00 -0.45593999997E+02  0.45594000000E+02  0.51100000000E-03 0. -1.
    9900012    2    1    2    0    0 -0.13563467166E+02 -0.32211747525E+02  0.20775007075E+02  0.50528865244E+02  0.30000016395E+02 0.  0.
         12    1    1    2    0    0  0.13563467166E+02  0.32211747525E+02 -0.20775007075E+02  0.40659134756E+02  0.00000000000E+00 0. -1.
         11    1    3    3    0    0 -0.39100880615E+01 -0.67261675359E+01  0.17853879330E+02  0.19475397962E+02  0.51100000000E-03 0. -1.
        -11    1    3    3    0    0 -0.37270730785E+01 -0.18566030725E+01  0.51132752948E+01  0.65942120987E+01  0.51100000000E-03 0.  1.
         12    1    3    3    0    0 -0.59263060260E+01 -0.23628976916E+02 -0.21921475503E+01  0.24459255183E+02  0.00000000000E+00 0. -1.
</event>
<event>
 7    1  0.5329250E-013  0.5052888E+02  0.7816164E-02  0.1300439E+00
        -11   -1    0    0    0    0  0.00000000000E+00  0.00000000000E+00  0.45593999997E+02  0.45594000000E+02  0.51100000000E-03 0. -1.
         11   -1    0    0    0    0 -0.00000000000E+00 -0.00000000000E+00 -0.45593999997E+02  0.45594000000E+02  0.51100000000E-03 0.  1.
    9900012    2    1    2    0    0  0.91668063851E+01  0.39036249034E+02  0.67309001689E+01  0.50528879313E+02  0.30000059160E+02 0.  0.
         12    1    1    2    0    0 -0.91668063851E+01 -0.39036249034E+02 -0.67309001689E+01  0.40659120687E+02  0.00000000000E+00 0. -1.
         11    1    3    3    0    0  0.72753465844E+01  0.15731028744E+02  0.12225706199E+01  0.17374999639E+02  0.51100000000E-03 0. -1.
        -11    1    3    3    0    0  0.37633615306E+01  0.28990146134E+01 -0.75028211746E+01  0.88802872464E+01  0.51100000000E-03 0.  1.
         12    1    3    3    0    0 -0.18719017299E+01  0.20406205676E+02  0.13011150724E+02  0.24273592428E+02  0.00000000000E+00 0. -1.
</event>
<event>
 7    1  0.5329250E-013  0.5052899E+02  0.7816164E-02  0.1300438E+00
        -11   -1    0    0    0    0  0.00000000000E+00  0.00000000000E+00  0.45593999997E+02  0.45594000000E+02  0.51100000000E-03 0. -1.
         11   -1    0    0    0    0 -0.00000000000E+00 -0.00000000000E+00 -0.45593999997E+02  0.45594000000E+02  0.51100000000E-03 0.  1.
    9900012    2    1    2    0    0  0.12657737462E+02 -0.17218859892E+02 -0.34589701867E+02  0.50528992033E+02  0.30000401780E+02 0.  0.
         12    1    1    2    0    0 -0.12657737462E+02  0.17218859892E+02  0.34589701867E+02  0.40659007967E+02  0.00000000000E+00 0. -1.
         11    1    3    3    0    0 -0.74079481917E+00 -0.11223931443E+02 -0.79044067110E+01  0.13747911104E+02  0.51100000000E-03 0. -1.
        -11    1    3    3    0    0  0.10394587541E+02 -0.11382239816E+02 -0.85528626828E+01  0.17628224349E+02  0.51100000000E-03 0.  1.
        -12    1    3    3    0    0  0.30039447399E+01  0.53873113671E+01 -0.18132432473E+02  0.19152856580E+02  0.00000000000E+00 0.  1.
</event>
<event>
 7    1  0.5329250E-013  0.5052885E+02  0.7816164E-02  0.1300439E+00
        -11   -1    0    0    0    0  0.00000000000E+00  0.00000000000E+00  0.45593999997E+02  0.45594000000E+02  0.51100000000E-03 0. -1.
         11   -1    0    0    0    0 -0.00000000000E+00 -0.00000000000E+00 -0.45593999997E+02  0.45594000000E+02  0.51100000000E-03 0.  1.
    9900012    2    1    2    0    0  0.30284886940E+02 -0.26892679208E+02 -0.35743001909E+01  0.50528853504E+02  0.29999980710E+02 0.  0.
         12    1    1    2    0    0 -0.30284886940E+02  0.26892679208E+02  0.35743001909E+01  0.40659146496E+02  0.00000000000E+00 0. -1.
         11    1    3    3    0    0  0.97439203537E+01 -0.19603752602E+01 -0.33651044805E+01  0.10493378076E+02  0.51100000000E-03 0. -1.
        -11    1    3    3    0    0  0.21154555935E+02 -0.24846244163E+02 -0.68687784002E+01  0.33347131853E+02  0.51100000000E-03 0.  1.
         12    1    3    3    0    0 -0.61358934956E+00 -0.86059785532E-01  0.66595826899E+01  0.66883435752E+01  0.00000000000E+00 0. -1.
</event>
<event>
 7    1  0.5329250E-013  0.5052879E+02  0.7816164E-02  0.1300439E+00
        -11   -1    0    0    0    0  0.00000000000E+00  0.00000000000E+00  0.45593999997E+02  0.45594000000E+02  0.51100000000E-03 0.  1.
         11   -1    0    0    0    0 -0.00000000000E+00 -0.00000000000E+00 -0.45593999997E+02  0.45594000000E+02  0.51100000000E-03 0. -1.
    9900012    2    1    2    0    0  0.31814743372E+02 -0.13726680799E+02  0.21273735595E+02  0.50528788402E+02  0.29999782827E+02 0.  0.
         12    1    1    2    0    0 -0.31814743372E+02  0.13726680799E+02 -0.21273735595E+02  0.40659211598E+02  0.00000000000E+00 0. -1.
         11    1    3    3    0    0  0.18661634788E+00 -0.10471515168E+01 -0.26863193885E+01  0.28892324377E+01  0.51100000000E-03 0. -1.
        -11    1    3    3    0    0  0.12495649600E+02  0.36498362956E+01  0.17241942430E+02  0.21604331578E+02  0.51100000000E-03 0.  1.
         12    1    3    3    0    0  0.19132477424E+02 -0.16329365578E+02  0.67181125533E+01  0.26035224387E+02  0.00000000000E+00 0. -1.
</event>
<event>
 7    1  0.5329250E-013  0.5052887E+02  0.7816164E-02  0.1300439E+00
        -11   -1    0    0    0    0  0.00000000000E+00  0.00000000000E+00  0.45593999997E+02  0.45594000000E+02  0.51100000000E-03 0.  1.
         11   -1    0    0    0    0 -0.00000000000E+00 -0.00000000000E+00 -0.45593999997E+02  0.45594000000E+02  0.51100000000E-03 0. -1.
    9900012    2    1    2    0    0 -0.36379817008E+02  0.14844718361E+02  0.10455051431E+02  0.50528870039E+02  0.30000030972E+02 0.  0.
         12    1    1    2    0    0  0.36379817008E+02 -0.14844718361E+02 -0.10455051431E+02  0.40659129961E+02  0.00000000000E+00 0. -1.
         11    1    3    3    0    0 -0.11819408371E+01 -0.19625962275E+01  0.86860111341E+00  0.24501502505E+01  0.51100000000E-03 0. -1.
        -11    1    3    3    0    0 -0.37740881681E+02  0.90442726473E+01  0.92825617021E+01  0.39904122215E+02  0.51100000000E-03 0.  1.
         12    1    3    3    0    0  0.25430055100E+01  0.77630419408E+01  0.30388861559E+00  0.81745975735E+01  0.00000000000E+00 0. -1.
</event>
<event>
 7    1  0.5329250E-013  0.5052886E+02  0.7816164E-02  0.1300439E+00
        -11   -1    0    0    0    0  0.00000000000E+00  0.00000000000E+00  0.45593999997E+02  0.45594000000E+02  0.51100000000E-03 0. -1.
         11   -1    0    0    0    0 -0.00000000000E+00 -0.00000000000E+00 -0.45593999997E+02  0.45594000000E+02  0.51100000000E-03 0.  1.
    9900012    2    1    2    0    0  0.32326311684E+02  0.10241946510E+02 -0.22433845345E+02  0.50528864343E+02  0.30000013658E+02 0.  0.
         12    1    1    2    0    0 -0.32326311684E+02 -0.10241946510E+02  0.22433845345E+02  0.40659135657E+02  0.00000000000E+00 0. -1.
         11    1    3    3    0    0  0.72489890619E+01  0.65590843862E+01 -0.22290058210E+00  0.97785027144E+01  0.51100000000E-03 0. -1.
        -11    1    3    3    0    0  0.10201083912E+02  0.60680861905E+01 -0.22765458557E+02  0.25673914516E+02  0.51100000000E-03 0.  1.
         12    1    3    3    0    0  0.14876238710E+02 -0.23852240663E+01  0.55451379473E+00  0.15076447113E+02  0.00000000000E+00 0. -1.
</event>
<event>
 7    1  0.5329250E-013  0.5052901E+02  0.7816164E-02  0.1300438E+00
        -11   -1    0    0    0    0  0.00000000000E+00  0.00000000000E+00  0.45593999997E+02  0.45594000000E+02  0.51100000000E-03 0. -1.
         11   -1    0    0    0    0 -0.00000000000E+00 -0.00000000000E+00 -0.45593999997E+02  0.45594000000E+02  0.51100000000E-03 0.  1.
    9900012    2    1    2    0    0  0.19824801516E+02 -0.35498185367E+02 -0.98852615592E-01  0.50529007251E+02  0.30000448038E+02 0.  0.
         12    1    1    2    0    0 -0.19824801516E+02  0.35498185367E+02  0.98852615592E-01  0.40658992749E+02  0.00000000000E+00 0. -1.
         11    1    3    3    0    0  0.10702014329E+02  0.28707930776E-01 -0.25089715108E+01  0.10992218755E+02  0.51100000000E-03 0. -1.
        -11    1    3    3    0    0  0.20494994086E+01 -0.84157519738E+01 -0.56988156375E+01  0.10368308881E+02  0.51100000000E-03 0.  1.
         12    1    3    3    0    0  0.70732877781E+01 -0.27111141324E+02  0.81089345328E+01  0.29168479616E+02  0.00000000000E+00 0. -1.
</event>
<event>
 7    1  0.5329250E-013  0.5052887E+02  0.7816164E-02  0.1300439E+00
        -11   -1    0    0    0    0  0.00000000000E+00  0.00000000000E+00  0.45593999997E+02  0.45594000000E+02  0.51100000000E-03 0.  1.
         11   -1    0    0    0    0 -0.00000000000E+00 -0.00000000000E+00 -0.45593999997E+02  0.45594000000E+02  0.51100000000E-03 0. -1.
    9900012    2    1    2    0    0 -0.37393192456E+02 -0.14999896411E+02  0.54696522521E+01  0.50528870273E+02  0.30000031682E+02 0.  0.
         12    1    1    2    0    0  0.37393192456E+02  0.14999896411E+02 -0.54696522521E+01  0.40659129727E+02  0.00000000000E+00 0. -1.
         11    1    3    3    0    0 -0.69183245017E+01  0.19914976407E+01  0.47648193072E+01  0.86332369396E+01  0.51100000000E-03 0. -1.
        -11    1    3    3    0    0 -0.87308027783E+01  0.55403857116E+01  0.21017531342E+01  0.10551784564E+02  0.51100000000E-03 0.  1.
        -12    1    3    3    0    0 -0.21744065176E+02 -0.22531779763E+02 -0.13969201893E+01  0.31343848770E+02  0.00000000000E+00 0.  1.
</event>
<event>
 7    1  0.5329250E-013  0.5052885E+02  0.7816164E-02  0.1300439E+00
        -11   -1    0    0    0    0  0.00000000000E+00  0.00000000000E+00  0.45593999997E+02  0.45594000000E+02  0.51100000000E-03 0.  1.
         11   -1    0    0    0    0 -0.00000000000E+00 -0.00000000000E+00 -0.45593999997E+02  0.45594000000E+02  0.51100000000E-03 0. -1.
    9900012    2    1    2    0    0 -0.12240499850E+02  0.22129656145E+02  0.31837314459E+02  0.50528854539E+02  0.29999983855E+02 0.  0.
         12    1    1    2    0    0  0.12240499850E+02 -0.22129656145E+02 -0.31837314459E+02  0.40659145461E+02  0.00000000000E+00 0. -1.
         11    1    3    3    0    0  0.60142485914E+01  0.31481710568E+01  0.73916994656E+01  0.10035904960E+02  0.51100000000E-03 0. -1.
        -11    1    3    3    0    0 -0.36614604617E+01  0.17110012158E+02  0.14614139308E+02  0.22797628752E+02  0.51100000000E-03 0.  1.
         12    1    3    3    0    0 -0.14593287979E+02  0.18714729306E+01  0.98314756859E+01  0.17695320826E+02  0.00000000000E+00 0. -1.
</event>
<event>
 7    1  0.5329250E-013  0.5052886E+02  0.7816164E-02  0.1300439E+00
        -11   -1    0    0    0    0  0.00000000000E+00  0.00000000000E+00  0.45593999997E+02  0.45594000000E+02  0.51100000000E-03 0. -1.
         11   -1    0    0    0    0 -0.00000000000E+00 -0.00000000000E+00 -0.45593999997E+02  0.45594000000E+02  0.51100000000E-03 0.  1.
    9900012    2    1    2    0    0 -0.31711338905E+02 -0.18475847122E+02 -0.17498566263E+02  0.50528858798E+02  0.29999996803E+02 0.  0.
         12    1    1    2    0    0  0.31711338905E+02  0.18475847122E+02  0.17498566263E+02  0.40659141202E+02  0.00000000000E+00 0. -1.
         11    1    3    3    0    0 -0.31990909877E+01 -0.12236142108E+02 -0.44343229214E+01  0.13402260140E+02  0.51100000000E-03 0. -1.
        -11    1    3    3    0    0 -0.28006311690E+01 -0.83536871738E+01 -0.48202662224E+01  0.10043036944E+02  0.51100000000E-03 0.  1.
        -12    1    3    3    0    0 -0.25711616748E+02  0.21139821599E+01 -0.82439771190E+01  0.27083561714E+02  0.00000000000E+00 0.  1.
</event>
<event>
 7    1  0.5329250E-013  0.5052886E+02  0.7816164E-02  0.1300439E+00
        -11   -1    0    0    0    0  0.00000000000E+00  0.00000000000E+00  0.45593999997E+02  0.45594000000E+02  0.51100000000E-03 0. -1.
         11   -1    0    0    0    0 -0.00000000000E+00 -0.00000000000E+00 -0.45593999997E+02  0.45594000000E+02  0.51100000000E-03 0.  1.
    9900012    2    1    2    0    0  0.23279381963E+02  0.25449313461E+02 -0.21530644518E+02  0.50528857933E+02  0.29999994174E+02 0.  0.
         12    1    1    2    0    0 -0.23279381963E+02 -0.25449313461E+02  0.21530644518E+02  0.40659142067E+02  0.00000000000E+00 0. -1.
         11    1    3    3    0    0  0.86199749796E+01  0.11856514910E+02  0.17688576866E+01  0.14765153987E+02  0.51100000000E-03 0. -1.
        -11    1    3    3    0    0  0.16494601721E+02  0.35892702355E+01 -0.15863976664E+02  0.23165070745E+02  0.51100000000E-03 0.  1.
         12    1    3    3    0    0 -0.18351947379E+01  0.10003528316E+02 -0.74355255406E+01  0.12598633202E+02  0.00000000000E+00 0. -1.
</event>
<event>
 7    1  0.5329250E-013  0.5052886E+02  0.7816164E-02  0.1300439E+00
        -11   -1    0    0    0    0  0.00000000000E+00  0.00000000000E+00  0.45593999997E+02  0.45594000000E+02  0.51100000000E-03 0.  1.
         11   -1    0    0    0    0 -0.00000000000E+00 -0.00000000000E+00 -0.45593999997E+02  0.45594000000E+02  0.51100000000E-03 0. -1.
    9900012    2    1    2    0    0 -0.46231945708E+01  0.29061852292E+02  0.28057096442E+02  0.50528857763E+02  0.29999993656E+02 0.  0.
         12    1    1    2    0    0  0.46231945708E+01 -0.29061852292E+02 -0.28057096442E+02  0.40659142237E+02  0.00000000000E+00 0. -1.
         11    1    3    3    0    0 -0.18401375465E+01  0.19544114956E+01  0.13902784699E+02  0.14159564017E+02  0.51100000000E-03 0. -1.
        -11    1    3    3    0    0 -0.57326944016E+01  0.10878786093E+02 -0.29097233841E+01  0.12636386445E+02  0.51100000000E-03 0.  1.
         12    1    3    3    0    0  0.29496373773E+01  0.16228654703E+02  0.17064035127E+02  0.23732907301E+02  0.00000000000E+00 0. -1.
</event>
<event>
 7    1  0.5329250E-013  0.5052887E+02  0.7816164E-02  0.1300439E+00
        -11   -1    0    0    0    0  0.00000000000E+00  0.00000000000E+00  0.45593999997E+02  0.45594000000E+02  0.51100000000E-03 0.  1.
         11   -1    0    0    0    0 -0.00000000000E+00 -0.00000000000E+00 -0.45593999997E+02  0.45594000000E+02  0.51100000000E-03 0. -1.
    9900012    2    1    2    0    0  0.17602338151E+02 -0.23108009986E+02 -0.28448948663E+02  0.50528866783E+02  0.30000021074E+02 0.  0.
         12    1    1    2    0    0 -0.17602338151E+02  0.23108009986E+02  0.28448948663E+02  0.40659133217E+02  0.00000000000E+00 0. -1.
         11    1    3    3    0    0  0.24534726897E+01  0.20807674182E+01 -0.47320796447E+01  0.57220362908E+01  0.51100000000E-03 0. -1.
        -11    1    3    3    0    0  0.16713326812E+02 -0.20197924386E+02 -0.27770025885E+02  0.38189864893E+02  0.51100000000E-03 0.  1.
         12    1    3    3    0    0 -0.15644613506E+01 -0.49908530184E+01  0.40531568663E+01  0.66169656000E+01  0.00000000000E+00 0. -1.
</event>
<event>
 7    1  0.5329250E-013  0.5052887E+02  0.7816164E-02  0.1300439E+00
        -11   -1    0    0    0    0  0.00000000000E+00  0.00000000000E+00  0.45593999997E+02  0.45594000000E+02  0.51100000000E-03 0.  1.
         11   -1    0    0    0    0 -0.00000000000E+00 -0.00000000000E+00 -0.45593999997E+02  0.45594000000E+02  0.51100000000E-03 0. -1.
    9900012    2    1    2    0    0 -0.36040572722E+02  0.18134479597E+02  0.50381250041E+01  0.50528868972E+02  0.30000027728E+02 0.  0.
         12    1    1    2    0    0  0.36040572722E+02 -0.18134479597E+02 -0.50381250041E+01  0.40659131028E+02  0.00000000000E+00 0. -1.
         11    1    3    3    0    0 -0.29615194930E+01  0.50355542403E+01 -0.58031441034E+01  0.82343115050E+01  0.51100000000E-03 0.  1.
        -11    1    3    3    0    0 -0.27864446563E+02  0.12971957660E+01  0.61406428409E+01  0.28562520790E+02  0.51100000000E-03 0. -1.
         12    1    3    3    0    0 -0.52146066660E+01  0.11801729591E+02  0.47006262666E+01  0.13732036678E+02  0.00000000000E+00 0. -1.
</event>
<event>
 7    1  0.5329250E-013  0.5052886E+02  0.7816164E-02  0.1300439E+00
        -11   -1    0    0    0    0  0.00000000000E+00  0.00000000000E+00  0.45593999997E+02  0.45594000000E+02  0.51100000000E-03 0. -1.
         11   -1    0    0    0    0 -0.00000000000E+00 -0.00000000000E+00 -0.45593999997E+02  0.45594000000E+02  0.51100000000E-03 0.  1.
    9900012    2    1    2    0    0  0.32485000119E+02 -0.23649641582E+02  0.62116609605E+01  0.50528861893E+02  0.30000006211E+02 0.  0.
         12    1    1    2    0    0 -0.32485000119E+02  0.23649641582E+02 -0.62116609605E+01  0.40659138107E+02  0.00000000000E+00 0. -1.
         11    1    3    3    0    0  0.36058196137E+01 -0.11291793559E+02  0.75701052337E+01  0.14064602034E+02  0.51100000000E-03 0. -1.
        -11    1    3    3    0    0  0.17277194455E+02 -0.12541199397E+02  0.66554290305E+01  0.22362420853E+02  0.51100000000E-03 0.  1.
         12    1    3    3    0    0  0.11601986050E+02  0.18335137418E+00 -0.80138733038E+01  0.14101839006E+02  0.00000000000E+00 0. -1.
</event>
<event>
 7    1  0.5329250E-013  0.5052884E+02  0.7816164E-02  0.1300439E+00
        -11   -1    0    0    0    0  0.00000000000E+00  0.00000000000E+00  0.45593999997E+02  0.45594000000E+02  0.51100000000E-03 0.  1.
         11   -1    0    0    0    0 -0.00000000000E+00 -0.00000000000E+00 -0.45593999997E+02  0.45594000000E+02  0.51100000000E-03 0. -1.
    9900012    2    1    2    0    0  0.12342004492E+02 -0.38510268852E+02 -0.42191877085E+01  0.50528838341E+02  0.29999934620E+02 0.  0.
         12    1    1    2    0    0 -0.12342004492E+02  0.38510268852E+02  0.42191877085E+01  0.40659161659E+02  0.00000000000E+00 0. -1.
         11    1    3    3    0    0 -0.59934970943E+01 -0.12388415475E+02 -0.14395194998E+01  0.13837162355E+02  0.51100000000E-03 0. -1.
        -11    1    3    3    0    0  0.94499688246E+01 -0.19343706057E+02  0.61464435648E+01  0.22388828544E+02  0.51100000000E-03 0.  1.
         12    1    3    3    0    0  0.88855327616E+01 -0.67781473203E+01 -0.89261117736E+01  0.14302847442E+02  0.00000000000E+00 0. -1.
</event>
<event>
 7    1  0.5329250E-013  0.5052886E+02  0.7816164E-02  0.1300439E+00
        -11   -1    0    0    0    0  0.00000000000E+00  0.00000000000E+00  0.45593999997E+02  0.45594000000E+02  0.51100000000E-03 0. -1.
         11   -1    0    0    0    0 -0.00000000000E+00 -0.00000000000E+00 -0.45593999997E+02  0.45594000000E+02  0.51100000000E-03 0.  1.
    9900012    2    1    2    0    0 -0.17243821093E+02 -0.30494098795E+02 -0.20637975627E+02  0.50528862464E+02  0.30000007946E+02 0.  0.
         12    1    1    2    0    0  0.17243821093E+02  0.30494098795E+02  0.20637975627E+02  0.40659137536E+02  0.00000000000E+00 0. -1.
         11    1    3    3    0    0  0.26481255318E+01  0.55290795619E-01 -0.14986856608E+01  0.30433016405E+01  0.51100000000E-03 0. -1.
        -11    1    3    3    0    0 -0.11356248079E+02 -0.15695387580E+01  0.46123634703E+00  0.11473472080E+02  0.51100000000E-03 0.  1.
        -12    1    3    3    0    0 -0.85356985460E+01 -0.28979850832E+02 -0.19600526313E+02  0.36012088744E+02  0.00000000000E+00 0.  1.
</event>
<event>
 7    1  0.5373563E-013  0.5052886E+02  0.7816164E-02  0.1300439E+00
        -11   -1    0    0    0    0  0.00000000000E+00  0.00000000000E+00  0.45593999997E+02  0.45594000000E+02  0.51100000000E-03 0. -1.
         11   -1    0    0    0    0 -0.00000000000E+00 -0.00000000000E+00 -0.45593999997E+02  0.45594000000E+02  0.51100000000E-03 0.  1.
    9900012    2    1    2    0    0 -0.22213987237E+02  0.23883341687E+02 -0.24275304547E+02  0.50528860192E+02  0.30000001039E+02 0.  0.
         12    1    1    2    0    0  0.22213987237E+02 -0.23883341687E+02  0.24275304547E+02  0.40659139808E+02  0.00000000000E+00 0. -1.
         11    1    3    3    0    0  0.49680368381E+01  0.12079955553E+00 -0.32981971557E+01  0.59644016713E+01  0.51100000000E-03 0. -1.
        -11    1    3    3    0    0 -0.74594745095E+01  0.71935552827E+01 -0.14813747153E+02  0.18078664290E+02  0.51100000000E-03 0.  1.
        -12    1    3    3    0    0 -0.19722549566E+02  0.16568986849E+02 -0.61633602385E+01  0.26485794230E+02  0.00000000000E+00 0.  1.
</event>
<event>
 7    1  0.5329250E-013  0.5052886E+02  0.7816164E-02  0.1300439E+00
        -11   -1    0    0    0    0  0.00000000000E+00  0.00000000000E+00  0.45593999997E+02  0.45594000000E+02  0.51100000000E-03 0.  1.
         11   -1    0    0    0    0 -0.00000000000E+00 -0.00000000000E+00 -0.45593999997E+02  0.45594000000E+02  0.51100000000E-03 0. -1.
    9900012    2    1    2    0    0  0.15493080847E+02 -0.35830793687E+02  0.11370337028E+02  0.50528857185E+02  0.29999991898E+02 0.  0.
         12    1    1    2    0    0 -0.15493080847E+02  0.35830793687E+02 -0.11370337028E+02  0.40659142815E+02  0.00000000000E+00 0. -1.
         11    1    3    3    0    0 -0.48284876826E+01 -0.99221397348E+01  0.94843358735E+01  0.14550456262E+02  0.51100000000E-03 0. -1.
        -11    1    3    3    0    0 -0.39226319331E+00 -0.46613469720E+01 -0.34714966497E+01  0.58252309187E+01  0.51100000000E-03 0.  1.
        -12    1    3    3    0    0  0.20713831723E+02 -0.21247306980E+02  0.53574978041E+01  0.30153170004E+02  0.00000000000E+00 0.  1.
</event>
<event>
 7    1  0.5329250E-013  0.5052885E+02  0.7816164E-02  0.1300439E+00
        -11   -1    0    0    0    0  0.00000000000E+00  0.00000000000E+00  0.45593999997E+02  0.45594000000E+02  0.51100000000E-03 0.  1.
         11   -1    0    0    0    0 -0.00000000000E+00 -0.00000000000E+00 -0.45593999997E+02  0.45594000000E+02  0.51100000000E-03 0. -1.
    9900012    2    1    2    0    0  0.44380563163E+01 -0.39727234759E+02  0.74307843615E+01  0.50528854882E+02  0.29999984901E+02 0.  0.
         12    1    1    2    0    0 -0.44380563163E+01  0.39727234759E+02 -0.74307843615E+01  0.40659145118E+02  0.00000000000E+00 0. -1.
         11    1    3    3    0    0  0.48065306515E+01 -0.36234968157E+01 -0.10031848022E+01  0.61023639752E+01  0.51100000000E-03 0. -1.
        -11    1    3    3    0    0  0.21365618491E+01 -0.32205836152E+02  0.15634577826E+02  0.35863920629E+02  0.51100000000E-03 0.  1.
         12    1    3    3    0    0 -0.25050361844E+01 -0.38979017908E+01 -0.72006086627E+01  0.85625702782E+01  0.00000000000E+00 0. -1.
</event>
<event>
 7    1  0.5329250E-013  0.5052886E+02  0.7816164E-02  0.1300439E+00
        -11   -1    0    0    0    0  0.00000000000E+00  0.00000000000E+00  0.45593999997E+02  0.45594000000E+02  0.51100000000E-03 0. -1.
         11   -1    0    0    0    0 -0.00000000000E+00 -0.00000000000E+00 -0.45593999997E+02  0.45594000000E+02  0.51100000000E-03 0.  1.
    9900012    2    1    2    0    0  0.40375880553E+02  0.16246445455E+01 -0.45071521147E+01  0.50528860554E+02  0.30000002139E+02 0.  0.
         12    1    1    2    0    0 -0.40375880553E+02 -0.16246445455E+01  0.45071521147E+01  0.40659139446E+02  0.00000000000E+00 0. -1.
         11    1    3    3    0    0  0.28776642571E+01 -0.42746897687E+01 -0.58457654653E+01  0.77927465204E+01  0.51100000000E-03 0. -1.
        -11    1    3    3    0    0  0.38520809304E+02  0.74330961461E+01 -0.16035417044E+01  0.39264169595E+02  0.51100000000E-03 0.  1.
         12    1    3    3    0    0 -0.10225930077E+01 -0.15337618319E+01  0.29421550550E+01  0.34719444385E+01  0.00000000000E+00 0. -1.
</event>
<event>
 7    1  0.5329250E-013  0.5052885E+02  0.7816164E-02  0.1300439E+00
        -11   -1    0    0    0    0  0.00000000000E+00  0.00000000000E+00  0.45593999997E+02  0.45594000000E+02  0.51100000000E-03 0. -1.
         11   -1    0    0    0    0 -0.00000000000E+00 -0.00000000000E+00 -0.45593999997E+02  0.45594000000E+02  0.51100000000E-03 0.  1.
    9900012    2    1    2    0    0 -0.26049213435E+02  0.50709757215E+01 -0.30804059476E+02  0.50528851023E+02  0.29999973169E+02 0.  0.
         12    1    1    2    0    0  0.26049213435E+02 -0.50709757215E+01  0.30804059476E+02  0.40659148977E+02  0.00000000000E+00 0. -1.
         11    1    3    3    0    0 -0.18428732236E+02 -0.31927751086E+01 -0.15469148011E+02  0.24271516746E+02  0.51100000000E-03 0.  1.
        -11    1    3    3    0    0 -0.79595562859E+00 -0.57065743588E+01 -0.43762376704E+01  0.72353294800E+01  0.51100000000E-03 0. -1.
         12    1    3    3    0    0 -0.68245255708E+01  0.13970325189E+02 -0.10958673795E+02  0.19022004797E+02  0.00000000000E+00 0. -1.
</event>
<event>
 7    1  0.5329250E-013  0.5052886E+02  0.7816164E-02  0.1300439E+00
        -11   -1    0    0    0    0  0.00000000000E+00  0.00000000000E+00  0.45593999997E+02  0.45594000000E+02  0.51100000000E-03 0. -1.
         11   -1    0    0    0    0 -0.00000000000E+00 -0.00000000000E+00 -0.45593999997E+02  0.45594000000E+02  0.51100000000E-03 0.  1.
    9900012    2    1    2    0    0 -0.39474576873E+02  0.91363764090E+01  0.33838097920E+01  0.50528858815E+02  0.29999996854E+02 0.  0.
         12    1    1    2    0    0  0.39474576873E+02 -0.91363764090E+01 -0.33838097920E+01  0.40659141185E+02  0.00000000000E+00 0. -1.
         11    1    3    3    0    0 -0.23145426753E+02  0.11319391461E+02  0.31804380694E+01  0.25960635377E+02  0.51100000000E-03 0. -1.
        -11    1    3    3    0    0  0.57004613373E+00  0.35007211946E+01 -0.48758753819E+01  0.60294413073E+01  0.51100000000E-03 0.  1.
        -12    1    3    3    0    0 -0.16899196254E+02 -0.56837362461E+01  0.50792471046E+01  0.18538782131E+02  0.00000000000E+00 0.  1.
</event>
<event>
 7    1  0.5329250E-013  0.5052886E+02  0.7816164E-02  0.1300439E+00
        -11   -1    0    0    0    0  0.00000000000E+00  0.00000000000E+00  0.45593999997E+02  0.45594000000E+02  0.51100000000E-03 0.  1.
         11   -1    0    0    0    0 -0.00000000000E+00 -0.00000000000E+00 -0.45593999997E+02  0.45594000000E+02  0.51100000000E-03 0. -1.
    9900012    2    1    2    0    0 -0.27168234226E+02  0.30113569641E+02 -0.28680911634E+01  0.50528856202E+02  0.29999988912E+02 0.  0.
         12    1    1    2    0    0  0.27168234226E+02 -0.30113569641E+02  0.28680911634E+01  0.40659143798E+02  0.00000000000E+00 0. -1.
         11    1    3    3    0    0 -0.39594497612E+01  0.10894638887E+02 -0.45029382725E+01  0.12435708755E+02  0.51100000000E-03 0. -1.
        -11    1    3    3    0    0 -0.15077286397E+02  0.59997848176E+01 -0.96722581537E+01  0.18891123868E+02  0.51100000000E-03 0.  1.
        -12    1    3    3    0    0 -0.81314980682E+01  0.13219145936E+02  0.11307105263E+02  0.19202023579E+02  0.00000000000E+00 0.  1.
</event>
<event>
 7    1  0.5329250E-013  0.5052886E+02  0.7816164E-02  0.1300439E+00
        -11   -1    0    0    0    0  0.00000000000E+00  0.00000000000E+00  0.45593999997E+02  0.45594000000E+02  0.51100000000E-03 0. -1.
         11   -1    0    0    0    0 -0.00000000000E+00 -0.00000000000E+00 -0.45593999997E+02  0.45594000000E+02  0.51100000000E-03 0.  1.
    9900012    2    1    2    0    0  0.12806868105E+02  0.92512882920E+01 -0.37464161752E+02  0.50528860542E+02  0.30000002103E+02 0.  0.
         12    1    1    2    0    0 -0.12806868105E+02 -0.92512882920E+01  0.37464161752E+02  0.40659139458E+02  0.00000000000E+00 0. -1.
         11    1    3    3    0    0  0.95168429895E+01  0.12274364712E+02 -0.14454768440E+02  0.21217225560E+02  0.51100000000E-03 0. -1.
        -11    1    3    3    0    0  0.41207292871E+00  0.17414036178E+01  0.25711017940E+01  0.31325477419E+01  0.51100000000E-03 0.  1.
        -12    1    3    3    0    0  0.28779521869E+01 -0.47644800382E+01 -0.25580495106E+02  0.26179087240E+02  0.00000000000E+00 0.  1.
</event>
<event>
 7    1  0.5329250E-013  0.5052888E+02  0.7816164E-02  0.1300439E+00
        -11   -1    0    0    0    0  0.00000000000E+00  0.00000000000E+00  0.45593999997E+02  0.45594000000E+02  0.51100000000E-03 0. -1.
         11   -1    0    0    0    0 -0.00000000000E+00 -0.00000000000E+00 -0.45593999997E+02  0.45594000000E+02  0.51100000000E-03 0.  1.
    9900012    2    1    2    0    0 -0.18777018544E+02 -0.17496455677E+01 -0.36021197011E+02  0.50528876558E+02  0.30000050785E+02 0.  0.
         12    1    1    2    0    0  0.18777018544E+02  0.17496455677E+01  0.36021197011E+02  0.40659123442E+02  0.00000000000E+00 0. -1.
         11    1    3    3    0    0 -0.61650899080E+01 -0.51028533344E-01 -0.29256587317E+01  0.68242521026E+01  0.51100000000E-03 0. -1.
        -11    1    3    3    0    0 -0.98478009285E+01 -0.12631568727E+02 -0.25483814623E+02  0.30099178056E+02  0.51100000000E-03 0.  1.
         12    1    3    3    0    0 -0.27641277072E+01  0.10932951693E+02 -0.76117236564E+01  0.13605446399E+02  0.00000000000E+00 0. -1.
</event>
<event>
 7    1  0.5329250E-013  0.5052886E+02  0.7816164E-02  0.1300439E+00
        -11   -1    0    0    0    0  0.00000000000E+00  0.00000000000E+00  0.45593999997E+02  0.45594000000E+02  0.51100000000E-03 0. -1.
         11   -1    0    0    0    0 -0.00000000000E+00 -0.00000000000E+00 -0.45593999997E+02  0.45594000000E+02  0.51100000000E-03 0.  1.
    9900012    2    1    2    0    0 -0.35420604061E+02  0.18464793854E+02 -0.75893039737E+01  0.50528864016E+02  0.30000012663E+02 0.  0.
         12    1    1    2    0    0  0.35420604061E+02 -0.18464793854E+02  0.75893039737E+01  0.40659135984E+02  0.00000000000E+00 0. -1.
         11    1    3    3    0    0 -0.13658557024E+02  0.43994495721E+01  0.83563380518E+00  0.14373921546E+02  0.51100000000E-03 0. -1.
        -11    1    3    3    0    0 -0.67873602933E+01  0.17628344446E+02 -0.86136261756E+01  0.20761053534E+02  0.51100000000E-03 0.  1.
         12    1    3    3    0    0 -0.14974686744E+02 -0.35630001641E+01  0.18868839673E+00  0.15393888936E+02  0.00000000000E+00 0. -1.
</event>
<event>
 7    1  0.5329250E-013  0.5052886E+02  0.7816164E-02  0.1300439E+00
        -11   -1    0    0    0    0  0.00000000000E+00  0.00000000000E+00  0.45593999997E+02  0.45594000000E+02  0.51100000000E-03 0.  1.
         11   -1    0    0    0    0 -0.00000000000E+00 -0.00000000000E+00 -0.45593999997E+02  0.45594000000E+02  0.51100000000E-03 0. -1.
    9900012    2    1    2    0    0 -0.39683058363E+02  0.19670223508E+01  0.86343232447E+01  0.50528857905E+02  0.29999994089E+02 0.  0.
         12    1    1    2    0    0  0.39683058363E+02 -0.19670223508E+01 -0.86343232447E+01  0.40659142095E+02  0.00000000000E+00 0. -1.
         11    1    3    3    0    0 -0.15522613567E+02 -0.87806545117E+01  0.70206568493E+01  0.19166143286E+02  0.51100000000E-03 0. -1.
        -11    1    3    3    0    0 -0.15374648193E+02 -0.12009252809E+01 -0.32390516408E+01  0.15757965744E+02  0.51100000000E-03 0.  1.
         12    1    3    3    0    0 -0.87857966029E+01  0.11948602143E+02  0.48527180362E+01  0.15604748875E+02  0.00000000000E+00 0. -1.
</event>
<event>
 7    1  0.5329250E-013  0.5052884E+02  0.7816164E-02  0.1300439E+00
        -11   -1    0    0    0    0  0.00000000000E+00  0.00000000000E+00  0.45593999997E+02  0.45594000000E+02  0.51100000000E-03 0.  1.
         11   -1    0    0    0    0 -0.00000000000E+00 -0.00000000000E+00 -0.45593999997E+02  0.45594000000E+02  0.51100000000E-03 0. -1.
    9900012    2    1    2    0    0  0.99719539115E+01  0.36412859961E+02  0.15094060846E+02  0.50528844719E+02  0.29999954009E+02 0.  0.
         12    1    1    2    0    0 -0.99719539115E+01 -0.36412859961E+02 -0.15094060846E+02  0.40659155281E+02  0.00000000000E+00 0. -1.
         11    1    3    3    0    0 -0.12110772869E+01  0.25667782140E+02  0.42911816385E+01  0.26052178187E+02  0.51100000000E-03 0. -1.
        -11    1    3    3    0    0 -0.35164343867E+00  0.10020518327E+02  0.72915597931E+01  0.12397632239E+02  0.51100000000E-03 0.  1.
         12    1    3    3    0    0  0.11534674637E+02  0.72455949404E+00  0.35113194141E+01  0.12079034294E+02  0.00000000000E+00 0. -1.
</event>
<event>
 7    1  0.5329250E-013  0.5052888E+02  0.7816164E-02  0.1300439E+00
        -11   -1    0    0    0    0  0.00000000000E+00  0.00000000000E+00  0.45593999997E+02  0.45594000000E+02  0.51100000000E-03 0. -1.
         11   -1    0    0    0    0 -0.00000000000E+00 -0.00000000000E+00 -0.45593999997E+02  0.45594000000E+02  0.51100000000E-03 0.  1.
    9900012    2    1    2    0    0 -0.33507091825E+02  0.45657177313E+01 -0.22574170925E+02  0.50528878343E+02  0.30000056212E+02 0.  0.
         12    1    1    2    0    0  0.33507091825E+02 -0.45657177313E+01  0.22574170925E+02  0.40659121657E+02  0.00000000000E+00 0. -1.
         11    1    3    3    0    0 -0.10284537411E+02  0.12074833342E+02 -0.89546289284E+00  0.15886320029E+02  0.51100000000E-03 0. -1.
        -11    1    3    3    0    0 -0.19794341617E+02 -0.12055524676E+01 -0.15410110623E+02  0.25114554076E+02  0.51100000000E-03 0.  1.
        -12    1    3    3    0    0 -0.34282127964E+01 -0.63035631431E+01 -0.62685974096E+01  0.95280042380E+01  0.00000000000E+00 0.  1.
</event>
<event>
 7    1  0.5329250E-013  0.5052886E+02  0.7816164E-02  0.1300439E+00
        -11   -1    0    0    0    0  0.00000000000E+00  0.00000000000E+00  0.45593999997E+02  0.45594000000E+02  0.51100000000E-03 0.  1.
         11   -1    0    0    0    0 -0.00000000000E+00 -0.00000000000E+00 -0.45593999997E+02  0.45594000000E+02  0.51100000000E-03 0. -1.
    9900012    2    1    2    0    0  0.19235572483E+02  0.31443936686E+02  0.17159169429E+02  0.50528862053E+02  0.30000006696E+02 0.  0.
         12    1    1    2    0    0 -0.19235572483E+02 -0.31443936686E+02 -0.17159169429E+02  0.40659137947E+02  0.00000000000E+00 0. -1.
         11    1    3    3    0    0  0.10156908333E+02  0.10568915618E+01 -0.20009849018E+01  0.10405947699E+02  0.51100000000E-03 0. -1.
        -11    1    3    3    0    0  0.78006167981E+01  0.31387930224E+02  0.14989341827E+02  0.35647330263E+02  0.51100000000E-03 0.  1.
         12    1    3    3    0    0  0.12780473520E+01 -0.10008850998E+01  0.41708125044E+01  0.44755840919E+01  0.00000000000E+00 0. -1.
</event>
<event>
 7    1  0.5329250E-013  0.5052888E+02  0.7816164E-02  0.1300439E+00
        -11   -1    0    0    0    0  0.00000000000E+00  0.00000000000E+00  0.45593999997E+02  0.45594000000E+02  0.51100000000E-03 0.  1.
         11   -1    0    0    0    0 -0.00000000000E+00 -0.00000000000E+00 -0.45593999997E+02  0.45594000000E+02  0.51100000000E-03 0. -1.
    9900012    2    1    2    0    0  0.10794868253E+02  0.35043876953E+02  0.17565930671E+02  0.50528875405E+02  0.30000047280E+02 0.  0.
         12    1    1    2    0    0 -0.10794868253E+02 -0.35043876953E+02 -0.17565930671E+02  0.40659124595E+02  0.00000000000E+00 0. -1.
         11    1    3    3    0    0  0.61951107236E+01  0.23515413510E+02  0.51442580985E+01  0.24855934122E+02  0.51100000000E-03 0. -1.
        -11    1    3    3    0    0  0.80286603257E+01  0.82611662631E+01  0.16014998870E+02  0.19727808893E+02  0.51100000000E-03 0.  1.
         12    1    3    3    0    0 -0.34289027961E+01  0.32672971802E+01 -0.35933262978E+01  0.59451323898E+01  0.00000000000E+00 0. -1.
</event>
<event>
 7    1  0.5329250E-013  0.5052886E+02  0.7816164E-02  0.1300439E+00
        -11   -1    0    0    0    0  0.00000000000E+00  0.00000000000E+00  0.45593999997E+02  0.45594000000E+02  0.51100000000E-03 0.  1.
         11   -1    0    0    0    0 -0.00000000000E+00 -0.00000000000E+00 -0.45593999997E+02  0.45594000000E+02  0.51100000000E-03 0. -1.
    9900012    2    1    2    0    0 -0.26101940073E+00 -0.72147288205E+01  0.40013062634E+02  0.50528860506E+02  0.30000001993E+02 0.  0.
         12    1    1    2    0    0  0.26101940073E+00  0.72147288205E+01 -0.40013062634E+02  0.40659139494E+02  0.00000000000E+00 0. -1.
         11    1    3    3    0    0  0.85203729521E+00  0.41559079347E+01  0.16537743445E+01  0.45532964056E+01  0.51100000000E-03 0. -1.
        -11    1    3    3    0    0  0.84951065043E+01 -0.53466693601E+01  0.60174574301E+01  0.11703140687E+02  0.51100000000E-03 0.  1.
        -12    1    3    3    0    0 -0.96081632002E+01 -0.60239673950E+01  0.32341830859E+02  0.34272423413E+02  0.00000000000E+00 0.  1.
</event>
<event>
 7    1  0.5329250E-013  0.5052885E+02  0.7816164E-02  0.1300439E+00
        -11   -1    0    0    0    0  0.00000000000E+00  0.00000000000E+00  0.45593999997E+02  0.45594000000E+02  0.51100000000E-03 0. -1.
         11   -1    0    0    0    0 -0.00000000000E+00 -0.00000000000E+00 -0.45593999997E+02  0.45594000000E+02  0.51100000000E-03 0.  1.
    9900012    2    1    2    0    0 -0.10843442125E+02  0.14852832013E+02 -0.36262644837E+02  0.50528852610E+02  0.29999977994E+02 0.  0.
         12    1    1    2    0    0  0.10843442125E+02 -0.14852832013E+02  0.36262644837E+02  0.40659147390E+02  0.00000000000E+00 0. -1.
         11    1    3    3    0    0  0.19838098805E+01  0.24128809480E+01  0.13567536909E+01  0.34056243113E+01  0.51100000000E-03 0. -1.
        -11    1    3    3    0    0 -0.11840004737E+02  0.37182959819E+00 -0.60291277020E+01  0.13291890404E+02  0.51100000000E-03 0.  1.
        -12    1    3    3    0    0 -0.98724726867E+00  0.12068121466E+02 -0.31590270826E+02  0.33831337895E+02  0.00000000000E+00 0.  1.
</event>
<event>
 7    1  0.5329250E-013  0.5052885E+02  0.7816164E-02  0.1300439E+00
        -11   -1    0    0    0    0  0.00000000000E+00  0.00000000000E+00  0.45593999997E+02  0.45594000000E+02  0.51100000000E-03 0.  1.
         11   -1    0    0    0    0 -0.00000000000E+00 -0.00000000000E+00 -0.45593999997E+02  0.45594000000E+02  0.51100000000E-03 0. -1.
    9900012    2    1    2    0    0 -0.78713096228E+01  0.28997634632E+01  0.39784424977E+02  0.50528848336E+02  0.29999965001E+02 0.  0.
         12    1    1    2    0    0  0.78713096228E+01 -0.28997634632E+01 -0.39784424977E+02  0.40659151664E+02  0.00000000000E+00 0. -1.
         11    1    3    3    0    0  0.35961318506E+01 -0.39815261319E+01  0.28899714382E+01  0.60939847227E+01  0.51100000000E-03 0. -1.
        -11    1    3    3    0    0 -0.98176596464E+01  0.77749761681E+01  0.39378438843E+02  0.41321884532E+02  0.51100000000E-03 0.  1.
         12    1    3    3    0    0 -0.16497818269E+01 -0.89368657302E+00 -0.24839853040E+01  0.31129790808E+01  0.00000000000E+00 0. -1.
</event>
<event>
 7    1  0.5329250E-013  0.5052886E+02  0.7816164E-02  0.1300439E+00
        -11   -1    0    0    0    0  0.00000000000E+00  0.00000000000E+00  0.45593999997E+02  0.45594000000E+02  0.51100000000E-03 0.  1.
         11   -1    0    0    0    0 -0.00000000000E+00 -0.00000000000E+00 -0.45593999997E+02  0.45594000000E+02  0.51100000000E-03 0. -1.
    9900012    2    1    2    0    0 -0.25783600556E+02 -0.15538742661E+02  0.27329820304E+02  0.50528860081E+02  0.30000000701E+02 0.  0.
         12    1    1    2    0    0  0.25783600556E+02  0.15538742661E+02 -0.27329820304E+02  0.40659139919E+02  0.00000000000E+00 0. -1.
         11    1    3    3    0    0 -0.40924791623E+01 -0.91408189679E+01  0.14641069498E+02  0.17738767528E+02  0.51100000000E-03 0. -1.
        -11    1    3    3    0    0  0.29360026580E+01  0.14845133900E+01  0.46794489889E+01  0.57202390434E+01  0.51100000000E-03 0.  1.
        -12    1    3    3    0    0 -0.24627124052E+02 -0.78824370829E+01  0.80093018175E+01  0.27069853510E+02  0.00000000000E+00 0.  1.
</event>
<event>
 7    1  0.5329250E-013  0.5052887E+02  0.7816164E-02  0.1300439E+00
        -11   -1    0    0    0    0  0.00000000000E+00  0.00000000000E+00  0.45593999997E+02  0.45594000000E+02  0.51100000000E-03 0.  1.
         11   -1    0    0    0    0 -0.00000000000E+00 -0.00000000000E+00 -0.45593999997E+02  0.45594000000E+02  0.51100000000E-03 0. -1.
    9900012    2    1    2    0    0 -0.22756819650E+02  0.28202119115E+02  0.18437252830E+02  0.50528872426E+02  0.30000038225E+02 0.  0.
         12    1    1    2    0    0  0.22756819650E+02 -0.28202119115E+02 -0.18437252830E+02  0.40659127574E+02  0.00000000000E+00 0. -1.
         11    1    3    3    0    0 -0.13237637354E+02  0.23455298426E+02 -0.76674929043E-01  0.26933101312E+02  0.51100000000E-03 0. -1.
        -11    1    3    3    0    0 -0.21659173501E+01  0.54920420113E+01  0.35050553473E+01  0.68657946860E+01  0.51100000000E-03 0.  1.
         12    1    3    3    0    0 -0.73532649461E+01 -0.74522132262E+00  0.15008872412E+02  0.16729976428E+02  0.00000000000E+00 0. -1.
</event>
<event>
 7    1  0.5329250E-013  0.5052887E+02  0.7816164E-02  0.1300439E+00
        -11   -1    0    0    0    0  0.00000000000E+00  0.00000000000E+00  0.45593999997E+02  0.45594000000E+02  0.51100000000E-03 0. -1.
         11   -1    0    0    0    0 -0.00000000000E+00 -0.00000000000E+00 -0.45593999997E+02  0.45594000000E+02  0.51100000000E-03 0.  1.
    9900012    2    1    2    0    0 -0.34716921623E+02 -0.17609973432E+02  0.11738370016E+02  0.50528866439E+02  0.30000020029E+02 0.  0.
         12    1    1    2    0    0  0.34716921623E+02  0.17609973432E+02 -0.11738370016E+02  0.40659133561E+02  0.00000000000E+00 0. -1.
         11    1    3    3    0    0 -0.10975697431E+02 -0.81717342137E+01  0.30122196729E+01  0.14011304071E+02  0.51100000000E-03 0. -1.
        -11    1    3    3    0    0 -0.80949108329E+01  0.65306646351E+01 -0.35777332833E+01  0.10998969846E+02  0.51100000000E-03 0.  1.
         12    1    3    3    0    0 -0.15646313359E+02 -0.15968903853E+02  0.12303883626E+02  0.25518592522E+02  0.00000000000E+00 0. -1.
</event>
<event>
 7    1  0.5329250E-013  0.5052887E+02  0.7816164E-02  0.1300439E+00
        -11   -1    0    0    0    0  0.00000000000E+00  0.00000000000E+00  0.45593999997E+02  0.45594000000E+02  0.51100000000E-03 0.  1.
         11   -1    0    0    0    0 -0.00000000000E+00 -0.00000000000E+00 -0.45593999997E+02  0.45594000000E+02  0.51100000000E-03 0. -1.
    9900012    2    1    2    0    0  0.23453423751E+02  0.19401571721E+02  0.26957021220E+02  0.50528867398E+02  0.30000022942E+02 0.  0.
         12    1    1    2    0    0 -0.23453423751E+02 -0.19401571721E+02 -0.26957021220E+02  0.40659132602E+02  0.00000000000E+00 0. -1.
         11    1    3    3    0    0  0.12734120566E+01  0.90159864933E+01  0.10870040843E+02  0.14179822951E+02  0.51100000000E-03 0. -1.
        -11    1    3    3    0    0  0.38049144158E+01  0.10006453708E+02 -0.16207722909E+01  0.10827437028E+02  0.51100000000E-03 0.  1.
        -12    1    3    3    0    0  0.18375097279E+02  0.37913152039E+00  0.17707752667E+02  0.25521607419E+02  0.00000000000E+00 0.  1.
</event>
<event>
 7    1  0.5329250E-013  0.5052886E+02  0.7816164E-02  0.1300439E+00
        -11   -1    0    0    0    0  0.00000000000E+00  0.00000000000E+00  0.45593999997E+02  0.45594000000E+02  0.51100000000E-03 0. -1.
         11   -1    0    0    0    0 -0.00000000000E+00 -0.00000000000E+00 -0.45593999997E+02  0.45594000000E+02  0.51100000000E-03 0.  1.
    9900012    2    1    2    0    0 -0.27959214032E+02  0.29153728373E+02  0.46376878449E+01  0.50528859873E+02  0.30000000070E+02 0.  0.
         12    1    1    2    0    0  0.27959214032E+02 -0.29153728373E+02 -0.46376878449E+01  0.40659140127E+02  0.00000000000E+00 0. -1.
         11    1    3    3    0    0 -0.90026536264E+01  0.12644075335E+02  0.58754843397E+01  0.16596437265E+02  0.51100000000E-03 0.  1.
        -11    1    3    3    0    0 -0.23759200409E+02  0.15376751603E+02  0.14030961180E+01  0.28335715500E+02  0.51100000000E-03 0. -1.
         12    1    3    3    0    0  0.48026400033E+01  0.11329014355E+01 -0.26408926128E+01  0.55967071083E+01  0.00000000000E+00 0. -1.
</event>
<event>
 7    1  0.5329250E-013  0.5052888E+02  0.7816164E-02  0.1300439E+00
        -11   -1    0    0    0    0  0.00000000000E+00  0.00000000000E+00  0.45593999997E+02  0.45594000000E+02  0.51100000000E-03 0.  1.
         11   -1    0    0    0    0 -0.00000000000E+00 -0.00000000000E+00 -0.45593999997E+02  0.45594000000E+02  0.51100000000E-03 0. -1.
    9900012    2    1    2    0    0 -0.33709932579E+01 -0.39644900829E+02  0.83715029340E+01  0.50528882712E+02  0.30000069492E+02 0.  0.
         12    1    1    2    0    0  0.33709932579E+01  0.39644900829E+02 -0.83715029340E+01  0.40659117288E+02  0.00000000000E+00 0. -1.
         11    1    3    3    0    0 -0.55261509314E+01 -0.62454697032E+01 -0.10083804070E+01  0.84000635257E+01  0.51100000000E-03 0. -1.
        -11    1    3    3    0    0 -0.43859521168E+01 -0.13913607061E+00  0.68527822087E+01  0.81373557792E+01  0.51100000000E-03 0.  1.
        -12    1    3    3    0    0  0.65411097903E+01 -0.33260295055E+02  0.25271011324E+01  0.33991463407E+02  0.00000000000E+00 0.  1.
</event>
<event>
 7    1  0.5329250E-013  0.5052887E+02  0.7816164E-02  0.1300439E+00
        -11   -1    0    0    0    0  0.00000000000E+00  0.00000000000E+00  0.45593999997E+02  0.45594000000E+02  0.51100000000E-03 0.  1.
         11   -1    0    0    0    0 -0.00000000000E+00 -0.00000000000E+00 -0.45593999997E+02  0.45594000000E+02  0.51100000000E-03 0. -1.
    9900012    2    1    2    0    0 -0.31188377244E+02  0.11867490771E+02  0.23229564756E+02  0.50528869524E+02  0.30000029406E+02 0.  0.
         12    1    1    2    0    0  0.31188377244E+02 -0.11867490771E+02 -0.23229564756E+02  0.40659130476E+02  0.00000000000E+00 0. -1.
         11    1    3    3    0    0 -0.13231696800E+02  0.18206740522E+02  0.58620993136E+01  0.23257846188E+02  0.51100000000E-03 0. -1.
        -11    1    3    3    0    0 -0.51716219911E+00 -0.12830961004E+01 -0.78938353252E+00  0.15927708453E+01  0.51100000000E-03 0.  1.
        -12    1    3    3    0    0 -0.17439518244E+02 -0.50561536510E+01  0.18156848974E+02  0.25678252491E+02  0.00000000000E+00 0.  1.
</event>
<event>
 7    1  0.5329250E-013  0.5052886E+02  0.7816164E-02  0.1300439E+00
        -11   -1    0    0    0    0  0.00000000000E+00  0.00000000000E+00  0.45593999997E+02  0.45594000000E+02  0.51100000000E-03 0. -1.
         11   -1    0    0    0    0 -0.00000000000E+00 -0.00000000000E+00 -0.45593999997E+02  0.45594000000E+02  0.51100000000E-03 0.  1.
    9900012    2    1    2    0    0  0.12325536009E+02  0.38723207172E+02 -0.13266223071E+01  0.50528861564E+02  0.30000005210E+02 0.  0.
         12    1    1    2    0    0 -0.12325536009E+02 -0.38723207172E+02  0.13266223071E+01  0.40659138436E+02  0.00000000000E+00 0. -1.
         11    1    3    3    0    0 -0.27712270698E+01 -0.43216073911E+00  0.12269366879E+01  0.30613455006E+01  0.51100000000E-03 0. -1.
        -11    1    3    3    0    0  0.10546486796E+02  0.41100499340E+02 -0.18843024892E+01  0.42473874627E+02  0.51100000000E-03 0.  1.
         12    1    3    3    0    0  0.45502762828E+01 -0.19451314283E+01 -0.66925650585E+00  0.49936414363E+01  0.00000000000E+00 0. -1.
</event>
<event>
 7    1  0.5329250E-013  0.5052885E+02  0.7816164E-02  0.1300439E+00
        -11   -1    0    0    0    0  0.00000000000E+00  0.00000000000E+00  0.45593999997E+02  0.45594000000E+02  0.51100000000E-03 0.  1.
         11   -1    0    0    0    0 -0.00000000000E+00 -0.00000000000E+00 -0.45593999997E+02  0.45594000000E+02  0.51100000000E-03 0. -1.
    9900012    2    1    2    0    0  0.35478859200E+02 -0.16425004904E+02  0.11164043586E+02  0.50528854591E+02  0.29999984013E+02 0.  0.
         12    1    1    2    0    0 -0.35478859200E+02  0.16425004904E+02 -0.11164043586E+02  0.40659145409E+02  0.00000000000E+00 0. -1.
         11    1    3    3    0    0  0.29269213826E+02 -0.96849113308E+01 -0.77361903813E+00  0.30839631518E+02  0.51100000000E-03 0. -1.
        -11    1    3    3    0    0  0.92775171033E+01 -0.75593946802E+01  0.11281910198E+02  0.16446831595E+02  0.51100000000E-03 0.  1.
        -12    1    3    3    0    0 -0.30678717290E+01  0.81930110744E+00  0.65575242558E+00  0.32423914776E+01  0.00000000000E+00 0.  1.
</event>
<event>
 7    1  0.5329250E-013  0.5052885E+02  0.7816164E-02  0.1300439E+00
        -11   -1    0    0    0    0  0.00000000000E+00  0.00000000000E+00  0.45593999997E+02  0.45594000000E+02  0.51100000000E-03 0. -1.
         11   -1    0    0    0    0 -0.00000000000E+00 -0.00000000000E+00 -0.45593999997E+02  0.45594000000E+02  0.51100000000E-03 0.  1.
    9900012    2    1    2    0    0 -0.23537211765E+02 -0.22636209108E+02 -0.24223291214E+02  0.50528854194E+02  0.29999982808E+02 0.  0.
         12    1    1    2    0    0  0.23537211765E+02  0.22636209108E+02  0.24223291214E+02  0.40659145806E+02  0.00000000000E+00 0. -1.
         11    1    3    3    0    0 -0.13117493960E+02 -0.13502559388E+02  0.54368942376E+00  0.18833038955E+02  0.51100000000E-03 0. -1.
        -11    1    3    3    0    0  0.11794161447E+01 -0.80160891690E+01 -0.10932392336E+02  0.13607568132E+02  0.51100000000E-03 0.  1.
        -12    1    3    3    0    0 -0.11599133949E+02 -0.11175605517E+01 -0.13834588301E+02  0.18088247108E+02  0.00000000000E+00 0.  1.
</event>
<event>
 7    1  0.5329250E-013  0.5052885E+02  0.7816164E-02  0.1300439E+00
        -11   -1    0    0    0    0  0.00000000000E+00  0.00000000000E+00  0.45593999997E+02  0.45594000000E+02  0.51100000000E-03 0. -1.
         11   -1    0    0    0    0 -0.00000000000E+00 -0.00000000000E+00 -0.45593999997E+02  0.45594000000E+02  0.51100000000E-03 0.  1.
    9900012    2    1    2    0    0 -0.43140414394E+00 -0.32964641205E+02 -0.23797332496E+02  0.50528847116E+02  0.29999961295E+02 0.  0.
         12    1    1    2    0    0  0.43140414394E+00  0.32964641205E+02  0.23797332496E+02  0.40659152884E+02  0.00000000000E+00 0. -1.
         11    1    3    3    0    0 -0.18892086162E+01  0.15382971961E+00  0.20475688378E+01  0.27902170498E+01  0.51100000000E-03 0. -1.
        -11    1    3    3    0    0 -0.99135839929E+01 -0.15793623841E+02 -0.16904298362E+02  0.25168889625E+02  0.51100000000E-03 0.  1.
        -12    1    3    3    0    0  0.11371388465E+02 -0.17324847083E+02 -0.89406029720E+01  0.22569740441E+02  0.00000000000E+00 0.  1.
</event>
<event>
 7    1  0.5329250E-013  0.5052886E+02  0.7816164E-02  0.1300439E+00
        -11   -1    0    0    0    0  0.00000000000E+00  0.00000000000E+00  0.45593999997E+02  0.45594000000E+02  0.51100000000E-03 0.  1.
         11   -1    0    0    0    0 -0.00000000000E+00 -0.00000000000E+00 -0.45593999997E+02  0.45594000000E+02  0.51100000000E-03 0. -1.
    9900012    2    1    2    0    0 -0.17633096321E+02  0.35239914958E+02  0.10019387107E+02  0.50528858222E+02  0.29999995052E+02 0.  0.
         12    1    1    2    0    0  0.17633096321E+02 -0.35239914958E+02 -0.10019387107E+02  0.40659141778E+02  0.00000000000E+00 0. -1.
         11    1    3    3    0    0  0.21836685525E+00  0.58904844696E+01 -0.78260268824E+01  0.97975603288E+01  0.51100000000E-03 0. -1.
        -11    1    3    3    0    0 -0.26080609284E+01  0.11660042719E+02  0.11043223362E+01  0.11999087719E+02  0.51100000000E-03 0.  1.
         12    1    3    3    0    0 -0.15243402247E+02  0.17689387770E+02  0.16741091653E+02  0.28732210174E+02  0.00000000000E+00 0. -1.
</event>
<event>
 7    1  0.5329250E-013  0.5052886E+02  0.7816164E-02  0.1300439E+00
        -11   -1    0    0    0    0  0.00000000000E+00  0.00000000000E+00  0.45593999997E+02  0.45594000000E+02  0.51100000000E-03 0.  1.
         11   -1    0    0    0    0 -0.00000000000E+00 -0.00000000000E+00 -0.45593999997E+02  0.45594000000E+02  0.51100000000E-03 0. -1.
    9900012    2    1    2    0    0 -0.11433406518E+02 -0.14802088001E+02  0.36101817812E+02  0.50528857816E+02  0.29999993818E+02 0.  0.
         12    1    1    2    0    0  0.11433406518E+02  0.14802088001E+02 -0.36101817812E+02  0.40659142184E+02  0.00000000000E+00 0. -1.
         11    1    3    3    0    0 -0.63423714433E+01 -0.30671337186E+01 -0.11203632466E+01  0.71335964870E+01  0.51100000000E-03 0. -1.
        -11    1    3    3    0    0 -0.31321804314E+01 -0.17628514531E+01 -0.10918155473E+01  0.37563627289E+01  0.51100000000E-03 0.  1.
        -12    1    3    3    0    0 -0.19588546434E+01 -0.99721028292E+01  0.38313996606E+02  0.39638898600E+02  0.00000000000E+00 0.  1.
</event>
<event>
 7    1  0.5329250E-013  0.5052883E+02  0.7816164E-02  0.1300439E+00
        -11   -1    0    0    0    0  0.00000000000E+00  0.00000000000E+00  0.45593999997E+02  0.45594000000E+02  0.51100000000E-03 0. -1.
         11   -1    0    0    0    0 -0.00000000000E+00 -0.00000000000E+00 -0.45593999997E+02  0.45594000000E+02  0.51100000000E-03 0.  1.
    9900012    2    1    2    0    0 -0.30285842403E+02  0.18412145972E+02 -0.19923072638E+02  0.50528828923E+02  0.29999905995E+02 0.  0.
         12    1    1    2    0    0  0.30285842403E+02 -0.18412145972E+02  0.19923072638E+02  0.40659171077E+02  0.00000000000E+00 0. -1.
         11    1    3    3    0    0  0.19647803255E+01 -0.48939227295E+00  0.13111107042E+01  0.24122350765E+01  0.51100000000E-03 0. -1.
        -11    1    3    3    0    0 -0.28686725600E+02  0.16837376534E+02 -0.25705122367E+02  0.42037825709E+02  0.51100000000E-03 0.  1.
         12    1    3    3    0    0 -0.35638971285E+01  0.20641617101E+01  0.44709390246E+01  0.60787681375E+01  0.00000000000E+00 0. -1.
</event>
<event>
 7    1  0.5329250E-013  0.5052887E+02  0.7816164E-02  0.1300439E+00
        -11   -1    0    0    0    0  0.00000000000E+00  0.00000000000E+00  0.45593999997E+02  0.45594000000E+02  0.51100000000E-03 0. -1.
         11   -1    0    0    0    0 -0.00000000000E+00 -0.00000000000E+00 -0.45593999997E+02  0.45594000000E+02  0.51100000000E-03 0.  1.
    9900012    2    1    2    0    0 -0.11179906628E+02 -0.38187937722E+02 -0.83579911799E+01  0.50528869214E+02  0.30000028464E+02 0.  0.
         12    1    1    2    0    0  0.11179906628E+02  0.38187937722E+02  0.83579911799E+01  0.40659130786E+02  0.00000000000E+00 0. -1.
         11    1    3    3    0    0  0.57636283539E+00 -0.27723913016E+02  0.41177133677E+01  0.28033963520E+02  0.51100000000E-03 0. -1.
        -11    1    3    3    0    0  0.18164969625E+01 -0.62105784034E+00 -0.17023067498E+01  0.25657791384E+01  0.51100000000E-03 0.  1.
        -12    1    3    3    0    0 -0.13572766425E+02 -0.98429668663E+01 -0.10773397798E+02  0.19929126556E+02  0.00000000000E+00 0.  1.
</event>
<event>
 7    1  0.5329250E-013  0.5052887E+02  0.7816164E-02  0.1300439E+00
        -11   -1    0    0    0    0  0.00000000000E+00  0.00000000000E+00  0.45593999997E+02  0.45594000000E+02  0.51100000000E-03 0.  1.
         11   -1    0    0    0    0 -0.00000000000E+00 -0.00000000000E+00 -0.45593999997E+02  0.45594000000E+02  0.51100000000E-03 0. -1.
    9900012    2    1    2    0    0  0.12182682846E+02  0.31105412856E+02 -0.23177578545E+02  0.50528872888E+02  0.30000039631E+02 0.  0.
         12    1    1    2    0    0 -0.12182682846E+02 -0.31105412856E+02  0.23177578545E+02  0.40659127112E+02  0.00000000000E+00 0. -1.
         11    1    3    3    0    0 -0.69239168283E+01  0.27560374950E+01 -0.38361715899E+01  0.83816811945E+01  0.51100000000E-03 0. -1.
        -11    1    3    3    0    0  0.29328160738E+01  0.63180585815E+01 -0.11954451524E+02  0.13835757510E+02  0.51100000000E-03 0.  1.
        -12    1    3    3    0    0  0.16173783601E+02  0.22031316779E+02 -0.73869554314E+01  0.28311434184E+02  0.00000000000E+00 0.  1.
</event>
<event>
 7    1  0.5329250E-013  0.5052887E+02  0.7816164E-02  0.1300439E+00
        -11   -1    0    0    0    0  0.00000000000E+00  0.00000000000E+00  0.45593999997E+02  0.45594000000E+02  0.51100000000E-03 0. -1.
         11   -1    0    0    0    0 -0.00000000000E+00 -0.00000000000E+00 -0.45593999997E+02  0.45594000000E+02  0.51100000000E-03 0.  1.
    9900012    2    1    2    0    0  0.44281498445E+01  0.40101058222E+02  0.50459674266E+01  0.50528866108E+02  0.30000019021E+02 0.  0.
         12    1    1    2    0    0 -0.44281498445E+01 -0.40101058222E+02 -0.50459674266E+01  0.40659133892E+02  0.00000000000E+00 0. -1.
         11    1    3    3    0    0 -0.97920717229E+01  0.12129134837E+02  0.29222167095E+01  0.15860010444E+02  0.51100000000E-03 0. -1.
        -11    1    3    3    0    0  0.34592827577E+01  0.16949696101E+02 -0.45403458639E+01  0.17885009811E+02  0.51100000000E-03 0.  1.
         12    1    3    3    0    0  0.10760938810E+02  0.11022227284E+02  0.66640965810E+01  0.16783845853E+02  0.00000000000E+00 0. -1.
</event>
<event>
 7    1  0.5329250E-013  0.5052886E+02  0.7816164E-02  0.1300439E+00
        -11   -1    0    0    0    0  0.00000000000E+00  0.00000000000E+00  0.45593999997E+02  0.45594000000E+02  0.51100000000E-03 0.  1.
         11   -1    0    0    0    0 -0.00000000000E+00 -0.00000000000E+00 -0.45593999997E+02  0.45594000000E+02  0.51100000000E-03 0. -1.
    9900012    2    1    2    0    0 -0.10188641015E+02 -0.15524267403E+01  0.39331252023E+02  0.50528858098E+02  0.29999994675E+02 0.  0.
         12    1    1    2    0    0  0.10188641015E+02  0.15524267403E+01 -0.39331252023E+02  0.40659141902E+02  0.00000000000E+00 0. -1.
         11    1    3    3    0    0 -0.51889824009E+01  0.17410284833E+01 -0.15124549116E+01  0.56784010652E+01  0.51100000000E-03 0. -1.
        -11    1    3    3    0    0 -0.89721135804E+00 -0.61598642655E+01  0.34374680391E+01  0.71109143415E+01  0.51100000000E-03 0.  1.
        -12    1    3    3    0    0 -0.41024472565E+01  0.28664090419E+01  0.37406238895E+02  0.37739542692E+02  0.00000000000E+00 0.  1.
</event>
<event>
 7    1  0.5329250E-013  0.5052886E+02  0.7816164E-02  0.1300439E+00
        -11   -1    0    0    0    0  0.00000000000E+00  0.00000000000E+00  0.45593999997E+02  0.45594000000E+02  0.51100000000E-03 0.  1.
         11   -1    0    0    0    0 -0.00000000000E+00 -0.00000000000E+00 -0.45593999997E+02  0.45594000000E+02  0.51100000000E-03 0. -1.
    9900012    2    1    2    0    0 -0.21651021590E+02 -0.20994132880E+02  0.27269859121E+02  0.50528861203E+02  0.30000004112E+02 0.  0.
         12    1    1    2    0    0  0.21651021590E+02  0.20994132880E+02 -0.27269859121E+02  0.40659138797E+02  0.00000000000E+00 0. -1.
         11    1    3    3    0    0 -0.67849246654E+00  0.77097345287E+00 -0.14222837700E+01  0.17543213718E+01  0.51100000000E-03 0. -1.
        -11    1    3    3    0    0  0.31620014530E+01 -0.86874356494E+01  0.16119092028E+02  0.18582112889E+02  0.51100000000E-03 0.  1.
         12    1    3    3    0    0 -0.24134530576E+02 -0.13077670683E+02  0.12573050863E+02  0.30192426942E+02  0.00000000000E+00 0. -1.
</event>
<event>
 7    1  0.5329250E-013  0.5052886E+02  0.7816164E-02  0.1300439E+00
        -11   -1    0    0    0    0  0.00000000000E+00  0.00000000000E+00  0.45593999997E+02  0.45594000000E+02  0.51100000000E-03 0. -1.
         11   -1    0    0    0    0 -0.00000000000E+00 -0.00000000000E+00 -0.45593999997E+02  0.45594000000E+02  0.51100000000E-03 0.  1.
    9900012    2    1    2    0    0 -0.82544195404E+01 -0.13394511028E+02 -0.37491558185E+02  0.50528864461E+02  0.30000014016E+02 0.  0.
         12    1    1    2    0    0  0.82544195404E+01  0.13394511028E+02  0.37491558185E+02  0.40659135539E+02  0.00000000000E+00 0. -1.
         11    1    3    3    0    0 -0.57291103534E+01 -0.16240486532E+01 -0.47259380615E+01  0.76022845442E+01  0.51100000000E-03 0. -1.
        -11    1    3    3    0    0  0.40058106652E+01 -0.80548328911E+01 -0.34124735698E+02  0.35290571527E+02  0.51100000000E-03 0.  1.
         12    1    3    3    0    0 -0.65311198522E+01 -0.37156294833E+01  0.13591155744E+01  0.76360083896E+01  0.00000000000E+00 0. -1.
</event>
<event>
 7    1  0.5329250E-013  0.5052886E+02  0.7816164E-02  0.1300439E+00
        -11   -1    0    0    0    0  0.00000000000E+00  0.00000000000E+00  0.45593999997E+02  0.45594000000E+02  0.51100000000E-03 0.  1.
         11   -1    0    0    0    0 -0.00000000000E+00 -0.00000000000E+00 -0.45593999997E+02  0.45594000000E+02  0.51100000000E-03 0. -1.
    9900012    2    1    2    0    0 -0.54831841819E+01 -0.13750849956E+02  0.37868384149E+02  0.50528859559E+02  0.29999999117E+02 0.  0.
         12    1    1    2    0    0  0.54831841819E+01  0.13750849956E+02 -0.37868384149E+02  0.40659140441E+02  0.00000000000E+00 0. -1.
         11    1    3    3    0    0 -0.87317968125E+01 -0.80503586447E+00  0.91218182525E+01  0.12653059978E+02  0.51100000000E-03 0. -1.
        -11    1    3    3    0    0 -0.49162611472E+01 -0.14825528862E+02  0.22652515133E+02  0.27515493305E+02  0.51100000000E-03 0.  1.
         12    1    3    3    0    0  0.81648737778E+01  0.18797147708E+01  0.60940507637E+01  0.10360306276E+02  0.00000000000E+00 0. -1.
</event>
<event>
 7    1  0.5329250E-013  0.5052892E+02  0.7816164E-02  0.1300439E+00
        -11   -1    0    0    0    0  0.00000000000E+00  0.00000000000E+00  0.45593999997E+02  0.45594000000E+02  0.51100000000E-03 0.  1.
         11   -1    0    0    0    0 -0.00000000000E+00 -0.00000000000E+00 -0.45593999997E+02  0.45594000000E+02  0.51100000000E-03 0. -1.
    9900012    2    1    2    0    0 -0.94124668284E+01  0.37805810955E+02  0.11631302415E+02  0.50528916518E+02  0.30000172246E+02 0.  0.
         12    1    1    2    0    0  0.94124668284E+01 -0.37805810955E+02 -0.11631302415E+02  0.40659083482E+02  0.00000000000E+00 0. -1.
         11    1    3    3    0    0 -0.74243799638E+01  0.33300896586E+01 -0.26947943752E+01  0.85716294815E+01  0.51100000000E-03 0. -1.
        -11    1    3    3    0    0 -0.74192707767E+01  0.74036360752E+01  0.90465555251E+01  0.13845561495E+02  0.51100000000E-03 0.  1.
        -12    1    3    3    0    0  0.54311839121E+01  0.27072085221E+02  0.52795412654E+01  0.28111725541E+02  0.00000000000E+00 0.  1.
</event>
<event>
 7    1  0.5329250E-013  0.5052890E+02  0.7816164E-02  0.1300439E+00
        -11   -1    0    0    0    0  0.00000000000E+00  0.00000000000E+00  0.45593999997E+02  0.45594000000E+02  0.51100000000E-03 0. -1.
         11   -1    0    0    0    0 -0.00000000000E+00 -0.00000000000E+00 -0.45593999997E+02  0.45594000000E+02  0.51100000000E-03 0.  1.
    9900012    2    1    2    0    0 -0.39761872892E+02 -0.76054955290E+01 -0.37831454014E+01  0.50528901544E+02  0.30000126732E+02 0.  0.
         12    1    1    2    0    0  0.39761872892E+02  0.76054955290E+01  0.37831454014E+01  0.40659098456E+02  0.00000000000E+00 0. -1.
         11    1    3    3    0    0 -0.10454208494E+02  0.79760640494E+01 -0.27869271119E+01  0.13441541427E+02  0.51100000000E-03 0. -1.
        -11    1    3    3    0    0 -0.16526779997E+02 -0.20192591939E+01 -0.61548775875E+01  0.17750898094E+02  0.51100000000E-03 0.  1.
         12    1    3    3    0    0 -0.12780884401E+02 -0.13562300385E+02  0.51586592980E+01  0.19336462023E+02  0.00000000000E+00 0. -1.
</event>
<event>
 7    1  0.5329250E-013  0.5052886E+02  0.7816164E-02  0.1300439E+00
        -11   -1    0    0    0    0  0.00000000000E+00  0.00000000000E+00  0.45593999997E+02  0.45594000000E+02  0.51100000000E-03 0. -1.
         11   -1    0    0    0    0 -0.00000000000E+00 -0.00000000000E+00 -0.45593999997E+02  0.45594000000E+02  0.51100000000E-03 0.  1.
    9900012    2    1    2    0    0 -0.35096196360E+02 -0.80670995971E+01  0.18877098913E+02  0.50528856401E+02  0.29999989517E+02 0.  0.
         12    1    1    2    0    0  0.35096196360E+02  0.80670995971E+01 -0.18877098913E+02  0.40659143599E+02  0.00000000000E+00 0. -1.
         11    1    3    3    0    0 -0.75080601787E+00  0.22099668770E+01 -0.15010956080E+01  0.27750588389E+01  0.51100000000E-03 0. -1.
        -11    1    3    3    0    0 -0.35867719526E+02 -0.80706039355E+01  0.11562949570E+02  0.38539976063E+02  0.51100000000E-03 0.  1.
         12    1    3    3    0    0  0.15223291846E+01 -0.22064625386E+01  0.88152449511E+01  0.92138214997E+01  0.00000000000E+00 0. -1.
</event>
<event>
 7    1  0.5329250E-013  0.5052886E+02  0.7816164E-02  0.1300439E+00
        -11   -1    0    0    0    0  0.00000000000E+00  0.00000000000E+00  0.45593999997E+02  0.45594000000E+02  0.51100000000E-03 0.  1.
         11   -1    0    0    0    0 -0.00000000000E+00 -0.00000000000E+00 -0.45593999997E+02  0.45594000000E+02  0.51100000000E-03 0. -1.
    9900012    2    1    2    0    0 -0.28305237834E+02  0.86933322499E+01  0.27864047784E+02  0.50528859904E+02  0.30000000164E+02 0.  0.
         12    1    1    2    0    0  0.28305237834E+02 -0.86933322499E+01 -0.27864047784E+02  0.40659140096E+02  0.00000000000E+00 0. -1.
         11    1    3    3    0    0 -0.88849135173E+01 -0.40637824409E+01 -0.23965182596E+00  0.97730982393E+01  0.51100000000E-03 0. -1.
        -11    1    3    3    0    0 -0.12416618542E+02  0.10489061532E+02  0.57826119355E+01  0.17251997824E+02  0.51100000000E-03 0.  1.
         12    1    3    3    0    0 -0.70037057742E+01  0.22680531585E+01  0.22321087675E+02  0.23503763841E+02  0.00000000000E+00 0. -1.
</event>
<event>
 7    1  0.5329250E-013  0.5052887E+02  0.7816164E-02  0.1300439E+00
        -11   -1    0    0    0    0  0.00000000000E+00  0.00000000000E+00  0.45593999997E+02  0.45594000000E+02  0.51100000000E-03 0.  1.
         11   -1    0    0    0    0 -0.00000000000E+00 -0.00000000000E+00 -0.45593999997E+02  0.45594000000E+02  0.51100000000E-03 0. -1.
    9900012    2    1    2    0    0 -0.19928048184E+02  0.17990196598E+02  0.30535065596E+02  0.50528874222E+02  0.30000043685E+02 0.  0.
         12    1    1    2    0    0  0.19928048184E+02 -0.17990196598E+02 -0.30535065596E+02  0.40659125778E+02  0.00000000000E+00 0. -1.
         11    1    3    3    0    0  0.66031474642E+00  0.32099736373E+00 -0.80773026348E+00  0.10915508745E+01  0.51100000000E-03 0. -1.
        -11    1    3    3    0    0 -0.17409212688E+02  0.22471998778E+02  0.32891333521E+02  0.43473109350E+02  0.51100000000E-03 0.  1.
         12    1    3    3    0    0 -0.31791502420E+01 -0.48027995438E+01 -0.15485376614E+01  0.59642139975E+01  0.00000000000E+00 0. -1.
</event>
<event>
 7    1  0.5329250E-013  0.5052886E+02  0.7816164E-02  0.1300439E+00
        -11   -1    0    0    0    0  0.00000000000E+00  0.00000000000E+00  0.45593999997E+02  0.45594000000E+02  0.51100000000E-03 0.  1.
         11   -1    0    0    0    0 -0.00000000000E+00 -0.00000000000E+00 -0.45593999997E+02  0.45594000000E+02  0.51100000000E-03 0. -1.
    9900012    2    1    2    0    0  0.33818954900E+02 -0.90954072819E+01  0.20657139902E+02  0.50528861137E+02  0.30000003911E+02 0.  0.
         12    1    1    2    0    0 -0.33818954900E+02  0.90954072819E+01 -0.20657139902E+02  0.40659138863E+02  0.00000000000E+00 0. -1.
         11    1    3    3    0    0 -0.16804302748E+01 -0.23040302133E+01  0.59848500031E+01  0.66295422883E+01  0.51100000000E-03 0. -1.
        -11    1    3    3    0    0  0.23594775788E+01 -0.43959815383E+01 -0.34369235393E+01  0.60584017534E+01  0.51100000000E-03 0.  1.
        -12    1    3    3    0    0  0.33139907596E+02 -0.23953955303E+01  0.18109213438E+02  0.37840917095E+02  0.00000000000E+00 0.  1.
</event>
<event>
 7    1  0.5329250E-013  0.5052886E+02  0.7816164E-02  0.1300439E+00
        -11   -1    0    0    0    0  0.00000000000E+00  0.00000000000E+00  0.45593999997E+02  0.45594000000E+02  0.51100000000E-03 0.  1.
         11   -1    0    0    0    0 -0.00000000000E+00 -0.00000000000E+00 -0.45593999997E+02  0.45594000000E+02  0.51100000000E-03 0. -1.
    9900012    2    1    2    0    0 -0.32223774921E+02 -0.28732851307E+01  0.24627997776E+02  0.50528859428E+02  0.29999998716E+02 0.  0.
         12    1    1    2    0    0  0.32223774921E+02  0.28732851307E+01 -0.24627997776E+02  0.40659140572E+02  0.00000000000E+00 0. -1.
         11    1    3    3    0    0  0.11404146761E+01  0.17813727910E+01 -0.22660721225E+01  0.30998254434E+01  0.51100000000E-03 0. -1.
        -11    1    3    3    0    0 -0.21842415372E+02  0.32472629127E+01  0.70898242497E+01  0.23192702168E+02  0.51100000000E-03 0.  1.
         12    1    3    3    0    0 -0.11521774225E+02 -0.79019208344E+01  0.19804245649E+02  0.24236331816E+02  0.00000000000E+00 0. -1.
</event>
<event>
 7    1  0.5329250E-013  0.5052881E+02  0.7816164E-02  0.1300439E+00
        -11   -1    0    0    0    0  0.00000000000E+00  0.00000000000E+00  0.45593999997E+02  0.45594000000E+02  0.51100000000E-03 0.  1.
         11   -1    0    0    0    0 -0.00000000000E+00 -0.00000000000E+00 -0.45593999997E+02  0.45594000000E+02  0.51100000000E-03 0. -1.
    9900012    2    1    2    0    0 -0.11109104793E+02  0.50445182281E+01  0.38785439634E+02  0.50528810374E+02  0.29999849612E+02 0.  0.
         12    1    1    2    0    0  0.11109104793E+02 -0.50445182281E+01 -0.38785439634E+02  0.40659189626E+02  0.00000000000E+00 0. -1.
         11    1    3    3    0    0  0.18771536544E+01  0.75253538747E+01  0.79226235553E+01  0.11087047445E+02  0.51100000000E-03 0. -1.
        -11    1    3    3    0    0 -0.38520595719E+01 -0.11088643456E+02  0.17836961979E+02  0.21353069792E+02  0.51100000000E-03 0.  1.
         12    1    3    3    0    0 -0.91341988752E+01  0.86078078094E+01  0.13025854100E+02  0.18088693137E+02  0.00000000000E+00 0. -1.
</event>
<event>
 7    1  0.5329250E-013  0.5052887E+02  0.7816164E-02  0.1300439E+00
        -11   -1    0    0    0    0  0.00000000000E+00  0.00000000000E+00  0.45593999997E+02  0.45594000000E+02  0.51100000000E-03 0. -1.
         11   -1    0    0    0    0 -0.00000000000E+00 -0.00000000000E+00 -0.45593999997E+02  0.45594000000E+02  0.51100000000E-03 0.  1.
    9900012    2    1    2    0    0 -0.36296813674E+02 -0.80348901180E+01 -0.16466540701E+02  0.50528866896E+02  0.30000021417E+02 0.  0.
         12    1    1    2    0    0  0.36296813674E+02  0.80348901180E+01  0.16466540701E+02  0.40659133104E+02  0.00000000000E+00 0. -1.
         11    1    3    3    0    0 -0.26784216086E+01  0.33630029910E+01 -0.11595238069E+02  0.12366619488E+02  0.51100000000E-03 0. -1.
        -11    1    3    3    0    0  0.10202997977E+01  0.54783873459E+00 -0.50119263412E+00  0.12618768854E+01  0.51100000000E-03 0.  1.
        -12    1    3    3    0    0 -0.34638691863E+02 -0.11945731844E+02 -0.43701099981E+01  0.36900370522E+02  0.00000000000E+00 0.  1.
</event>
<event>
 7    1  0.5329250E-013  0.5052886E+02  0.7816164E-02  0.1300439E+00
        -11   -1    0    0    0    0  0.00000000000E+00  0.00000000000E+00  0.45593999997E+02  0.45594000000E+02  0.51100000000E-03 0. -1.
         11   -1    0    0    0    0 -0.00000000000E+00 -0.00000000000E+00 -0.45593999997E+02  0.45594000000E+02  0.51100000000E-03 0.  1.
    9900012    2    1    2    0    0 -0.20058314813E+02  0.14228100731E+02 -0.32378867078E+02  0.50528857402E+02  0.29999992559E+02 0.  0.
         12    1    1    2    0    0  0.20058314813E+02 -0.14228100731E+02  0.32378867078E+02  0.40659142598E+02  0.00000000000E+00 0. -1.
         11    1    3    3    0    0 -0.16278469111E+02 -0.53934462410E+01 -0.15931991854E+02  0.23407395917E+02  0.51100000000E-03 0.  1.
        -11    1    3    3    0    0  0.26073087168E+00  0.26807499437E+01  0.59094745876E+00  0.27574662297E+01  0.51100000000E-03 0. -1.
        -12    1    3    3    0    0 -0.40405765740E+01  0.16940797028E+02 -0.17037822683E+02  0.24363995255E+02  0.00000000000E+00 0.  1.
</event>
<event>
 7    1  0.5329250E-013  0.5052886E+02  0.7816164E-02  0.1300439E+00
        -11   -1    0    0    0    0  0.00000000000E+00  0.00000000000E+00  0.45593999997E+02  0.45594000000E+02  0.51100000000E-03 0.  1.
         11   -1    0    0    0    0 -0.00000000000E+00 -0.00000000000E+00 -0.45593999997E+02  0.45594000000E+02  0.51100000000E-03 0. -1.
    9900012    2    1    2    0    0 -0.19468627866E+02 -0.29947318361E+02  0.19424127019E+02  0.50528855169E+02  0.29999985770E+02 0.  0.
         12    1    1    2    0    0  0.19468627866E+02  0.29947318361E+02 -0.19424127019E+02  0.40659144831E+02  0.00000000000E+00 0. -1.
         11    1    3    3    0    0 -0.20282968621E+01 -0.47369921748E+00  0.96270596392E+01  0.98498049050E+01  0.51100000000E-03 0. -1.
        -11    1    3    3    0    0  0.39892613785E+00 -0.18148571742E+02  0.65610043339E+01  0.19302242783E+02  0.51100000000E-03 0.  1.
         12    1    3    3    0    0 -0.17839257142E+02 -0.11325047401E+02  0.32360630457E+01  0.21376807480E+02  0.00000000000E+00 0. -1.
</event>
<event>
 7    1  0.5329250E-013  0.5052879E+02  0.7816164E-02  0.1300439E+00
        -11   -1    0    0    0    0  0.00000000000E+00  0.00000000000E+00  0.45593999997E+02  0.45594000000E+02  0.51100000000E-03 0. -1.
         11   -1    0    0    0    0 -0.00000000000E+00 -0.00000000000E+00 -0.45593999997E+02  0.45594000000E+02  0.51100000000E-03 0.  1.
    9900012    2    1    2    0    0  0.39781560156E+02 -0.84021373265E+01  0.52965737214E-01  0.50528791381E+02  0.29999791882E+02 0.  0.
         12    1    1    2    0    0 -0.39781560156E+02  0.84021373265E+01 -0.52965737214E-01  0.40659208619E+02  0.00000000000E+00 0. -1.
         11    1    3    3    0    0  0.13969839397E+01 -0.24100401850E+01 -0.67272510271E+01  0.72811925167E+01  0.51100000000E-03 0. -1.
        -11    1    3    3    0    0  0.21559264953E+02 -0.73388889608E+01 -0.41352817659E+01  0.23146527861E+02  0.51100000000E-03 0.  1.
         12    1    3    3    0    0  0.16825311264E+02  0.13467918193E+01  0.10915498530E+02  0.20101071003E+02  0.00000000000E+00 0. -1.
</event>
<event>
 7    1  0.5329250E-013  0.5052889E+02  0.7816164E-02  0.1300439E+00
        -11   -1    0    0    0    0  0.00000000000E+00  0.00000000000E+00  0.45593999997E+02  0.45594000000E+02  0.51100000000E-03 0.  1.
         11   -1    0    0    0    0 -0.00000000000E+00 -0.00000000000E+00 -0.45593999997E+02  0.45594000000E+02  0.51100000000E-03 0. -1.
    9900012    2    1    2    0    0  0.29814839414E+02  0.27552646313E+02  0.22561703326E+01  0.50528889425E+02  0.30000089896E+02 0.  0.
         12    1    1    2    0    0 -0.29814839414E+02 -0.27552646313E+02 -0.22561703326E+01  0.40659110575E+02  0.00000000000E+00 0. -1.
         11    1    3    3    0    0 -0.27423739012E+01  0.64297469592E+01  0.24327500674E+01  0.74013872838E+01  0.51100000000E-03 0. -1.
        -11    1    3    3    0    0  0.18337654539E+02  0.21976609262E+02  0.21097275433E+01  0.28700032739E+02  0.51100000000E-03 0.  1.
         12    1    3    3    0    0  0.14219558776E+02 -0.85370990723E+00 -0.22863072780E+01  0.14427469403E+02  0.00000000000E+00 0. -1.
</event>
<event>
 7    1  0.5329250E-013  0.5052889E+02  0.7816164E-02  0.1300439E+00
        -11   -1    0    0    0    0  0.00000000000E+00  0.00000000000E+00  0.45593999997E+02  0.45594000000E+02  0.51100000000E-03 0.  1.
         11   -1    0    0    0    0 -0.00000000000E+00 -0.00000000000E+00 -0.45593999997E+02  0.45594000000E+02  0.51100000000E-03 0. -1.
    9900012    2    1    2    0    0 -0.86544150677E+01  0.39614888013E+02  0.29875051088E+01  0.50528887377E+02  0.30000083672E+02 0.  0.
         12    1    1    2    0    0  0.86544150677E+01 -0.39614888013E+02 -0.29875051088E+01  0.40659112623E+02  0.00000000000E+00 0. -1.
         11    1    3    3    0    0 -0.11451008191E+02  0.17398945280E+02 -0.88793794257E+01  0.22642708864E+02  0.51100000000E-03 0. -1.
        -11    1    3    3    0    0 -0.31964295820E+00 -0.33253148131E+00  0.36602631930E+01  0.36892107164E+01  0.51100000000E-03 0.  1.
        -12    1    3    3    0    0  0.31162360818E+01  0.22548474214E+02  0.82066213415E+01  0.24196967797E+02  0.00000000000E+00 0.  1.
</event>
<event>
 7    1  0.5329250E-013  0.5052886E+02  0.7816164E-02  0.1300439E+00
        -11   -1    0    0    0    0  0.00000000000E+00  0.00000000000E+00  0.45593999997E+02  0.45594000000E+02  0.51100000000E-03 0. -1.
         11   -1    0    0    0    0 -0.00000000000E+00 -0.00000000000E+00 -0.45593999997E+02  0.45594000000E+02  0.51100000000E-03 0.  1.
    9900012    2    1    2    0    0 -0.24204242763E+02 -0.19656194129E+02 -0.26095099117E+02  0.50528861627E+02  0.30000005400E+02 0.  0.
         12    1    1    2    0    0  0.24204242763E+02  0.19656194129E+02  0.26095099117E+02  0.40659138373E+02  0.00000000000E+00 0. -1.
         11    1    3    3    0    0 -0.11351623910E+02 -0.48980239878E+01 -0.41322625312E+00  0.12370156045E+02  0.51100000000E-03 0. -1.
        -11    1    3    3    0    0 -0.14449335910E+02 -0.24697214034E+01 -0.19253560096E+02  0.24198810067E+02  0.51100000000E-03 0.  1.
        -12    1    3    3    0    0  0.15967170569E+01 -0.12288448738E+02 -0.64283127679E+01  0.13959895515E+02  0.00000000000E+00 0.  1.
</event>
<event>
 7    1  0.5329250E-013  0.5052886E+02  0.7816164E-02  0.1300439E+00
        -11   -1    0    0    0    0  0.00000000000E+00  0.00000000000E+00  0.45593999997E+02  0.45594000000E+02  0.51100000000E-03 0. -1.
         11   -1    0    0    0    0 -0.00000000000E+00 -0.00000000000E+00 -0.45593999997E+02  0.45594000000E+02  0.51100000000E-03 0.  1.
    9900012    2    1    2    0    0 -0.28236752103E+02 -0.24540487898E+02 -0.15925317002E+02  0.50528862808E+02  0.30000008990E+02 0.  0.
         12    1    1    2    0    0  0.28236752103E+02  0.24540487898E+02  0.15925317002E+02  0.40659137192E+02  0.00000000000E+00 0. -1.
         11    1    3    3    0    0 -0.26837551898E+01 -0.14278841489E+02  0.25731928189E-01  0.14528885662E+02  0.51100000000E-03 0. -1.
        -11    1    3    3    0    0 -0.39018199013E+00 -0.47250965789E+01 -0.75219493028E+01  0.88914847602E+01  0.51100000000E-03 0.  1.
         12    1    3    3    0    0 -0.25162814923E+02 -0.55365498301E+01 -0.84290996278E+01  0.27108492385E+02  0.00000000000E+00 0. -1.
</event>
<event>
 7    1  0.5329250E-013  0.5052885E+02  0.7816164E-02  0.1300439E+00
        -11   -1    0    0    0    0  0.00000000000E+00  0.00000000000E+00  0.45593999997E+02  0.45594000000E+02  0.51100000000E-03 0.  1.
         11   -1    0    0    0    0 -0.00000000000E+00 -0.00000000000E+00 -0.45593999997E+02  0.45594000000E+02  0.51100000000E-03 0. -1.
    9900012    2    1    2    0    0  0.11204470887E+02 -0.30992362917E+02  0.23813852129E+02  0.50528852440E+02  0.29999977478E+02 0.  0.
         12    1    1    2    0    0 -0.11204470887E+02  0.30992362917E+02 -0.23813852129E+02  0.40659147560E+02  0.00000000000E+00 0. -1.
         11    1    3    3    0    0  0.40359098799E+01 -0.84428472685E+00  0.76859468946E+01  0.87221078408E+01  0.51100000000E-03 0.  1.
        -11    1    3    3    0    0  0.46597360484E+00 -0.16414897196E+02  0.20160453641E+02  0.26002112850E+02  0.51100000000E-03 0. -1.
        -12    1    3    3    0    0  0.67025874026E+01 -0.13733180994E+02 -0.40325484066E+01  0.15804631750E+02  0.00000000000E+00 0.  1.
</event>
<event>
 7    1  0.5329250E-013  0.5052885E+02  0.7816164E-02  0.1300439E+00
        -11   -1    0    0    0    0  0.00000000000E+00  0.00000000000E+00  0.45593999997E+02  0.45594000000E+02  0.51100000000E-03 0. -1.
         11   -1    0    0    0    0 -0.00000000000E+00 -0.00000000000E+00 -0.45593999997E+02  0.45594000000E+02  0.51100000000E-03 0.  1.
    9900012    2    1    2    0    0  0.11764321258E+02 -0.38904684071E+02 -0.10922133496E+01  0.50528848173E+02  0.29999964506E+02 0.  0.
         12    1    1    2    0    0 -0.11764321258E+02  0.38904684071E+02  0.10922133496E+01  0.40659151827E+02  0.00000000000E+00 0. -1.
         11    1    3    3    0    0  0.15538250956E+02 -0.11810769324E+02 -0.64469688067E+01  0.20554681264E+02  0.51100000000E-03 0. -1.
        -11    1    3    3    0    0 -0.13042949143E+01  0.19046297382E+00  0.19694905666E+01  0.23698849594E+01  0.51100000000E-03 0.  1.
        -12    1    3    3    0    0 -0.24696347835E+01 -0.27284377721E+02  0.33852648904E+01  0.27604281950E+02  0.00000000000E+00 0.  1.
</event>
<event>
 7    1  0.5329250E-013  0.5052886E+02  0.7816164E-02  0.1300439E+00
        -11   -1    0    0    0    0  0.00000000000E+00  0.00000000000E+00  0.45593999997E+02  0.45594000000E+02  0.51100000000E-03 0.  1.
         11   -1    0    0    0    0 -0.00000000000E+00 -0.00000000000E+00 -0.45593999997E+02  0.45594000000E+02  0.51100000000E-03 0. -1.
    9900012    2    1    2    0    0  0.28259415343E+02  0.57114918753E+01  0.28669672269E+02  0.50528858310E+02  0.29999995318E+02 0.  0.
         12    1    1    2    0    0 -0.28259415343E+02 -0.57114918753E+01 -0.28669672269E+02  0.40659141690E+02  0.00000000000E+00 0. -1.
         11    1    3    3    0    0  0.18890578728E+02 -0.18894887470E+01  0.44291031023E+01  0.19494642519E+02  0.51100000000E-03 0. -1.
        -11    1    3    3    0    0  0.12633392985E+02  0.38763534765E+01  0.12081281243E+02  0.17904918076E+02  0.51100000000E-03 0.  1.
         12    1    3    3    0    0 -0.32645563693E+01  0.37246271459E+01  0.12159287923E+02  0.13129297714E+02  0.00000000000E+00 0. -1.
</event>
<event>
 7    1  0.5329250E-013  0.5052887E+02  0.7816164E-02  0.1300439E+00
        -11   -1    0    0    0    0  0.00000000000E+00  0.00000000000E+00  0.45593999997E+02  0.45594000000E+02  0.51100000000E-03 0.  1.
         11   -1    0    0    0    0 -0.00000000000E+00 -0.00000000000E+00 -0.45593999997E+02  0.45594000000E+02  0.51100000000E-03 0. -1.
    9900012    2    1    2    0    0 -0.32807318375E+02  0.21954469086E+02  0.97388893257E+01  0.50528870434E+02  0.30000032170E+02 0.  0.
         12    1    1    2    0    0  0.32807318375E+02 -0.21954469086E+02 -0.97388893257E+01  0.40659129566E+02  0.00000000000E+00 0. -1.
         11    1    3    3    0    0 -0.18983173556E+02  0.55086129121E+01 -0.15575744887E+01  0.19827549849E+02  0.51100000000E-03 0.  1.
        -11    1    3    3    0    0 -0.70308690833E+01  0.10934932930E+02 -0.35440110053E+01  0.13474638864E+02  0.51100000000E-03 0. -1.
        -12    1    3    3    0    0 -0.67932757356E+01  0.55109232441E+01  0.14840474820E+02  0.17226681720E+02  0.00000000000E+00 0.  1.
</event>
<event>
 7    1  0.5329250E-013  0.5052885E+02  0.7816164E-02  0.1300439E+00
        -11   -1    0    0    0    0  0.00000000000E+00  0.00000000000E+00  0.45593999997E+02  0.45594000000E+02  0.51100000000E-03 0.  1.
         11   -1    0    0    0    0 -0.00000000000E+00 -0.00000000000E+00 -0.45593999997E+02  0.45594000000E+02  0.51100000000E-03 0. -1.
    9900012    2    1    2    0    0 -0.94258019799E+01  0.21735709243E+01  0.39491720083E+02  0.50528854551E+02  0.29999983894E+02 0.  0.
         12    1    1    2    0    0  0.94258019799E+01 -0.21735709243E+01 -0.39491720083E+02  0.40659145449E+02  0.00000000000E+00 0. -1.
         11    1    3    3    0    0  0.17960238411E+01  0.20049292706E+01  0.82480319908E+01  0.86761440168E+01  0.51100000000E-03 0. -1.
        -11    1    3    3    0    0 -0.17251305666E+02 -0.25069715427E+01  0.30609943968E+02  0.35225858733E+02  0.51100000000E-03 0.  1.
         12    1    3    3    0    0  0.60294798451E+01  0.26756131964E+01  0.63374412400E+00  0.66268518011E+01  0.00000000000E+00 0. -1.
</event>
<event>
 7    1  0.5329250E-013  0.5052889E+02  0.7816164E-02  0.1300439E+00
        -11   -1    0    0    0    0  0.00000000000E+00  0.00000000000E+00  0.45593999997E+02  0.45594000000E+02  0.51100000000E-03 0. -1.
         11   -1    0    0    0    0 -0.00000000000E+00 -0.00000000000E+00 -0.45593999997E+02  0.45594000000E+02  0.51100000000E-03 0.  1.
    9900012    2    1    2    0    0 -0.23713398608E+01 -0.11111142196E+02 -0.39039497171E+02  0.50528891882E+02  0.30000097363E+02 0.  0.
         12    1    1    2    0    0  0.23713398608E+01  0.11111142196E+02  0.39039497171E+02  0.40659108118E+02  0.00000000000E+00 0. -1.
         11    1    3    3    0    0 -0.68845932971E+01 -0.82636482892E+01 -0.88109713883E+01  0.13903910420E+02  0.51100000000E-03 0. -1.
        -11    1    3    3    0    0  0.24685724412E+01 -0.11259259147E+02 -0.21108642212E+02  0.24050770107E+02  0.51100000000E-03 0.  1.
        -12    1    3    3    0    0  0.20446809951E+01  0.84117652406E+01 -0.91198835701E+01  0.12574211354E+02  0.00000000000E+00 0.  1.
</event>
<event>
 7    1  0.5329250E-013  0.5052886E+02  0.7816164E-02  0.1300439E+00
        -11   -1    0    0    0    0  0.00000000000E+00  0.00000000000E+00  0.45593999997E+02  0.45594000000E+02  0.51100000000E-03 0.  1.
         11   -1    0    0    0    0 -0.00000000000E+00 -0.00000000000E+00 -0.45593999997E+02  0.45594000000E+02  0.51100000000E-03 0. -1.
    9900012    2    1    2    0    0  0.68694875314E+01 -0.13478819085E+02  0.37739864007E+02  0.50528858861E+02  0.29999996994E+02 0.  0.
         12    1    1    2    0    0 -0.68694875314E+01  0.13478819085E+02 -0.37739864007E+02  0.40659141139E+02  0.00000000000E+00 0. -1.
         11    1    3    3    0    0 -0.14878807278E+00  0.50245450792E+01  0.84328357250E+01  0.98173779478E+01  0.51100000000E-03 0. -1.
        -11    1    3    3    0    0  0.82567139778E+01 -0.23537824911E+01  0.20610949001E+02  0.22327669755E+02  0.51100000000E-03 0.  1.
        -12    1    3    3    0    0 -0.12384383736E+01 -0.16149581673E+02  0.86960792812E+01  0.18383811158E+02  0.00000000000E+00 0.  1.
</event>
<event>
 7    1  0.5329250E-013  0.5052886E+02  0.7816164E-02  0.1300439E+00
        -11   -1    0    0    0    0  0.00000000000E+00  0.00000000000E+00  0.45593999997E+02  0.45594000000E+02  0.51100000000E-03 0.  1.
         11   -1    0    0    0    0 -0.00000000000E+00 -0.00000000000E+00 -0.45593999997E+02  0.45594000000E+02  0.51100000000E-03 0. -1.
    9900012    2    1    2    0    0  0.22046040011E+02 -0.29858704714E+02  0.16601071179E+02  0.50528859679E+02  0.29999999482E+02 0.  0.
         12    1    1    2    0    0 -0.22046040011E+02  0.29858704714E+02 -0.16601071179E+02  0.40659140321E+02  0.00000000000E+00 0. -1.
         11    1    3    3    0    0 -0.18099512959E+01 -0.58452885920E+01 -0.33430386708E+01  0.69727491159E+01  0.51100000000E-03 0. -1.
        -11    1    3    3    0    0  0.52082167370E+01  0.42488736050E-01  0.10444088870E+02  0.11670746311E+02  0.51100000000E-03 0.  1.
        -12    1    3    3    0    0  0.18647774569E+02 -0.24055904858E+02  0.95000209801E+01  0.31885364253E+02  0.00000000000E+00 0.  1.
</event>
<event>
 7    1  0.5329250E-013  0.5052884E+02  0.7816164E-02  0.1300439E+00
        -11   -1    0    0    0    0  0.00000000000E+00  0.00000000000E+00  0.45593999997E+02  0.45594000000E+02  0.51100000000E-03 0. -1.
         11   -1    0    0    0    0 -0.00000000000E+00 -0.00000000000E+00 -0.45593999997E+02  0.45594000000E+02  0.51100000000E-03 0.  1.
    9900012    2    1    2    0    0  0.26293135231E+02 -0.25651223634E+02 -0.17431392010E+02  0.50528835454E+02  0.29999925846E+02 0.  0.
         12    1    1    2    0    0 -0.26293135231E+02  0.25651223634E+02  0.17431392010E+02  0.40659164546E+02  0.00000000000E+00 0. -1.
         11    1    3    3    0    0  0.93082110301E+01 -0.36850579014E+01 -0.97923706443E+01  0.14004033969E+02  0.51100000000E-03 0. -1.
        -11    1    3    3    0    0  0.15347567017E+02 -0.32684843405E+01  0.12806719972E+01  0.15743917055E+02  0.51100000000E-03 0.  1.
        -12    1    3    3    0    0  0.16373571839E+01 -0.18697681392E+02 -0.89196933627E+01  0.20780884429E+02  0.00000000000E+00 0.  1.
</event>
<event>
 7    1  0.5329250E-013  0.5052885E+02  0.7816164E-02  0.1300439E+00
        -11   -1    0    0    0    0  0.00000000000E+00  0.00000000000E+00  0.45593999997E+02  0.45594000000E+02  0.51100000000E-03 0.  1.
         11   -1    0    0    0    0 -0.00000000000E+00 -0.00000000000E+00 -0.45593999997E+02  0.45594000000E+02  0.51100000000E-03 0. -1.
    9900012    2    1    2    0    0 -0.29229573735E+02 -0.23702149569E+02 -0.15395023498E+02  0.50528848220E+02  0.29999964650E+02 0.  0.
         12    1    1    2    0    0  0.29229573735E+02  0.23702149569E+02  0.15395023498E+02  0.40659151780E+02  0.00000000000E+00 0. -1.
         11    1    3    3    0    0 -0.12901744918E+02 -0.10908395407E+02 -0.15346332920E+02  0.22824505397E+02  0.51100000000E-03 0. -1.
        -11    1    3    3    0    0 -0.12403664907E+01 -0.11284129228E+02 -0.39982200524E+01  0.12035607393E+02  0.51100000000E-03 0.  1.
         12    1    3    3    0    0 -0.15087462327E+02 -0.15096249347E+01  0.39495294746E+01  0.15668735430E+02  0.00000000000E+00 0. -1.
</event>
<event>
 7    1  0.5329250E-013  0.5052888E+02  0.7816164E-02  0.1300439E+00
        -11   -1    0    0    0    0  0.00000000000E+00  0.00000000000E+00  0.45593999997E+02  0.45594000000E+02  0.51100000000E-03 0.  1.
         11   -1    0    0    0    0 -0.00000000000E+00 -0.00000000000E+00 -0.45593999997E+02  0.45594000000E+02  0.51100000000E-03 0. -1.
    9900012    2    1    2    0    0 -0.22323864857E+02  0.33351328064E+02 -0.65190201392E+01  0.50528884794E+02  0.30000075820E+02 0.  0.
         12    1    1    2    0    0  0.22323864857E+02 -0.33351328064E+02  0.65190201392E+01  0.40659115206E+02  0.00000000000E+00 0. -1.
         11    1    3    3    0    0 -0.79898532633E+01  0.23479536135E+01  0.67650448034E+01  0.10729234492E+02  0.51100000000E-03 0. -1.
        -11    1    3    3    0    0 -0.15504397796E+01  0.14965137073E+02  0.55872417695E+00  0.15055609057E+02  0.51100000000E-03 0.  1.
        -12    1    3    3    0    0 -0.12783571814E+02  0.16038237377E+02 -0.13842789120E+02  0.24744041244E+02  0.00000000000E+00 0.  1.
</event>
<event>
 7    1  0.5329250E-013  0.5052886E+02  0.7816164E-02  0.1300439E+00
        -11   -1    0    0    0    0  0.00000000000E+00  0.00000000000E+00  0.45593999997E+02  0.45594000000E+02  0.51100000000E-03 0.  1.
         11   -1    0    0    0    0 -0.00000000000E+00 -0.00000000000E+00 -0.45593999997E+02  0.45594000000E+02  0.51100000000E-03 0. -1.
    9900012    2    1    2    0    0  0.20795241191E+02  0.13090321449E+02  0.32393931818E+02  0.50528863383E+02  0.30000010738E+02 0.  0.
         12    1    1    2    0    0 -0.20795241191E+02 -0.13090321449E+02 -0.32393931818E+02  0.40659136617E+02  0.00000000000E+00 0. -1.
         11    1    3    3    0    0  0.99359550229E+01 -0.94822770963E+00  0.73329845909E+01  0.12385273565E+02  0.51100000000E-03 0.  1.
        -11    1    3    3    0    0 -0.57851465578E+01  0.93403603708E+01  0.13191375561E+02  0.17167487935E+02  0.51100000000E-03 0. -1.
         12    1    3    3    0    0  0.16644432726E+02  0.46981887876E+01  0.11869571667E+02  0.20976101883E+02  0.00000000000E+00 0. -1.
</event>
<event>
 7    1  0.5329250E-013  0.5052886E+02  0.7816164E-02  0.1300439E+00
        -11   -1    0    0    0    0  0.00000000000E+00  0.00000000000E+00  0.45593999997E+02  0.45594000000E+02  0.51100000000E-03 0.  1.
         11   -1    0    0    0    0 -0.00000000000E+00 -0.00000000000E+00 -0.45593999997E+02  0.45594000000E+02  0.51100000000E-03 0. -1.
    9900012    2    1    2    0    0  0.16818237961E+02  0.17961270672E+02  0.32368276459E+02  0.50528859660E+02  0.29999999424E+02 0.  0.
         12    1    1    2    0    0 -0.16818237961E+02 -0.17961270672E+02 -0.32368276459E+02  0.40659140340E+02  0.00000000000E+00 0. -1.
         11    1    3    3    0    0 -0.11385423744E+01  0.66189818695E+01  0.49607040437E+01  0.83495978704E+01  0.51100000000E-03 0. -1.
        -11    1    3    3    0    0 -0.54862735424E+01  0.38512821772E+01  0.99825927774E+01  0.12024297510E+02  0.51100000000E-03 0.  1.
        -12    1    3    3    0    0  0.23443053877E+02  0.74910066248E+01  0.17424979638E+02  0.30154964280E+02  0.00000000000E+00 0.  1.
</event>
<event>
 7    1  0.5329250E-013  0.5052874E+02  0.7816164E-02  0.1300439E+00
        -11   -1    0    0    0    0  0.00000000000E+00  0.00000000000E+00  0.45593999997E+02  0.45594000000E+02  0.51100000000E-03 0. -1.
         11   -1    0    0    0    0 -0.00000000000E+00 -0.00000000000E+00 -0.45593999997E+02  0.45594000000E+02  0.51100000000E-03 0.  1.
    9900012    2    1    2    0    0 -0.26448404888E+02  0.29613505884E+01 -0.30739019896E+02  0.50528744441E+02  0.29999649202E+02 0.  0.
         12    1    1    2    0    0  0.26448404888E+02 -0.29613505884E+01  0.30739019896E+02  0.40659255559E+02  0.00000000000E+00 0. -1.
         11    1    3    3    0    0 -0.45014609911E+01  0.20669348497E+01 -0.17268753271E+02  0.17965110924E+02  0.51100000000E-03 0. -1.
        -11    1    3    3    0    0 -0.62396531344E+01  0.79511238432E+01  0.88409042000E+00  0.10145701441E+02  0.51100000000E-03 0.  1.
        -12    1    3    3    0    0 -0.15707290762E+02 -0.70567081045E+01 -0.14354357045E+02  0.22417932076E+02  0.00000000000E+00 0.  1.
</event>
<event>
 7    1  0.5329250E-013  0.5052886E+02  0.7816164E-02  0.1300439E+00
        -11   -1    0    0    0    0  0.00000000000E+00  0.00000000000E+00  0.45593999997E+02  0.45594000000E+02  0.51100000000E-03 0. -1.
         11   -1    0    0    0    0 -0.00000000000E+00 -0.00000000000E+00 -0.45593999997E+02  0.45594000000E+02  0.51100000000E-03 0.  1.
    9900012    2    1    2    0    0 -0.31962642957E+02  0.24669430102E+02 -0.47931433758E+01  0.50528861423E+02  0.30000004782E+02 0.  0.
         12    1    1    2    0    0  0.31962642957E+02 -0.24669430102E+02  0.47931433758E+01  0.40659138577E+02  0.00000000000E+00 0. -1.
         11    1    3    3    0    0 -0.10574757274E+02  0.62092460465E+01 -0.13194949900E+02  0.18013520783E+02  0.51100000000E-03 0. -1.
        -11    1    3    3    0    0 -0.16599991490E+02  0.10093273440E+02 -0.44275683060E+00  0.19432702336E+02  0.51100000000E-03 0.  1.
         12    1    3    3    0    0 -0.47878941928E+01  0.83669106157E+01  0.88445633548E+01  0.13082638304E+02  0.00000000000E+00 0. -1.
</event>
<event>
 7    1  0.5329250E-013  0.5052886E+02  0.7816164E-02  0.1300439E+00
        -11   -1    0    0    0    0  0.00000000000E+00  0.00000000000E+00  0.45593999997E+02  0.45594000000E+02  0.51100000000E-03 0.  1.
         11   -1    0    0    0    0 -0.00000000000E+00 -0.00000000000E+00 -0.45593999997E+02  0.45594000000E+02  0.51100000000E-03 0. -1.
    9900012    2    1    2    0    0 -0.39321910771E+02  0.71977987397E+00  0.10316732531E+02  0.50528859332E+02  0.29999998424E+02 0.  0.
         12    1    1    2    0    0  0.39321910771E+02 -0.71977987397E+00 -0.10316732531E+02  0.40659140668E+02  0.00000000000E+00 0. -1.
         11    1    3    3    0    0 -0.17018504856E+02 -0.87395522777E+01  0.18698377541E+01  0.19222527800E+02  0.51100000000E-03 0.  1.
        -11    1    3    3    0    0 -0.24429173578E+02  0.56832041221E+01  0.95443965672E+01  0.26836147952E+02  0.51100000000E-03 0. -1.
        -12    1    3    3    0    0  0.21257676630E+01  0.37761280296E+01 -0.10975017900E+01  0.44701835792E+01  0.00000000000E+00 0.  1.
</event>
<event>
 7    1  0.5329250E-013  0.5052889E+02  0.7816164E-02  0.1300439E+00
        -11   -1    0    0    0    0  0.00000000000E+00  0.00000000000E+00  0.45593999997E+02  0.45594000000E+02  0.51100000000E-03 0.  1.
         11   -1    0    0    0    0 -0.00000000000E+00 -0.00000000000E+00 -0.45593999997E+02  0.45594000000E+02  0.51100000000E-03 0. -1.
    9900012    2    1    2    0    0 -0.14711174544E+02  0.89640932968E+01  0.36829198056E+02  0.50528887189E+02  0.30000083101E+02 0.  0.
         12    1    1    2    0    0  0.14711174544E+02 -0.89640932968E+01 -0.36829198056E+02  0.40659112811E+02  0.00000000000E+00 0. -1.
         11    1    3    3    0    0 -0.15226521261E+01  0.54510071721E+01  0.17229859088E+02  0.18135600159E+02  0.51100000000E-03 0.  1.
        -11    1    3    3    0    0 -0.54385312828E+01  0.12301719309E+02  0.69105361390E+01  0.15121687421E+02  0.51100000000E-03 0. -1.
        -12    1    3    3    0    0 -0.77499911356E+01 -0.87886331838E+01  0.12688802829E+02  0.17271599610E+02  0.00000000000E+00 0.  1.
</event>
<event>
 7    1  0.5329250E-013  0.5052886E+02  0.7816164E-02  0.1300439E+00
        -11   -1    0    0    0    0  0.00000000000E+00  0.00000000000E+00  0.45593999997E+02  0.45594000000E+02  0.51100000000E-03 0.  1.
         11   -1    0    0    0    0 -0.00000000000E+00 -0.00000000000E+00 -0.45593999997E+02  0.45594000000E+02  0.51100000000E-03 0. -1.
    9900012    2    1    2    0    0  0.32267696407E+02  0.22332342634E+02  0.10640843444E+02  0.50528864395E+02  0.30000013814E+02 0.  0.
         12    1    1    2    0    0 -0.32267696407E+02 -0.22332342634E+02 -0.10640843444E+02  0.40659135605E+02  0.00000000000E+00 0. -1.
         11    1    3    3    0    0  0.80903385853E+01  0.13380620083E+02 -0.72338491875E+01  0.17228556137E+02  0.51100000000E-03 0. -1.
        -11    1    3    3    0    0  0.56966271648E+01  0.75543701879E+01  0.47245269267E+01  0.10575501167E+02  0.51100000000E-03 0.  1.
        -12    1    3    3    0    0  0.18480730657E+02  0.13973523632E+01  0.13150165705E+02  0.22724807091E+02  0.00000000000E+00 0.  1.
</event>
<event>
 7    1  0.5329250E-013  0.5052886E+02  0.7816164E-02  0.1300439E+00
        -11   -1    0    0    0    0  0.00000000000E+00  0.00000000000E+00  0.45593999997E+02  0.45594000000E+02  0.51100000000E-03 0. -1.
         11   -1    0    0    0    0 -0.00000000000E+00 -0.00000000000E+00 -0.45593999997E+02  0.45594000000E+02  0.51100000000E-03 0.  1.
    9900012    2    1    2    0    0  0.10539597842E+02 -0.32730987680E+02 -0.21697125391E+02  0.50528856780E+02  0.29999990669E+02 0.  0.
         12    1    1    2    0    0 -0.10539597842E+02  0.32730987680E+02  0.21697125391E+02  0.40659143220E+02  0.00000000000E+00 0. -1.
         11    1    3    3    0    0  0.14345070746E+02 -0.27974146906E+02 -0.23062786505E+02  0.38990076577E+02  0.51100000000E-03 0. -1.
        -11    1    3    3    0    0 -0.12040639142E+01 -0.68558683904E+01 -0.15177432478E+01  0.71243418028E+01  0.51100000000E-03 0.  1.
         12    1    3    3    0    0 -0.26014089906E+01  0.20990276170E+01  0.28834043623E+01  0.44144384003E+01  0.00000000000E+00 0. -1.
</event>
<event>
 7    1  0.5329250E-013  0.5052886E+02  0.7816164E-02  0.1300439E+00
        -11   -1    0    0    0    0  0.00000000000E+00  0.00000000000E+00  0.45593999997E+02  0.45594000000E+02  0.51100000000E-03 0.  1.
         11   -1    0    0    0    0 -0.00000000000E+00 -0.00000000000E+00 -0.45593999997E+02  0.45594000000E+02  0.51100000000E-03 0. -1.
    9900012    2    1    2    0    0  0.93120888608E+01  0.30164679530E+02  0.25623092694E+02  0.50528858724E+02  0.29999996576E+02 0.  0.
         12    1    1    2    0    0 -0.93120888608E+01 -0.30164679530E+02 -0.25623092694E+02  0.40659141276E+02  0.00000000000E+00 0. -1.
         11    1    3    3    0    0  0.15342303693E+01  0.15196597294E+01 -0.39969311451E+01  0.45429822099E+01  0.51100000000E-03 0. -1.
        -11    1    3    3    0    0 -0.55190996254E+01  0.30073762758E+01  0.57200980376E+01  0.84984877808E+01  0.51100000000E-03 0.  1.
        -12    1    3    3    0    0  0.13296958117E+02  0.25637643525E+02  0.23899925802E+02  0.37487388733E+02  0.00000000000E+00 0.  1.
</event>
<event>
 7    1  0.5329250E-013  0.5052885E+02  0.7816164E-02  0.1300439E+00
        -11   -1    0    0    0    0  0.00000000000E+00  0.00000000000E+00  0.45593999997E+02  0.45594000000E+02  0.51100000000E-03 0.  1.
         11   -1    0    0    0    0 -0.00000000000E+00 -0.00000000000E+00 -0.45593999997E+02  0.45594000000E+02  0.51100000000E-03 0. -1.
    9900012    2    1    2    0    0 -0.48852427286E+01  0.14338886353E+02  0.37731910347E+02  0.50528851991E+02  0.29999976113E+02 0.  0.
         12    1    1    2    0    0  0.48852427286E+01 -0.14338886353E+02 -0.37731910347E+02  0.40659148009E+02  0.00000000000E+00 0. -1.
         11    1    3    3    0    0 -0.10231045460E+01  0.14214944982E+02  0.35034266746E+01  0.14676014530E+02  0.51100000000E-03 0. -1.
        -11    1    3    3    0    0 -0.22986389123E+01  0.48569240866E+01  0.13422642925E+02  0.14458243177E+02  0.51100000000E-03 0.  1.
        -12    1    3    3    0    0 -0.15634992704E+01 -0.47329827156E+01  0.20805840748E+02  0.21394594284E+02  0.00000000000E+00 0.  1.
</event>
<event>
 7    1  0.5329250E-013  0.5052886E+02  0.7816164E-02  0.1300439E+00
        -11   -1    0    0    0    0  0.00000000000E+00  0.00000000000E+00  0.45593999997E+02  0.45594000000E+02  0.51100000000E-03 0.  1.
         11   -1    0    0    0    0 -0.00000000000E+00 -0.00000000000E+00 -0.45593999997E+02  0.45594000000E+02  0.51100000000E-03 0. -1.
    9900012    2    1    2    0    0 -0.25630229855E+02  0.25652115792E+02  0.18390922767E+02  0.50528858749E+02  0.29999996654E+02 0.  0.
         12    1    1    2    0    0  0.25630229855E+02 -0.25652115792E+02 -0.18390922767E+02  0.40659141251E+02  0.00000000000E+00 0. -1.
         11    1    3    3    0    0 -0.34838798929E+01  0.13650023329E+02  0.12267205045E+02  0.18680066271E+02  0.51100000000E-03 0. -1.
        -11    1    3    3    0    0 -0.13233701193E+02  0.61467038563E+01  0.12679473499E+02  0.19330852647E+02  0.51100000000E-03 0.  1.
         12    1    3    3    0    0 -0.89126487685E+01  0.58553886068E+01 -0.65557557779E+01  0.12517939832E+02  0.00000000000E+00 0. -1.
</event>
<event>
 7    1  0.5329250E-013  0.5052885E+02  0.7816164E-02  0.1300439E+00
        -11   -1    0    0    0    0  0.00000000000E+00  0.00000000000E+00  0.45593999997E+02  0.45594000000E+02  0.51100000000E-03 0. -1.
         11   -1    0    0    0    0 -0.00000000000E+00 -0.00000000000E+00 -0.45593999997E+02  0.45594000000E+02  0.51100000000E-03 0.  1.
    9900012    2    1    2    0    0  0.22588278399E+02 -0.18412413024E+02  0.28353462519E+02  0.50528854519E+02  0.29999983797E+02 0.  0.
         12    1    1    2    0    0 -0.22588278399E+02  0.18412413024E+02 -0.28353462519E+02  0.40659145481E+02  0.00000000000E+00 0. -1.
         11    1    3    3    0    0 -0.13894213090E+01 -0.90668275906E+01  0.47848856908E+01  0.10345674723E+02  0.51100000000E-03 0. -1.
        -11    1    3    3    0    0  0.19710391196E+02 -0.72701372292E+01  0.58035457221E+01  0.21795310497E+02  0.51100000000E-03 0.  1.
         12    1    3    3    0    0  0.42673085110E+01 -0.20754482044E+01  0.17765031106E+02  0.18387869300E+02  0.00000000000E+00 0. -1.
</event>
<event>
 7    1  0.5329250E-013  0.5052886E+02  0.7816164E-02  0.1300439E+00
        -11   -1    0    0    0    0  0.00000000000E+00  0.00000000000E+00  0.45593999997E+02  0.45594000000E+02  0.51100000000E-03 0.  1.
         11   -1    0    0    0    0 -0.00000000000E+00 -0.00000000000E+00 -0.45593999997E+02  0.45594000000E+02  0.51100000000E-03 0. -1.
    9900012    2    1    2    0    0 -0.84070976433E+01  0.39646483435E+02  0.32623177656E+01  0.50528860108E+02  0.30000000785E+02 0.  0.
         12    1    1    2    0    0  0.84070976433E+01 -0.39646483435E+02 -0.32623177656E+01  0.40659139892E+02  0.00000000000E+00 0. -1.
         11    1    3    3    0    0 -0.23778269564E+01  0.23505162322E+02 -0.47963251436E+01  0.24107083024E+02  0.51100000000E-03 0. -1.
        -11    1    3    3    0    0 -0.94991524077E+01  0.11266279486E+02 -0.18442557094E+01  0.14851404960E+02  0.51100000000E-03 0.  1.
        -12    1    3    3    0    0  0.34698817208E+01  0.48750416274E+01  0.99028986187E+01  0.11570372124E+02  0.00000000000E+00 0.  1.
</event>
<event>
 7    1  0.5329250E-013  0.5052887E+02  0.7816164E-02  0.1300439E+00
        -11   -1    0    0    0    0  0.00000000000E+00  0.00000000000E+00  0.45593999997E+02  0.45594000000E+02  0.51100000000E-03 0.  1.
         11   -1    0    0    0    0 -0.00000000000E+00 -0.00000000000E+00 -0.45593999997E+02  0.45594000000E+02  0.51100000000E-03 0. -1.
    9900012    2    1    2    0    0  0.10268832879E+02  0.39247495942E+02  0.27111583296E+01  0.50528865161E+02  0.30000016143E+02 0.  0.
         12    1    1    2    0    0 -0.10268832879E+02 -0.39247495942E+02 -0.27111583296E+01  0.40659134839E+02  0.00000000000E+00 0. -1.
         11    1    3    3    0    0  0.68096989845E+01  0.19744089707E+02  0.10355175758E+02  0.23311601058E+02  0.51100000000E-03 0. -1.
        -11    1    3    3    0    0  0.40437833117E+01  0.63822568451E+01  0.49403835365E+01  0.90273349145E+01  0.51100000000E-03 0.  1.
         12    1    3    3    0    0 -0.58464941767E+00  0.13121149389E+02 -0.12584400965E+02  0.18189929188E+02  0.00000000000E+00 0. -1.
</event>
<event>
 7    1  0.5329250E-013  0.5052887E+02  0.7816164E-02  0.1300439E+00
        -11   -1    0    0    0    0  0.00000000000E+00  0.00000000000E+00  0.45593999997E+02  0.45594000000E+02  0.51100000000E-03 0. -1.
         11   -1    0    0    0    0 -0.00000000000E+00 -0.00000000000E+00 -0.45593999997E+02  0.45594000000E+02  0.51100000000E-03 0.  1.
    9900012    2    1    2    0    0 -0.13814655463E+02 -0.16097041650E+02 -0.34687247177E+02  0.50528873445E+02  0.30000041325E+02 0.  0.
         12    1    1    2    0    0  0.13814655463E+02  0.16097041650E+02  0.34687247177E+02  0.40659126555E+02  0.00000000000E+00 0. -1.
         11    1    3    3    0    0 -0.17920514392E+02 -0.62597947301E+01 -0.14464169063E+02  0.23865080203E+02  0.51100000000E-03 0. -1.
        -11    1    3    3    0    0  0.16307910680E+01 -0.71967777478E+01 -0.21573730533E+02  0.22800853905E+02  0.51100000000E-03 0.  1.
        -12    1    3    3    0    0  0.24750678612E+01 -0.26404691723E+01  0.13506524187E+01  0.38629393373E+01  0.00000000000E+00 0.  1.
</event>
<event>
 7    1  0.5329250E-013  0.5052886E+02  0.7816164E-02  0.1300439E+00
        -11   -1    0    0    0    0  0.00000000000E+00  0.00000000000E+00  0.45593999997E+02  0.45594000000E+02  0.51100000000E-03 0. -1.
         11   -1    0    0    0    0 -0.00000000000E+00 -0.00000000000E+00 -0.45593999997E+02  0.45594000000E+02  0.51100000000E-03 0.  1.
    9900012    2    1    2    0    0  0.27098485760E+02  0.30136867855E+02 -0.32567846766E+01  0.50528863499E+02  0.30000011091E+02 0.  0.
         12    1    1    2    0    0 -0.27098485760E+02 -0.30136867855E+02  0.32567846766E+01  0.40659136501E+02  0.00000000000E+00 0. -1.
         11    1    3    3    0    0 -0.31544928590E+01  0.15878447730E+02 -0.20927248015E+01  0.16323462404E+02  0.51100000000E-03 0. -1.
        -11    1    3    3    0    0  0.80241245975E+01  0.64735608757E+01 -0.25213369661E+01  0.10613703704E+02  0.51100000000E-03 0.  1.
        -12    1    3    3    0    0  0.22228854021E+02  0.77848592495E+01  0.13572770910E+01  0.23591697390E+02  0.00000000000E+00 0.  1.
</event>
<event>
 7    1  0.5329250E-013  0.5052886E+02  0.7816164E-02  0.1300439E+00
        -11   -1    0    0    0    0  0.00000000000E+00  0.00000000000E+00  0.45593999997E+02  0.45594000000E+02  0.51100000000E-03 0.  1.
         11   -1    0    0    0    0 -0.00000000000E+00 -0.00000000000E+00 -0.45593999997E+02  0.45594000000E+02  0.51100000000E-03 0. -1.
    9900012    2    1    2    0    0 -0.22113096958E+01  0.26041499725E+01  0.40515358126E+02  0.50528859186E+02  0.29999997982E+02 0.  0.
         12    1    1    2    0    0  0.22113096958E+01 -0.26041499725E+01 -0.40515358126E+02  0.40659140814E+02  0.00000000000E+00 0. -1.
         11    1    3    3    0    0 -0.13880371058E+01  0.43109829419E+01  0.51184221020E+00  0.45577630085E+01  0.51100000000E-03 0. -1.
        -11    1    3    3    0    0  0.63612389870E+01  0.64259345183E+01  0.76427742781E+01  0.11839340979E+02  0.51100000000E-03 0.  1.
        -12    1    3    3    0    0 -0.71845115769E+01 -0.81327674876E+01  0.32360741638E+02  0.34131755199E+02  0.00000000000E+00 0.  1.
</event>
<event>
 7    1  0.5329250E-013  0.5052886E+02  0.7816164E-02  0.1300439E+00
        -11   -1    0    0    0    0  0.00000000000E+00  0.00000000000E+00  0.45593999997E+02  0.45594000000E+02  0.51100000000E-03 0.  1.
         11   -1    0    0    0    0 -0.00000000000E+00 -0.00000000000E+00 -0.45593999997E+02  0.45594000000E+02  0.51100000000E-03 0. -1.
    9900012    2    1    2    0    0  0.85421707441E+01 -0.23884390371E+02  0.31776298201E+02  0.50528856972E+02  0.29999991252E+02 0.  0.
         12    1    1    2    0    0 -0.85421707441E+01  0.23884390371E+02 -0.31776298201E+02  0.40659143028E+02  0.00000000000E+00 0. -1.
         11    1    3    3    0    0 -0.40565059480E+00 -0.15334384844E+02  0.48468528018E+01  0.16087258725E+02  0.51100000000E-03 0. -1.
        -11    1    3    3    0    0 -0.53160104279E+01 -0.30127347484E+01  0.88830505857E+01  0.10781703275E+02  0.51100000000E-03 0.  1.
        -12    1    3    3    0    0  0.14263831767E+02 -0.55372707786E+01  0.18046394814E+02  0.23659894973E+02  0.00000000000E+00 0.  1.
</event>
<event>
 7    1  0.5329250E-013  0.5052887E+02  0.7816164E-02  0.1300439E+00
        -11   -1    0    0    0    0  0.00000000000E+00  0.00000000000E+00  0.45593999997E+02  0.45594000000E+02  0.51100000000E-03 0. -1.
         11   -1    0    0    0    0 -0.00000000000E+00 -0.00000000000E+00 -0.45593999997E+02  0.45594000000E+02  0.51100000000E-03 0.  1.
    9900012    2    1    2    0    0  0.78216533733E+01  0.30921627468E+02  0.25215863990E+02  0.50528866911E+02  0.30000021463E+02 0.  0.
         12    1    1    2    0    0 -0.78216533733E+01 -0.30921627468E+02 -0.25215863990E+02  0.40659133089E+02  0.00000000000E+00 0. -1.
         11    1    3    3    0    0  0.70355351199E+01  0.15381842012E+02  0.74778970917E+01  0.18493749303E+02  0.51100000000E-03 0. -1.
        -11    1    3    3    0    0 -0.73868545195E+01  0.12467422451E+02  0.28401116763E+01  0.14767141797E+02  0.51100000000E-03 0.  1.
        -12    1    3    3    0    0  0.81729727728E+01  0.30723630054E+01  0.14897855222E+02  0.17267975811E+02  0.00000000000E+00 0.  1.
</event>
<event>
 7    1  0.5329250E-013  0.5052886E+02  0.7816164E-02  0.1300439E+00
        -11   -1    0    0    0    0  0.00000000000E+00  0.00000000000E+00  0.45593999997E+02  0.45594000000E+02  0.51100000000E-03 0.  1.
         11   -1    0    0    0    0 -0.00000000000E+00 -0.00000000000E+00 -0.45593999997E+02  0.45594000000E+02  0.51100000000E-03 0. -1.
    9900012    2    1    2    0    0  0.29279835370E+01  0.30499459242E+02  0.26727806320E+02  0.50528859179E+02  0.29999997960E+02 0.  0.
         12    1    1    2    0    0 -0.29279835370E+01 -0.30499459242E+02 -0.26727806320E+02  0.40659140821E+02  0.00000000000E+00 0. -1.
         11    1    3    3    0    0 -0.28845072781E+01  0.11739012347E+02  0.96889701336E+01  0.15491963582E+02  0.51100000000E-03 0. -1.
        -11    1    3    3    0    0 -0.41501643996E+00  0.53925999420E+01  0.19366083016E+02  0.20107151574E+02  0.51100000000E-03 0.  1.
         12    1    3    3    0    0  0.62275072550E+01  0.13367846953E+02 -0.23272468298E+01  0.14929744022E+02  0.00000000000E+00 0. -1.
</event>
<event>
 7    1  0.5329250E-013  0.5052886E+02  0.7816164E-02  0.1300439E+00
        -11   -1    0    0    0    0  0.00000000000E+00  0.00000000000E+00  0.45593999997E+02  0.45594000000E+02  0.51100000000E-03 0.  1.
         11   -1    0    0    0    0 -0.00000000000E+00 -0.00000000000E+00 -0.45593999997E+02  0.45594000000E+02  0.51100000000E-03 0. -1.
    9900012    2    1    2    0    0 -0.39896106576E+01  0.12232453342E+02  0.38569620779E+02  0.50528861360E+02  0.30000004589E+02 0.  0.
         12    1    1    2    0    0  0.39896106576E+01 -0.12232453342E+02 -0.38569620779E+02  0.40659138640E+02  0.00000000000E+00 0. -1.
         11    1    3    3    0    0  0.59078465017E+01  0.11144763070E+02  0.12598399378E+02  0.17827732927E+02  0.51100000000E-03 0. -1.
        -11    1    3    3    0    0 -0.56324387399E+01  0.56852275347E+01  0.25130300590E+02  0.26373816302E+02  0.51100000000E-03 0.  1.
        -12    1    3    3    0    0 -0.42650184194E+01 -0.45975372623E+01  0.84092081014E+00  0.63273121311E+01  0.00000000000E+00 0.  1.
</event>
<event>
 7    1  0.5329250E-013  0.5052886E+02  0.7816164E-02  0.1300439E+00
        -11   -1    0    0    0    0  0.00000000000E+00  0.00000000000E+00  0.45593999997E+02  0.45594000000E+02  0.51100000000E-03 0.  1.
         11   -1    0    0    0    0 -0.00000000000E+00 -0.00000000000E+00 -0.45593999997E+02  0.45594000000E+02  0.51100000000E-03 0. -1.
    9900012    2    1    2    0    0  0.29315223936E+02 -0.15804496800E+01  0.28129797933E+02  0.50528859486E+02  0.29999998894E+02 0.  0.
         12    1    1    2    0    0 -0.29315223936E+02  0.15804496800E+01 -0.28129797933E+02  0.40659140514E+02  0.00000000000E+00 0. -1.
         11    1    3    3    0    0  0.28378219524E+01 -0.65551189106E+01  0.14610869711E+01  0.72909253709E+01  0.51100000000E-03 0. -1.
        -11    1    3    3    0    0  0.22096224641E+02  0.77509696024E+00  0.29230446453E+02  0.36650551411E+02  0.51100000000E-03 0.  1.
         12    1    3    3    0    0  0.43811773426E+01  0.41995722704E+01 -0.25617354907E+01  0.65873827038E+01  0.00000000000E+00 0. -1.
</event>
<event>
 7    1  0.5329250E-013  0.5052886E+02  0.7816164E-02  0.1300439E+00
        -11   -1    0    0    0    0  0.00000000000E+00  0.00000000000E+00  0.45593999997E+02  0.45594000000E+02  0.51100000000E-03 0. -1.
         11   -1    0    0    0    0 -0.00000000000E+00 -0.00000000000E+00 -0.45593999997E+02  0.45594000000E+02  0.51100000000E-03 0.  1.
    9900012    2    1    2    0    0  0.38867210870E+02 -0.93540891418E+01  0.74166406685E+01  0.50528860520E+02  0.30000002037E+02 0.  0.
         12    1    1    2    0    0 -0.38867210870E+02  0.93540891418E+01 -0.74166406685E+01  0.40659139480E+02  0.00000000000E+00 0. -1.
         11    1    3    3    0    0  0.20107017658E+02 -0.10832496484E+02 -0.15480595030E+01  0.22891737104E+02  0.51100000000E-03 0. -1.
        -11    1    3    3    0    0  0.19121780731E+02 -0.17287335242E+01  0.12102896485E+01  0.19237874602E+02  0.51100000000E-03 0.  1.
         12    1    3    3    0    0 -0.36158751906E+00  0.32071408664E+01  0.77544105231E+01  0.83992488135E+01  0.00000000000E+00 0. -1.
</event>
<event>
 7    1  0.5329250E-013  0.5052886E+02  0.7816164E-02  0.1300439E+00
        -11   -1    0    0    0    0  0.00000000000E+00  0.00000000000E+00  0.45593999997E+02  0.45594000000E+02  0.51100000000E-03 0.  1.
         11   -1    0    0    0    0 -0.00000000000E+00 -0.00000000000E+00 -0.45593999997E+02  0.45594000000E+02  0.51100000000E-03 0. -1.
    9900012    2    1    2    0    0 -0.22299011377E+02  0.32840265860E+02  0.87998173131E+01  0.50528858901E+02  0.29999997116E+02 0.  0.
         12    1    1    2    0    0  0.22299011377E+02 -0.32840265860E+02 -0.87998173131E+01  0.40659141099E+02  0.00000000000E+00 0. -1.
         11    1    3    3    0    0 -0.10852633702E+02  0.13496705854E+02  0.48295819884E+01  0.17979588139E+02  0.51100000000E-03 0. -1.
        -11    1    3    3    0    0 -0.83023952879E+01  0.20297607144E+02 -0.54293213235E+01  0.22592037393E+02  0.51100000000E-03 0.  1.
         12    1    3    3    0    0 -0.31439823866E+01 -0.95404713807E+00  0.93995566482E+01  0.99572333693E+01  0.00000000000E+00 0. -1.
</event>
<event>
 7    1  0.5329250E-013  0.5052886E+02  0.7816164E-02  0.1300439E+00
        -11   -1    0    0    0    0  0.00000000000E+00  0.00000000000E+00  0.45593999997E+02  0.45594000000E+02  0.51100000000E-03 0. -1.
         11   -1    0    0    0    0 -0.00000000000E+00 -0.00000000000E+00 -0.45593999997E+02  0.45594000000E+02  0.51100000000E-03 0.  1.
    9900012    2    1    2    0    0 -0.41130221341E+01 -0.23664014435E+02 -0.32806453911E+02  0.50528856521E+02  0.29999989880E+02 0.  0.
         12    1    1    2    0    0  0.41130221341E+01  0.23664014435E+02  0.32806453911E+02  0.40659143479E+02  0.00000000000E+00 0. -1.
         11    1    3    3    0    0  0.57948431455E+01 -0.87243629302E+01 -0.13594788201E+00  0.10474406795E+02  0.51100000000E-03 0. -1.
        -11    1    3    3    0    0 -0.45699592428E+01 -0.14814913176E+02 -0.14914357991E+02  0.21512885777E+02  0.51100000000E-03 0.  1.
         12    1    3    3    0    0 -0.53379060368E+01 -0.12473832828E+00 -0.17756148038E+02  0.18541563949E+02  0.00000000000E+00 0. -1.
</event>
<event>
 7    1  0.5329250E-013  0.5052886E+02  0.7816164E-02  0.1300439E+00
        -11   -1    0    0    0    0  0.00000000000E+00  0.00000000000E+00  0.45593999997E+02  0.45594000000E+02  0.51100000000E-03 0. -1.
         11   -1    0    0    0    0 -0.00000000000E+00 -0.00000000000E+00 -0.45593999997E+02  0.45594000000E+02  0.51100000000E-03 0.  1.
    9900012    2    1    2    0    0  0.32249168605E+02  0.24760999466E+02  0.22372497665E+00  0.50528855602E+02  0.29999987089E+02 0.  0.
         12    1    1    2    0    0 -0.32249168605E+02 -0.24760999466E+02 -0.22372497665E+00  0.40659144398E+02  0.00000000000E+00 0. -1.
         11    1    3    3    0    0  0.15100817972E+02  0.97659439371E+01  0.85487865996E+01  0.19912059587E+02  0.51100000000E-03 0. -1.
        -11    1    3    3    0    0  0.20526193671E+01  0.13996681679E+02 -0.57508361245E+01  0.15270640480E+02  0.51100000000E-03 0.  1.
         12    1    3    3    0    0  0.15095731266E+02  0.99837385055E+00 -0.25742254985E+01  0.15346155535E+02  0.00000000000E+00 0. -1.
</event>
<event>
 7    1  0.5329250E-013  0.5052886E+02  0.7816164E-02  0.1300439E+00
        -11   -1    0    0    0    0  0.00000000000E+00  0.00000000000E+00  0.45593999997E+02  0.45594000000E+02  0.51100000000E-03 0.  1.
         11   -1    0    0    0    0 -0.00000000000E+00 -0.00000000000E+00 -0.45593999997E+02  0.45594000000E+02  0.51100000000E-03 0. -1.
    9900012    2    1    2    0    0 -0.20094961314E+02  0.31868844884E+02  0.15288392215E+02  0.50528859810E+02  0.29999999879E+02 0.  0.
         12    1    1    2    0    0  0.20094961314E+02 -0.31868844884E+02 -0.15288392215E+02  0.40659140190E+02  0.00000000000E+00 0. -1.
         11    1    3    3    0    0 -0.10099622849E+02 -0.13222194637E+01  0.87723823078E+01  0.13442668546E+02  0.51100000000E-03 0. -1.
        -11    1    3    3    0    0 -0.80213691820E+01  0.83520630951E+01  0.25076983989E+01  0.11848538856E+02  0.51100000000E-03 0.  1.
        -12    1    3    3    0    0 -0.19739692828E+01  0.24839001252E+02  0.40083115086E+01  0.25237652409E+02  0.00000000000E+00 0.  1.
</event>
<event>
 7    1  0.5329250E-013  0.5052886E+02  0.7816164E-02  0.1300439E+00
        -11   -1    0    0    0    0  0.00000000000E+00  0.00000000000E+00  0.45593999997E+02  0.45594000000E+02  0.51100000000E-03 0. -1.
         11   -1    0    0    0    0 -0.00000000000E+00 -0.00000000000E+00 -0.45593999997E+02  0.45594000000E+02  0.51100000000E-03 0.  1.
    9900012    2    1    2    0    0 -0.11829423780E+02 -0.22171358652E+02 -0.31963432989E+02  0.50528862529E+02  0.30000008142E+02 0.  0.
         12    1    1    2    0    0  0.11829423780E+02  0.22171358652E+02  0.31963432989E+02  0.40659137471E+02  0.00000000000E+00 0. -1.
         11    1    3    3    0    0 -0.76754038299E+01  0.22773995658E+01 -0.32313422560E+01  0.86336519371E+01  0.51100000000E-03 0.  1.
        -11    1    3    3    0    0 -0.19742269529E+01  0.23390499485E+01 -0.58295039350E+01  0.65842116546E+01  0.51100000000E-03 0. -1.
        -12    1    3    3    0    0 -0.21797929972E+01 -0.26787808167E+02 -0.22902586798E+02  0.35310998937E+02  0.00000000000E+00 0.  1.
</event>
<event>
 7    1  0.5329250E-013  0.5052873E+02  0.7816164E-02  0.1300439E+00
        -11   -1    0    0    0    0  0.00000000000E+00  0.00000000000E+00  0.45593999997E+02  0.45594000000E+02  0.51100000000E-03 0.  1.
         11   -1    0    0    0    0 -0.00000000000E+00 -0.00000000000E+00 -0.45593999997E+02  0.45594000000E+02  0.51100000000E-03 0. -1.
    9900012    2    1    2    0    0  0.27410052946E+02 -0.21348687214E+02  0.21121052052E+02  0.50528729371E+02  0.29999603395E+02 0.  0.
         12    1    1    2    0    0 -0.27410052946E+02  0.21348687214E+02 -0.21121052052E+02  0.40659270629E+02  0.00000000000E+00 0. -1.
         11    1    3    3    0    0  0.83307451372E+01 -0.19865742399E+00  0.15889569759E+02  0.17942107087E+02  0.51100000000E-03 0. -1.
        -11    1    3    3    0    0  0.30164402318E+01 -0.19413191637E+01  0.65974773453E+01  0.75096164583E+01  0.51100000000E-03 0.  1.
         12    1    3    3    0    0  0.16062867577E+02 -0.19208710626E+02 -0.13659950529E+01  0.25077005826E+02  0.00000000000E+00 0. -1.
</event>
<event>
 7    1  0.5329250E-013  0.5052886E+02  0.7816164E-02  0.1300439E+00
        -11   -1    0    0    0    0  0.00000000000E+00  0.00000000000E+00  0.45593999997E+02  0.45594000000E+02  0.51100000000E-03 0. -1.
         11   -1    0    0    0    0 -0.00000000000E+00 -0.00000000000E+00 -0.45593999997E+02  0.45594000000E+02  0.51100000000E-03 0.  1.
    9900012    2    1    2    0    0  0.28802450773E+01  0.10869144792E+01 -0.40542424127E+02  0.50528863894E+02  0.30000012292E+02 0.  0.
         12    1    1    2    0    0 -0.28802450773E+01 -0.10869144792E+01  0.40542424127E+02  0.40659136106E+02  0.00000000000E+00 0. -1.
         11    1    3    3    0    0  0.10990881126E+02 -0.11314830155E+01 -0.25128887085E+02  0.27450695586E+02  0.51100000000E-03 0. -1.
        -11    1    3    3    0    0  0.96159200836E+00  0.68368687678E+01 -0.50741465922E+01  0.85682202142E+01  0.51100000000E-03 0.  1.
        -12    1    3    3    0    0 -0.90722280572E+01 -0.46184712731E+01 -0.10339390450E+02  0.14509948094E+02  0.00000000000E+00 0.  1.
</event>
<event>
 7    1  0.5329250E-013  0.5052886E+02  0.7816164E-02  0.1300439E+00
        -11   -1    0    0    0    0  0.00000000000E+00  0.00000000000E+00  0.45593999997E+02  0.45594000000E+02  0.51100000000E-03 0.  1.
         11   -1    0    0    0    0 -0.00000000000E+00 -0.00000000000E+00 -0.45593999997E+02  0.45594000000E+02  0.51100000000E-03 0. -1.
    9900012    2    1    2    0    0 -0.39269539553E+02 -0.41658537252E+01  0.96806446748E+01  0.50528856436E+02  0.29999989624E+02 0.  0.
         12    1    1    2    0    0  0.39269539553E+02  0.41658537252E+01 -0.96806446748E+01  0.40659143564E+02  0.00000000000E+00 0. -1.
         11    1    3    3    0    0  0.83154237144E+00  0.26829540947E+00 -0.25578528980E+01  0.27029718555E+01  0.51100000000E-03 0. -1.
        -11    1    3    3    0    0 -0.14388246111E+02 -0.12307364435E+02  0.19514530169E+01  0.19034206435E+02  0.51100000000E-03 0.  1.
        -12    1    3    3    0    0 -0.25712835814E+02  0.78732153000E+01  0.10287044556E+02  0.28791678146E+02  0.00000000000E+00 0.  1.
</event>
<event>
 7    1  0.5329250E-013  0.5052886E+02  0.7816164E-02  0.1300439E+00
        -11   -1    0    0    0    0  0.00000000000E+00  0.00000000000E+00  0.45593999997E+02  0.45594000000E+02  0.51100000000E-03 0.  1.
         11   -1    0    0    0    0 -0.00000000000E+00 -0.00000000000E+00 -0.45593999997E+02  0.45594000000E+02  0.51100000000E-03 0. -1.
    9900012    2    1    2    0    0  0.23224325413E+02  0.26084869250E+02  0.20817682085E+02  0.50528861026E+02  0.30000003575E+02 0.  0.
         12    1    1    2    0    0 -0.23224325413E+02 -0.26084869250E+02 -0.20817682085E+02  0.40659138974E+02  0.00000000000E+00 0. -1.
         11    1    3    3    0    0  0.70864231118E+01  0.92094307757E+01 -0.29475574376E+01  0.11988290238E+02  0.51100000000E-03 0. -1.
        -11    1    3    3    0    0 -0.40576425352E+01  0.29362485886E+01  0.77848727923E+01  0.92569035520E+01  0.51100000000E-03 0.  1.
        -12    1    3    3    0    0  0.20195544837E+02  0.13939189886E+02  0.15980366731E+02  0.29283667236E+02  0.00000000000E+00 0.  1.
</event>
<event>
 7    1  0.5329250E-013  0.5052887E+02  0.7816164E-02  0.1300439E+00
        -11   -1    0    0    0    0  0.00000000000E+00  0.00000000000E+00  0.45593999997E+02  0.45594000000E+02  0.51100000000E-03 0. -1.
         11   -1    0    0    0    0 -0.00000000000E+00 -0.00000000000E+00 -0.45593999997E+02  0.45594000000E+02  0.51100000000E-03 0.  1.
    9900012    2    1    2    0    0  0.38339623949E+02  0.72528417620E+01  0.11429535610E+02  0.50528871106E+02  0.30000034214E+02 0.  0.
         12    1    1    2    0    0 -0.38339623949E+02 -0.72528417620E+01 -0.11429535610E+02  0.40659128894E+02  0.00000000000E+00 0. -1.
         11    1    3    3    0    0 -0.24546007282E+00  0.23571331698E+01 -0.21873396605E+01  0.32250244153E+01  0.51100000000E-03 0. -1.
        -11    1    3    3    0    0  0.35740535666E+02  0.11938846277E+02  0.10753712879E+02  0.39186276693E+02  0.51100000000E-03 0.  1.
         12    1    3    3    0    0  0.28445483557E+01 -0.70431376846E+01  0.28631623914E+01  0.81175699980E+01  0.00000000000E+00 0. -1.
</event>
<event>
 7    1  0.5329250E-013  0.5052886E+02  0.7816164E-02  0.1300439E+00
        -11   -1    0    0    0    0  0.00000000000E+00  0.00000000000E+00  0.45593999997E+02  0.45594000000E+02  0.51100000000E-03 0.  1.
         11   -1    0    0    0    0 -0.00000000000E+00 -0.00000000000E+00 -0.45593999997E+02  0.45594000000E+02  0.51100000000E-03 0. -1.
    9900012    2    1    2    0    0  0.36780295527E+02 -0.16757014038E+02  0.44246946111E+01  0.50528861040E+02  0.30000003617E+02 0.  0.
         12    1    1    2    0    0 -0.36780295527E+02  0.16757014038E+02 -0.44246946111E+01  0.40659138960E+02  0.00000000000E+00 0. -1.
         11    1    3    3    0    0  0.83948076663E+01 -0.43858423977E+01  0.10545290358E+02  0.14174327437E+02  0.51100000000E-03 0. -1.
        -11    1    3    3    0    0  0.12885289194E+02 -0.12521630394E+02  0.32248590397E+01  0.18254358970E+02  0.51100000000E-03 0.  1.
         12    1    3    3    0    0  0.15500198667E+02  0.15045875317E+00 -0.93454547869E+01  0.18100174633E+02  0.00000000000E+00 0. -1.
</event>
<event>
 7    1  0.5329250E-013  0.5052886E+02  0.7816164E-02  0.1300439E+00
        -11   -1    0    0    0    0  0.00000000000E+00  0.00000000000E+00  0.45593999997E+02  0.45594000000E+02  0.51100000000E-03 0.  1.
         11   -1    0    0    0    0 -0.00000000000E+00 -0.00000000000E+00 -0.45593999997E+02  0.45594000000E+02  0.51100000000E-03 0. -1.
    9900012    2    1    2    0    0 -0.29279057547E+02  0.27248542592E+02  0.73088570230E+01  0.50528859881E+02  0.30000000094E+02 0.  0.
         12    1    1    2    0    0  0.29279057547E+02 -0.27248542592E+02 -0.73088570230E+01  0.40659140119E+02  0.00000000000E+00 0. -1.
         11    1    3    3    0    0  0.91014824028E+00  0.11696543050E+02 -0.19400956520E+01  0.11891234609E+02  0.51100000000E-03 0. -1.
        -11    1    3    3    0    0 -0.13069398902E+02  0.14653330723E+02  0.11259420428E+01  0.19667156244E+02  0.51100000000E-03 0.  1.
        -12    1    3    3    0    0 -0.17119806885E+02  0.89866881943E+00  0.81230106322E+01  0.18970469028E+02  0.00000000000E+00 0.  1.
</event>
<event>
 7    1  0.5329250E-013  0.5052886E+02  0.7816164E-02  0.1300439E+00
        -11   -1    0    0    0    0  0.00000000000E+00  0.00000000000E+00  0.45593999997E+02  0.45594000000E+02  0.51100000000E-03 0. -1.
         11   -1    0    0    0    0 -0.00000000000E+00 -0.00000000000E+00 -0.45593999997E+02  0.45594000000E+02  0.51100000000E-03 0.  1.
    9900012    2    1    2    0    0  0.37308867709E+02 -0.28175389316E+01 -0.15914629699E+02  0.50528861128E+02  0.30000003885E+02 0.  0.
         12    1    1    2    0    0 -0.37308867709E+02  0.28175389316E+01  0.15914629699E+02  0.40659138872E+02  0.00000000000E+00 0. -1.
         11    1    3    3    0    0  0.11742476685E+02  0.61514314468E+01  0.43335984175E+01  0.13946538748E+02  0.51100000000E-03 0. -1.
        -11    1    3    3    0    0  0.14406335530E+02 -0.37410210414E+01 -0.26814428288E+01  0.15123752106E+02  0.51100000000E-03 0.  1.
        -12    1    3    3    0    0  0.11160055494E+02 -0.52279493369E+01 -0.17566785287E+02  0.21458570274E+02  0.00000000000E+00 0.  1.
</event>
<event>
 7    1  0.5329250E-013  0.5052888E+02  0.7816164E-02  0.1300439E+00
        -11   -1    0    0    0    0  0.00000000000E+00  0.00000000000E+00  0.45593999997E+02  0.45594000000E+02  0.51100000000E-03 0.  1.
         11   -1    0    0    0    0 -0.00000000000E+00 -0.00000000000E+00 -0.45593999997E+02  0.45594000000E+02  0.51100000000E-03 0. -1.
    9900012    2    1    2    0    0 -0.34624738673E+02  0.19438456109E+02  0.87428920811E+01  0.50528877210E+02  0.30000052768E+02 0.  0.
         12    1    1    2    0    0  0.34624738673E+02 -0.19438456109E+02 -0.87428920811E+01  0.40659122790E+02  0.00000000000E+00 0. -1.
         11    1    3    3    0    0 -0.13251578767E+02  0.31748516437E+01 -0.12708054093E+01  0.13685721371E+02  0.51100000000E-03 0. -1.
        -11    1    3    3    0    0 -0.55098999630E+01  0.10297535272E+02 -0.63422537658E+01  0.13289936545E+02  0.51100000000E-03 0.  1.
        -12    1    3    3    0    0 -0.15863259943E+02  0.59660691934E+01  0.16355951256E+02  0.23553219295E+02  0.00000000000E+00 0.  1.
</event>
<event>
 7    1  0.5329250E-013  0.5052886E+02  0.7816164E-02  0.1300439E+00
        -11   -1    0    0    0    0  0.00000000000E+00  0.00000000000E+00  0.45593999997E+02  0.45594000000E+02  0.51100000000E-03 0.  1.
         11   -1    0    0    0    0 -0.00000000000E+00 -0.00000000000E+00 -0.45593999997E+02  0.45594000000E+02  0.51100000000E-03 0. -1.
    9900012    2    1    2    0    0  0.37335235350E+02 -0.24608222411E+01  0.15911956081E+02  0.50528858456E+02  0.29999995764E+02 0.  0.
         12    1    1    2    0    0 -0.37335235350E+02  0.24608222411E+01 -0.15911956081E+02  0.40659141544E+02  0.00000000000E+00 0. -1.
         11    1    3    3    0    0  0.28548216367E+02 -0.44716951870E+00  0.18199824287E+02  0.33859034580E+02  0.51100000000E-03 0.  1.
        -11    1    3    3    0    0  0.42064480353E+01 -0.71469272607E+01  0.20422970679E+01  0.85407114410E+01  0.51100000000E-03 0. -1.
        -12    1    3    3    0    0  0.45805709473E+01  0.51332745383E+01 -0.43301652741E+01  0.81291124355E+01  0.00000000000E+00 0.  1.
</event>
<event>
 7    1  0.5329250E-013  0.5052886E+02  0.7816164E-02  0.1300439E+00
        -11   -1    0    0    0    0  0.00000000000E+00  0.00000000000E+00  0.45593999997E+02  0.45594000000E+02  0.51100000000E-03 0. -1.
         11   -1    0    0    0    0 -0.00000000000E+00 -0.00000000000E+00 -0.45593999997E+02  0.45594000000E+02  0.51100000000E-03 0.  1.
    9900012    2    1    2    0    0  0.24912627027E+02 -0.26605648842E+02 -0.18018498829E+02  0.50528857907E+02  0.29999994093E+02 0.  0.
         12    1    1    2    0    0 -0.24912627027E+02  0.26605648842E+02  0.18018498829E+02  0.40659142093E+02  0.00000000000E+00 0. -1.
         11    1    3    3    0    0  0.92431903677E+01 -0.37066603055E+01  0.31099110007E+01  0.10432997915E+02  0.51100000000E-03 0. -1.
        -11    1    3    3    0    0  0.13413290470E+02 -0.18286862225E+02 -0.50726582690E+01  0.23239138397E+02  0.51100000000E-03 0.  1.
         12    1    3    3    0    0  0.22561461894E+01 -0.46121263121E+01 -0.16055751561E+02  0.16856721595E+02  0.00000000000E+00 0. -1.
</event>
<event>
 7    1  0.5329250E-013  0.5052885E+02  0.7816164E-02  0.1300439E+00
        -11   -1    0    0    0    0  0.00000000000E+00  0.00000000000E+00  0.45593999997E+02  0.45594000000E+02  0.51100000000E-03 0.  1.
         11   -1    0    0    0    0 -0.00000000000E+00 -0.00000000000E+00 -0.45593999997E+02  0.45594000000E+02  0.51100000000E-03 0. -1.
    9900012    2    1    2    0    0 -0.18470258542E+02  0.11479248656E+02  0.34354659036E+02  0.50528853455E+02  0.29999980561E+02 0.  0.
         12    1    1    2    0    0  0.18470258542E+02 -0.11479248656E+02 -0.34354659036E+02  0.40659146545E+02  0.00000000000E+00 0. -1.
         11    1    3    3    0    0  0.18030435987E+01 -0.10702395947E+01 -0.32381054811E+01  0.38576814768E+01  0.51100000000E-03 0. -1.
        -11    1    3    3    0    0 -0.23388088986E+00 -0.22228655436E+00  0.11012321619E+02  0.11017047667E+02  0.51100000000E-03 0.  1.
        -12    1    3    3    0    0 -0.20039421250E+02  0.12771774805E+02  0.26580442898E+02  0.35654124311E+02  0.00000000000E+00 0.  1.
</event>
<event>
 7    1  0.5329250E-013  0.5052886E+02  0.7816164E-02  0.1300439E+00
        -11   -1    0    0    0    0  0.00000000000E+00  0.00000000000E+00  0.45593999997E+02  0.45594000000E+02  0.51100000000E-03 0.  1.
         11   -1    0    0    0    0 -0.00000000000E+00 -0.00000000000E+00 -0.45593999997E+02  0.45594000000E+02  0.51100000000E-03 0. -1.
    9900012    2    1    2    0    0  0.80957435140E+01  0.27625988982E+02  0.28712873966E+02  0.50528862508E+02  0.30000008078E+02 0.  0.
         12    1    1    2    0    0 -0.80957435140E+01 -0.27625988982E+02 -0.28712873966E+02  0.40659137492E+02  0.00000000000E+00 0. -1.
         11    1    3    3    0    0 -0.80033097993E+01  0.20667039936E+01  0.80103453347E+01  0.11510424223E+02  0.51100000000E-03 0. -1.
        -11    1    3    3    0    0 -0.21925552611E+01  0.54451482469E+01  0.41432605048E+01  0.71849527400E+01  0.51100000000E-03 0.  1.
        -12    1    3    3    0    0  0.18291608574E+02  0.20114136741E+02  0.16559268126E+02  0.31833485545E+02  0.00000000000E+00 0.  1.
</event>
<event>
 7    1  0.5329250E-013  0.5052886E+02  0.7816164E-02  0.1300439E+00
        -11   -1    0    0    0    0  0.00000000000E+00  0.00000000000E+00  0.45593999997E+02  0.45594000000E+02  0.51100000000E-03 0.  1.
         11   -1    0    0    0    0 -0.00000000000E+00 -0.00000000000E+00 -0.45593999997E+02  0.45594000000E+02  0.51100000000E-03 0. -1.
    9900012    2    1    2    0    0 -0.24510309801E+02  0.27395404750E+02  0.17375332969E+02  0.50528859776E+02  0.29999999776E+02 0.  0.
         12    1    1    2    0    0  0.24510309801E+02 -0.27395404750E+02 -0.17375332969E+02  0.40659140224E+02  0.00000000000E+00 0. -1.
         11    1    3    3    0    0  0.10014065988E+01  0.37531886256E+01  0.32058561055E+00  0.38976936040E+01  0.51100000000E-03 0. -1.
        -11    1    3    3    0    0 -0.12756934294E+02  0.84447201310E+01  0.21413823478E+02  0.26317380320E+02  0.51100000000E-03 0.  1.
         12    1    3    3    0    0 -0.12754782105E+02  0.15197495994E+02 -0.43590761202E+01  0.20313785852E+02  0.00000000000E+00 0. -1.
</event>
<event>
 7    1  0.5329250E-013  0.5052885E+02  0.7816164E-02  0.1300439E+00
        -11   -1    0    0    0    0  0.00000000000E+00  0.00000000000E+00  0.45593999997E+02  0.45594000000E+02  0.51100000000E-03 0. -1.
         11   -1    0    0    0    0 -0.00000000000E+00 -0.00000000000E+00 -0.45593999997E+02  0.45594000000E+02  0.51100000000E-03 0.  1.
    9900012    2    1    2    0    0  0.39165610207E+02 -0.93108556296E+01  0.57034677928E+01  0.50528848505E+02  0.29999965516E+02 0.  0.
         12    1    1    2    0    0 -0.39165610207E+02  0.93108556296E+01 -0.57034677928E+01  0.40659151495E+02  0.00000000000E+00 0. -1.
         11    1    3    3    0    0  0.53686942070E+01  0.80995967583E+01  0.56659793087E+01  0.11248540657E+02  0.51100000000E-03 0. -1.
        -11    1    3    3    0    0  0.30379809158E+01 -0.51297297568E+01  0.14307473083E+01  0.61311086717E+01  0.51100000000E-03 0.  1.
        -12    1    3    3    0    0  0.30758935084E+02 -0.12280722631E+02 -0.13932588242E+01  0.33149199176E+02  0.00000000000E+00 0.  1.
</event>
<event>
 7    1  0.5329250E-013  0.5052887E+02  0.7816164E-02  0.1300439E+00
        -11   -1    0    0    0    0  0.00000000000E+00  0.00000000000E+00  0.45593999997E+02  0.45594000000E+02  0.51100000000E-03 0.  1.
         11   -1    0    0    0    0 -0.00000000000E+00 -0.00000000000E+00 -0.45593999997E+02  0.45594000000E+02  0.51100000000E-03 0. -1.
    9900012    2    1    2    0    0  0.16429527094E+02  0.13755213721E+02  0.34554733084E+02  0.50528870109E+02  0.30000031182E+02 0.  0.
         12    1    1    2    0    0 -0.16429527094E+02 -0.13755213721E+02 -0.34554733084E+02  0.40659129891E+02  0.00000000000E+00 0. -1.
         11    1    3    3    0    0  0.99558924634E+01 -0.63184846257E+01  0.55922158075E+01  0.13050514189E+02  0.51100000000E-03 0. -1.
        -11    1    3    3    0    0  0.23057385974E+01  0.11143288060E+02  0.23736780921E+02  0.26323450914E+02  0.51100000000E-03 0.  1.
        -12    1    3    3    0    0  0.41678960332E+01  0.89304102860E+01  0.52257363548E+01  0.11154905005E+02  0.00000000000E+00 0.  1.
</event>
<event>
 7    1  0.5329250E-013  0.5052887E+02  0.7816164E-02  0.1300439E+00
        -11   -1    0    0    0    0  0.00000000000E+00  0.00000000000E+00  0.45593999997E+02  0.45594000000E+02  0.51100000000E-03 0.  1.
         11   -1    0    0    0    0 -0.00000000000E+00 -0.00000000000E+00 -0.45593999997E+02  0.45594000000E+02  0.51100000000E-03 0. -1.
    9900012    2    1    2    0    0 -0.29100018031E+02 -0.28044051978E+02 -0.44592298231E+01  0.50528872718E+02  0.30000039113E+02 0.  0.
         12    1    1    2    0    0  0.29100018031E+02  0.28044051978E+02  0.44592298231E+01  0.40659127282E+02  0.00000000000E+00 0. -1.
         11    1    3    3    0    0 -0.79128212898E+01 -0.11297018641E+02  0.53261558668E+01  0.14785239515E+02  0.51100000000E-03 0. -1.
        -11    1    3    3    0    0 -0.23033956299E+02 -0.19822694255E+02 -0.69572014522E+01  0.31175390977E+02  0.51100000000E-03 0.  1.
         12    1    3    3    0    0  0.18467595573E+01  0.30756609182E+01 -0.28281842377E+01  0.45682422252E+01  0.00000000000E+00 0. -1.
</event>
<event>
 7    1  0.5329250E-013  0.5052886E+02  0.7816164E-02  0.1300439E+00
        -11   -1    0    0    0    0  0.00000000000E+00  0.00000000000E+00  0.45593999997E+02  0.45594000000E+02  0.51100000000E-03 0.  1.
         11   -1    0    0    0    0 -0.00000000000E+00 -0.00000000000E+00 -0.45593999997E+02  0.45594000000E+02  0.51100000000E-03 0. -1.
    9900012    2    1    2    0    0  0.78920946160E+01 -0.39318777372E+02  0.67018095177E+01  0.50528860041E+02  0.30000000580E+02 0.  0.
         12    1    1    2    0    0 -0.78920946160E+01  0.39318777372E+02 -0.67018095177E+01  0.40659139959E+02  0.00000000000E+00 0. -1.
         11    1    3    3    0    0  0.88080458219E+01 -0.66298957734E+01  0.72520927885E+00  0.11048217862E+02  0.51100000000E-03 0. -1.
        -11    1    3    3    0    0  0.73256097294E+01 -0.26732047313E+02  0.63939070501E-01  0.27717701924E+02  0.51100000000E-03 0.  1.
        -12    1    3    3    0    0 -0.82415609354E+01 -0.59568342848E+01  0.59126611684E+01  0.11762940255E+02  0.00000000000E+00 0.  1.
</event>
<event>
 7    1  0.5329250E-013  0.5052886E+02  0.7816164E-02  0.1300439E+00
        -11   -1    0    0    0    0  0.00000000000E+00  0.00000000000E+00  0.45593999997E+02  0.45594000000E+02  0.51100000000E-03 0.  1.
         11   -1    0    0    0    0 -0.00000000000E+00 -0.00000000000E+00 -0.45593999997E+02  0.45594000000E+02  0.51100000000E-03 0. -1.
    9900012    2    1    2    0    0  0.76521908314E+01 -0.23476868219E+02  0.32302417631E+02  0.50528861413E+02  0.30000004750E+02 0.  0.
         12    1    1    2    0    0 -0.76521908314E+01  0.23476868219E+02 -0.32302417631E+02  0.40659138587E+02  0.00000000000E+00 0. -1.
         11    1    3    3    0    0  0.49779688203E+01 -0.11044503049E+01  0.10802298074E+02  0.11945276388E+02  0.51100000000E-03 0. -1.
        -11    1    3    3    0    0  0.86147024031E+01 -0.31654535712E+01  0.40990067108E-01  0.91779558864E+01  0.51100000000E-03 0.  1.
        -12    1    3    3    0    0 -0.59404803920E+01 -0.19206964343E+02  0.21459129490E+02  0.29405629138E+02  0.00000000000E+00 0.  1.
</event>
<event>
 7    1  0.5329250E-013  0.5052886E+02  0.7816164E-02  0.1300439E+00
        -11   -1    0    0    0    0  0.00000000000E+00  0.00000000000E+00  0.45593999997E+02  0.45594000000E+02  0.51100000000E-03 0. -1.
         11   -1    0    0    0    0 -0.00000000000E+00 -0.00000000000E+00 -0.45593999997E+02  0.45594000000E+02  0.51100000000E-03 0.  1.
    9900012    2    1    2    0    0  0.15100487908E+02 -0.37619927752E+02 -0.31435766855E+01  0.50528858673E+02  0.29999996421E+02 0.  0.
         12    1    1    2    0    0 -0.15100487908E+02  0.37619927752E+02  0.31435766855E+01  0.40659141327E+02  0.00000000000E+00 0. -1.
         11    1    3    3    0    0  0.70246611920E+01 -0.91801858812E+01  0.58025580835E+01  0.12934116060E+02  0.51100000000E-03 0. -1.
        -11    1    3    3    0    0  0.49922651966E+01 -0.31155005200E+02 -0.50907793911E+01  0.31960492735E+02  0.51100000000E-03 0.  1.
         12    1    3    3    0    0  0.30835615191E+01  0.27152633295E+01 -0.38553553779E+01  0.56342498773E+01  0.00000000000E+00 0. -1.
</event>
<event>
 7    1  0.5329250E-013  0.5052886E+02  0.7816164E-02  0.1300439E+00
        -11   -1    0    0    0    0  0.00000000000E+00  0.00000000000E+00  0.45593999997E+02  0.45594000000E+02  0.51100000000E-03 0. -1.
         11   -1    0    0    0    0 -0.00000000000E+00 -0.00000000000E+00 -0.45593999997E+02  0.45594000000E+02  0.51100000000E-03 0.  1.
    9900012    2    1    2    0    0 -0.17382825894E+02  0.34720542183E+02 -0.12061808654E+02  0.50528856950E+02  0.29999991185E+02 0.  0.
         12    1    1    2    0    0  0.17382825894E+02 -0.34720542183E+02  0.12061808654E+02  0.40659143050E+02  0.00000000000E+00 0. -1.
         11    1    3    3    0    0 -0.13658952836E+02  0.22792469435E+02 -0.10307444312E+01  0.26591842543E+02  0.51100000000E-03 0. -1.
        -11    1    3    3    0    0 -0.43455192421E+01  0.15191984559E+02 -0.42142666709E+01  0.16353592149E+02  0.51100000000E-03 0.  1.
         12    1    3    3    0    0  0.62164618390E+00 -0.32639118105E+01 -0.68167975516E+01  0.75834222581E+01  0.00000000000E+00 0. -1.
</event>
<event>
 7    1  0.5329250E-013  0.5052886E+02  0.7816164E-02  0.1300439E+00
        -11   -1    0    0    0    0  0.00000000000E+00  0.00000000000E+00  0.45593999997E+02  0.45594000000E+02  0.51100000000E-03 0. -1.
         11   -1    0    0    0    0 -0.00000000000E+00 -0.00000000000E+00 -0.45593999997E+02  0.45594000000E+02  0.51100000000E-03 0.  1.
    9900012    2    1    2    0    0  0.19088776731E+02 -0.34121128272E+02 -0.11159441207E+02  0.50528856874E+02  0.29999990955E+02 0.  0.
         12    1    1    2    0    0 -0.19088776731E+02  0.34121128272E+02  0.11159441207E+02  0.40659143126E+02  0.00000000000E+00 0. -1.
         11    1    3    3    0    0  0.10955997193E+01  0.15312581698E+01  0.21472780154E+01  0.28558524934E+01  0.51100000000E-03 0. -1.
        -11    1    3    3    0    0  0.98373231549E+01 -0.63262735930E+01 -0.12647807711E+02  0.17226772901E+02  0.51100000000E-03 0.  1.
         12    1    3    3    0    0  0.81558538566E+01 -0.29326112849E+02 -0.65891151171E+00  0.30446231480E+02  0.00000000000E+00 0. -1.
</event>
<event>
 7    1  0.5329250E-013  0.5052886E+02  0.7816164E-02  0.1300439E+00
        -11   -1    0    0    0    0  0.00000000000E+00  0.00000000000E+00  0.45593999997E+02  0.45594000000E+02  0.51100000000E-03 0.  1.
         11   -1    0    0    0    0 -0.00000000000E+00 -0.00000000000E+00 -0.45593999997E+02  0.45594000000E+02  0.51100000000E-03 0. -1.
    9900012    2    1    2    0    0 -0.39149340385E+02  0.19779988324E+01  0.10797346743E+02  0.50528855535E+02  0.29999986883E+02 0.  0.
         12    1    1    2    0    0  0.39149340385E+02 -0.19779988324E+01 -0.10797346743E+02  0.40659144465E+02  0.00000000000E+00 0. -1.
         11    1    3    3    0    0 -0.19871628256E+01  0.93677590151E+01  0.23311496254E+01  0.98558603834E+01  0.51100000000E-03 0. -1.
        -11    1    3    3    0    0 -0.11619228203E+02  0.24468860884E+01  0.56718861227E+01  0.13159179611E+02  0.51100000000E-03 0.  1.
         12    1    3    3    0    0 -0.25542949356E+02 -0.98366462711E+01  0.27943109950E+01  0.27513815541E+02  0.00000000000E+00 0. -1.
</event>
<event>
 7    1  0.5329250E-013  0.5052886E+02  0.7816164E-02  0.1300439E+00
        -11   -1    0    0    0    0  0.00000000000E+00  0.00000000000E+00  0.45593999997E+02  0.45594000000E+02  0.51100000000E-03 0.  1.
         11   -1    0    0    0    0 -0.00000000000E+00 -0.00000000000E+00 -0.45593999997E+02  0.45594000000E+02  0.51100000000E-03 0. -1.
    9900012    2    1    2    0    0  0.21768211225E+02  0.75073817242E+01  0.33510444347E+02  0.50528859815E+02  0.29999999894E+02 0.  0.
         12    1    1    2    0    0 -0.21768211225E+02 -0.75073817242E+01 -0.33510444347E+02  0.40659140185E+02  0.00000000000E+00 0. -1.
         11    1    3    3    0    0  0.10491759115E+02  0.41873480398E+01 -0.17277569456E+00  0.11297820349E+02  0.51100000000E-03 0. -1.
        -11    1    3    3    0    0  0.39967091529E+01  0.93351687092E+01  0.13016584974E+02  0.16509104867E+02  0.51100000000E-03 0.  1.
        -12    1    3    3    0    0  0.72797429563E+01 -0.60151350249E+01  0.20666635068E+02  0.22721934599E+02  0.00000000000E+00 0.  1.
</event>
<event>
 7    1  0.5329250E-013  0.5052886E+02  0.7816164E-02  0.1300439E+00
        -11   -1    0    0    0    0  0.00000000000E+00  0.00000000000E+00  0.45593999997E+02  0.45594000000E+02  0.51100000000E-03 0. -1.
         11   -1    0    0    0    0 -0.00000000000E+00 -0.00000000000E+00 -0.45593999997E+02  0.45594000000E+02  0.51100000000E-03 0.  1.
    9900012    2    1    2    0    0  0.35963185714E+02  0.47591310263E+01  0.18362063574E+02  0.50528862853E+02  0.30000009129E+02 0.  0.
         12    1    1    2    0    0 -0.35963185714E+02 -0.47591310263E+01 -0.18362063574E+02  0.40659137147E+02  0.00000000000E+00 0. -1.
         11    1    3    3    0    0  0.18908805769E+01  0.10747144460E+00  0.64040001478E+01  0.66781881991E+01  0.51100000000E-03 0. -1.
        -11    1    3    3    0    0  0.17567102272E+02  0.13957281573E+02  0.10710034600E+02  0.24861891170E+02  0.51100000000E-03 0.  1.
        -12    1    3    3    0    0  0.16505202865E+02 -0.93056219914E+01  0.12480288258E+01  0.18988783484E+02  0.00000000000E+00 0.  1.
</event>
<event>
 7    1  0.5329250E-013  0.5052888E+02  0.7816164E-02  0.1300439E+00
        -11   -1    0    0    0    0  0.00000000000E+00  0.00000000000E+00  0.45593999997E+02  0.45594000000E+02  0.51100000000E-03 0.  1.
         11   -1    0    0    0    0 -0.00000000000E+00 -0.00000000000E+00 -0.45593999997E+02  0.45594000000E+02  0.51100000000E-03 0. -1.
    9900012    2    1    2    0    0 -0.71476592932E+00  0.16830163161E+02  0.37005382770E+02  0.50528884954E+02  0.30000076306E+02 0.  0.
         12    1    1    2    0    0  0.71476592932E+00 -0.16830163161E+02 -0.37005382770E+02  0.40659115046E+02  0.00000000000E+00 0. -1.
         11    1    3    3    0    0  0.40888525414E+01 -0.27698740140E+01  0.43189819928E+01  0.65608324833E+01  0.51100000000E-03 0. -1.
        -11    1    3    3    0    0  0.39645501703E+01  0.16938065060E+02  0.29536237326E+02  0.34278346251E+02  0.51100000000E-03 0.  1.
         12    1    3    3    0    0 -0.87681686410E+01  0.26619721152E+01  0.31501634512E+01  0.96897062199E+01  0.00000000000E+00 0. -1.
</event>
<event>
 7    1  0.5329250E-013  0.5052886E+02  0.7816164E-02  0.1300439E+00
        -11   -1    0    0    0    0  0.00000000000E+00  0.00000000000E+00  0.45593999997E+02  0.45594000000E+02  0.51100000000E-03 0.  1.
         11   -1    0    0    0    0 -0.00000000000E+00 -0.00000000000E+00 -0.45593999997E+02  0.45594000000E+02  0.51100000000E-03 0. -1.
    9900012    2    1    2    0    0 -0.17204246672E+02 -0.36839715946E+02 -0.12256147816E+00  0.50528858397E+02  0.29999995584E+02 0.  0.
         12    1    1    2    0    0  0.17204246672E+02  0.36839715946E+02  0.12256147816E+00  0.40659141603E+02  0.00000000000E+00 0. -1.
         11    1    3    3    0    0  0.25269325396E+01 -0.11156377572E+02 -0.59944671354E+01  0.12914479668E+02  0.51100000000E-03 0. -1.
        -11    1    3    3    0    0 -0.52906457615E+00 -0.14595141860E+02  0.49529356822E+01  0.15421726472E+02  0.51100000000E-03 0.  1.
        -12    1    3    3    0    0 -0.19202114636E+02 -0.11088196514E+02  0.91896997505E+00  0.22192652258E+02  0.00000000000E+00 0.  1.
</event>
<event>
 7    1  0.5329250E-013  0.5052886E+02  0.7816164E-02  0.1300439E+00
        -11   -1    0    0    0    0  0.00000000000E+00  0.00000000000E+00  0.45593999997E+02  0.45594000000E+02  0.51100000000E-03 0.  1.
         11   -1    0    0    0    0 -0.00000000000E+00 -0.00000000000E+00 -0.45593999997E+02  0.45594000000E+02  0.51100000000E-03 0. -1.
    9900012    2    1    2    0    0  0.29845771930E+01  0.22316770143E+02  0.33855870279E+02  0.50528857326E+02  0.29999992327E+02 0.  0.
         12    1    1    2    0    0 -0.29845771930E+01 -0.22316770143E+02 -0.33855870279E+02  0.40659142674E+02  0.00000000000E+00 0. -1.
         11    1    3    3    0    0  0.16011608909E+01  0.13497435210E+02  0.15239458821E+02  0.20420224750E+02  0.51100000000E-03 0. -1.
        -11    1    3    3    0    0 -0.98557647893E+01  0.66907882938E+01  0.70551067380E+01  0.13844756369E+02  0.51100000000E-03 0.  1.
         12    1    3    3    0    0  0.11239181091E+02  0.21285466391E+01  0.11561304721E+02  0.16263876206E+02  0.00000000000E+00 0. -1.
</event>
<event>
 7    1  0.5329250E-013  0.5052886E+02  0.7816164E-02  0.1300439E+00
        -11   -1    0    0    0    0  0.00000000000E+00  0.00000000000E+00  0.45593999997E+02  0.45594000000E+02  0.51100000000E-03 0.  1.
         11   -1    0    0    0    0 -0.00000000000E+00 -0.00000000000E+00 -0.45593999997E+02  0.45594000000E+02  0.51100000000E-03 0. -1.
    9900012    2    1    2    0    0 -0.19314152596E+02 -0.45207139587E+01  0.35492144715E+02  0.50528859802E+02  0.29999999853E+02 0.  0.
         12    1    1    2    0    0  0.19314152596E+02  0.45207139587E+01 -0.35492144715E+02  0.40659140198E+02  0.00000000000E+00 0. -1.
         11    1    3    3    0    0 -0.16533376059E+02 -0.40146307705E+01  0.19496960423E+02  0.25876654539E+02  0.51100000000E-03 0. -1.
        -11    1    3    3    0    0 -0.19498213336E+01  0.22460850961E+01  0.19722207753E+02  0.19945229515E+02  0.51100000000E-03 0.  1.
         12    1    3    3    0    0 -0.83095520305E+00 -0.27521682844E+01 -0.37270234607E+01  0.47069757479E+01  0.00000000000E+00 0. -1.
</event>
<event>
 7    1  0.5329250E-013  0.5052885E+02  0.7816164E-02  0.1300439E+00
        -11   -1    0    0    0    0  0.00000000000E+00  0.00000000000E+00  0.45593999997E+02  0.45594000000E+02  0.51100000000E-03 0.  1.
         11   -1    0    0    0    0 -0.00000000000E+00 -0.00000000000E+00 -0.45593999997E+02  0.45594000000E+02  0.51100000000E-03 0. -1.
    9900012    2    1    2    0    0 -0.20972318349E+02 -0.33892618096E+02  0.80385613695E+01  0.50528853831E+02  0.29999981703E+02 0.  0.
         12    1    1    2    0    0  0.20972318349E+02  0.33892618096E+02 -0.80385613695E+01  0.40659146169E+02  0.00000000000E+00 0. -1.
         11    1    3    3    0    0 -0.67555870910E+01 -0.23657387112E+02 -0.21740076725E+01  0.24698911545E+02  0.51100000000E-03 0. -1.
        -11    1    3    3    0    0  0.15559917790E+01 -0.74377619729E+01  0.44510757121E+01  0.88064458687E+01  0.51100000000E-03 0.  1.
        -12    1    3    3    0    0 -0.15772723037E+02 -0.27974690117E+01  0.57614933298E+01  0.17023496417E+02  0.00000000000E+00 0.  1.
</event>
<event>
 7    1  0.5329250E-013  0.5052884E+02  0.7816164E-02  0.1300439E+00
        -11   -1    0    0    0    0  0.00000000000E+00  0.00000000000E+00  0.45593999997E+02  0.45594000000E+02  0.51100000000E-03 0. -1.
         11   -1    0    0    0    0 -0.00000000000E+00 -0.00000000000E+00 -0.45593999997E+02  0.45594000000E+02  0.51100000000E-03 0.  1.
    9900012    2    1    2    0    0 -0.97868776002E+01 -0.24916559569E+02 -0.30603094959E+02  0.50528839470E+02  0.29999938053E+02 0.  0.
         12    1    1    2    0    0  0.97868776002E+01  0.24916559569E+02  0.30603094959E+02  0.40659160530E+02  0.00000000000E+00 0. -1.
         11    1    3    3    0    0  0.29084654268E+01 -0.23793144934E+01 -0.10364817352E+02  0.11024960209E+02  0.51100000000E-03 0. -1.
        -11    1    3    3    0    0 -0.10536897594E+02 -0.12327314036E+02 -0.23516073932E+02  0.28565619470E+02  0.51100000000E-03 0.  1.
        -12    1    3    3    0    0 -0.21584454331E+01 -0.10209931040E+02  0.32777963250E+01  0.10938259792E+02  0.00000000000E+00 0.  1.
</event>
<event>
 7    1  0.5329250E-013  0.5052889E+02  0.7816164E-02  0.1300439E+00
        -11   -1    0    0    0    0  0.00000000000E+00  0.00000000000E+00  0.45593999997E+02  0.45594000000E+02  0.51100000000E-03 0.  1.
         11   -1    0    0    0    0 -0.00000000000E+00 -0.00000000000E+00 -0.45593999997E+02  0.45594000000E+02  0.51100000000E-03 0. -1.
    9900012    2    1    2    0    0  0.19090378553E+02  0.16703901863E+01  0.35859869799E+02  0.50528892549E+02  0.30000099393E+02 0.  0.
         12    1    1    2    0    0 -0.19090378553E+02 -0.16703901863E+01 -0.35859869799E+02  0.40659107451E+02  0.00000000000E+00 0. -1.
         11    1    3    3    0    0  0.47612447687E+01 -0.33855201806E+01 -0.12333114592E+00  0.58434929172E+01  0.51100000000E-03 0. -1.
        -11    1    3    3    0    0  0.24965704693E+01  0.10511270303E+02  0.69059917133E+01  0.12822339463E+02  0.51100000000E-03 0.  1.
        -12    1    3    3    0    0  0.11832563315E+02 -0.54553599363E+01  0.29077209232E+02  0.31863060169E+02  0.00000000000E+00 0.  1.
</event>
<event>
 7    1  0.5329250E-013  0.5052887E+02  0.7816164E-02  0.1300439E+00
        -11   -1    0    0    0    0  0.00000000000E+00  0.00000000000E+00  0.45593999997E+02  0.45594000000E+02  0.51100000000E-03 0.  1.
         11   -1    0    0    0    0 -0.00000000000E+00 -0.00000000000E+00 -0.45593999997E+02  0.45594000000E+02  0.51100000000E-03 0. -1.
    9900012    2    1    2    0    0 -0.38597166181E+02 -0.12571391529E+02  0.23203456991E+01  0.50528866631E+02  0.30000020611E+02 0.  0.
         12    1    1    2    0    0  0.38597166181E+02  0.12571391529E+02 -0.23203456991E+01  0.40659133369E+02  0.00000000000E+00 0. -1.
         11    1    3    3    0    0  0.12705513642E+01 -0.50881404842E+01  0.14279899348E+01  0.54353132266E+01  0.51100000000E-03 0. -1.
        -11    1    3    3    0    0 -0.19023658310E+02  0.43396293704E+01  0.63437741854E+01  0.20517685779E+02  0.51100000000E-03 0.  1.
         12    1    3    3    0    0 -0.20844059235E+02 -0.11822880415E+02 -0.54514184210E+01  0.24575867625E+02  0.00000000000E+00 0. -1.
</event>
<event>
 7    1  0.5329250E-013  0.5052886E+02  0.7816164E-02  0.1300439E+00
        -11   -1    0    0    0    0  0.00000000000E+00  0.00000000000E+00  0.45593999997E+02  0.45594000000E+02  0.51100000000E-03 0.  1.
         11   -1    0    0    0    0 -0.00000000000E+00 -0.00000000000E+00 -0.45593999997E+02  0.45594000000E+02  0.51100000000E-03 0. -1.
    9900012    2    1    2    0    0  0.19399565395E+02 -0.11685607265E+02  0.33767873435E+02  0.50528857965E+02  0.29999994271E+02 0.  0.
         12    1    1    2    0    0 -0.19399565395E+02  0.11685607265E+02 -0.33767873435E+02  0.40659142035E+02  0.00000000000E+00 0. -1.
         11    1    3    3    0    0  0.97057367491E+01 -0.98569141523E+00 -0.18990986838E+01  0.99387871232E+01  0.51100000000E-03 0. -1.
        -11    1    3    3    0    0  0.82938073664E+01 -0.42545790528E+01  0.84368941141E+01  0.12572583907E+02  0.51100000000E-03 0.  1.
         12    1    3    3    0    0  0.14000212795E+01 -0.64453367967E+01  0.27230078005E+02  0.28017486935E+02  0.00000000000E+00 0. -1.
</event>
<event>
 7    1  0.5329250E-013  0.5052887E+02  0.7816164E-02  0.1300439E+00
        -11   -1    0    0    0    0  0.00000000000E+00  0.00000000000E+00  0.45593999997E+02  0.45594000000E+02  0.51100000000E-03 0.  1.
         11   -1    0    0    0    0 -0.00000000000E+00 -0.00000000000E+00 -0.45593999997E+02  0.45594000000E+02  0.51100000000E-03 0. -1.
    9900012    2    1    2    0    0 -0.20156913195E+02  0.32326639550E+02  0.14207474346E+02  0.50528866937E+02  0.30000021542E+02 0.  0.
         12    1    1    2    0    0  0.20156913195E+02 -0.32326639550E+02 -0.14207474346E+02  0.40659133063E+02  0.00000000000E+00 0. -1.
         11    1    3    3    0    0 -0.15121885890E+02  0.51192600106E+01  0.61028114191E+01  0.17091593355E+02  0.51100000000E-03 0. -1.
        -11    1    3    3    0    0  0.46681712614E+01  0.27997679614E+01  0.42164215166E+01  0.68854000777E+01  0.51100000000E-03 0.  1.
        -12    1    3    3    0    0 -0.97031985661E+01  0.24407611578E+02  0.38882414106E+01  0.26551873505E+02  0.00000000000E+00 0.  1.
</event>
<event>
 7    1  0.5329250E-013  0.5052886E+02  0.7816164E-02  0.1300439E+00
        -11   -1    0    0    0    0  0.00000000000E+00  0.00000000000E+00  0.45593999997E+02  0.45594000000E+02  0.51100000000E-03 0.  1.
         11   -1    0    0    0    0 -0.00000000000E+00 -0.00000000000E+00 -0.45593999997E+02  0.45594000000E+02  0.51100000000E-03 0. -1.
    9900012    2    1    2    0    0 -0.39112625574E+02  0.10985742864E+02 -0.16375980682E+01  0.50528858925E+02  0.29999997188E+02 0.  0.
         12    1    1    2    0    0  0.39112625574E+02 -0.10985742864E+02  0.16375980682E+01  0.40659141075E+02  0.00000000000E+00 0. -1.
         11    1    3    3    0    0 -0.56246128717E+01 -0.27534947526E+01 -0.41411787443E+01  0.75078202537E+01  0.51100000000E-03 0. -1.
        -11    1    3    3    0    0 -0.97253944088E+01  0.11368749040E+01  0.11082515192E+02  0.14788438870E+02  0.51100000000E-03 0.  1.
         12    1    3    3    0    0 -0.23762618293E+02  0.12602362713E+02 -0.85789345164E+01  0.28232599801E+02  0.00000000000E+00 0. -1.
</event>
<event>
 7    1  0.5329250E-013  0.5052885E+02  0.7816164E-02  0.1300439E+00
        -11   -1    0    0    0    0  0.00000000000E+00  0.00000000000E+00  0.45593999997E+02  0.45594000000E+02  0.51100000000E-03 0.  1.
         11   -1    0    0    0    0 -0.00000000000E+00 -0.00000000000E+00 -0.45593999997E+02  0.45594000000E+02  0.51100000000E-03 0. -1.
    9900012    2    1    2    0    0  0.38716549930E+02  0.87900486748E+01 -0.87710042305E+01  0.50528847163E+02  0.29999961437E+02 0.  0.
         12    1    1    2    0    0 -0.38716549930E+02 -0.87900486748E+01  0.87710042305E+01  0.40659152837E+02  0.00000000000E+00 0. -1.
         11    1    3    3    0    0  0.23603119415E+01  0.72514244840E+01  0.12370074122E+01  0.77255690475E+01  0.51100000000E-03 0. -1.
        -11    1    3    3    0    0  0.16601777237E+02 -0.34935857417E+00  0.56340077360E+01  0.17535196100E+02  0.51100000000E-03 0.  1.
        -12    1    3    3    0    0  0.19754460751E+02  0.18879827650E+01 -0.15642019379E+02  0.25268082015E+02  0.00000000000E+00 0.  1.
</event>
<event>
 7    1  0.5329250E-013  0.5052886E+02  0.7816164E-02  0.1300439E+00
        -11   -1    0    0    0    0  0.00000000000E+00  0.00000000000E+00  0.45593999997E+02  0.45594000000E+02  0.51100000000E-03 0. -1.
         11   -1    0    0    0    0 -0.00000000000E+00 -0.00000000000E+00 -0.45593999997E+02  0.45594000000E+02  0.51100000000E-03 0.  1.
    9900012    2    1    2    0    0 -0.33634415384E+02 -0.18825986363E+02  0.12941174256E+02  0.50528860168E+02  0.30000000967E+02 0.  0.
         12    1    1    2    0    0  0.33634415384E+02  0.18825986363E+02 -0.12941174256E+02  0.40659139832E+02  0.00000000000E+00 0. -1.
         11    1    3    3    0    0 -0.14143797615E+02 -0.31259221020E+01  0.55585424295E+01  0.15515018342E+02  0.51100000000E-03 0. -1.
        -11    1    3    3    0    0 -0.23884604366E+02 -0.10716684947E+02  0.16363992465E+01  0.26229743894E+02  0.51100000000E-03 0.  1.
        -12    1    3    3    0    0  0.43939865976E+01 -0.49833793142E+01  0.57462325802E+01  0.87840979318E+01  0.00000000000E+00 0.  1.
</event>
<event>
 7    1  0.5329250E-013  0.5052886E+02  0.7816164E-02  0.1300439E+00
        -11   -1    0    0    0    0  0.00000000000E+00  0.00000000000E+00  0.45593999997E+02  0.45594000000E+02  0.51100000000E-03 0. -1.
         11   -1    0    0    0    0 -0.00000000000E+00 -0.00000000000E+00 -0.45593999997E+02  0.45594000000E+02  0.51100000000E-03 0.  1.
    9900012    2    1    2    0    0 -0.54687408032E+01 -0.16068209271E+02 -0.36946868361E+02  0.50528861336E+02  0.30000004518E+02 0.  0.
         12    1    1    2    0    0  0.54687408032E+01  0.16068209271E+02  0.36946868361E+02  0.40659138664E+02  0.00000000000E+00 0. -1.
         11    1    3    3    0    0 -0.17331709864E+00  0.65335299545E+01 -0.11543525343E+01  0.66369859513E+01  0.51100000000E-03 0. -1.
        -11    1    3    3    0    0 -0.54054867453E+01 -0.44257840701E+01 -0.73749833837E+01  0.10158603829E+02  0.51100000000E-03 0.  1.
        -12    1    3    3    0    0  0.11006304070E+00 -0.18175955156E+02 -0.28417532443E+02  0.33733271556E+02  0.00000000000E+00 0.  1.
</event>
<event>
 7    1  0.5329250E-013  0.5052886E+02  0.7816164E-02  0.1300439E+00
        -11   -1    0    0    0    0  0.00000000000E+00  0.00000000000E+00  0.45593999997E+02  0.45594000000E+02  0.51100000000E-03 0.  1.
         11   -1    0    0    0    0 -0.00000000000E+00 -0.00000000000E+00 -0.45593999997E+02  0.45594000000E+02  0.51100000000E-03 0. -1.
    9900012    2    1    2    0    0 -0.11600408745E+02 -0.17292967007E+00  0.38968787017E+02  0.50528858970E+02  0.29999997326E+02 0.  0.
         12    1    1    2    0    0  0.11600408745E+02  0.17292967007E+00 -0.38968787017E+02  0.40659141030E+02  0.00000000000E+00 0. -1.
         11    1    3    3    0    0  0.18182857620E+01  0.10535929808E+01  0.17595015502E+02  0.17720067496E+02  0.51100000000E-03 0. -1.
        -11    1    3    3    0    0 -0.45146140580E+01 -0.10607538094E+02  0.13121909700E+02  0.17466714601E+02  0.51100000000E-03 0.  1.
         12    1    3    3    0    0 -0.89040804491E+01  0.93810154433E+01  0.82518618152E+01  0.15342076874E+02  0.00000000000E+00 0. -1.
</event>
<event>
 7    1  0.5329250E-013  0.5052885E+02  0.7816164E-02  0.1300439E+00
        -11   -1    0    0    0    0  0.00000000000E+00  0.00000000000E+00  0.45593999997E+02  0.45594000000E+02  0.51100000000E-03 0.  1.
         11   -1    0    0    0    0 -0.00000000000E+00 -0.00000000000E+00 -0.45593999997E+02  0.45594000000E+02  0.51100000000E-03 0. -1.
    9900012    2    1    2    0    0 -0.28444777185E+02  0.22833103764E+01  0.28962860407E+02  0.50528854186E+02  0.29999982784E+02 0.  0.
         12    1    1    2    0    0  0.28444777185E+02 -0.22833103764E+01 -0.28962860407E+02  0.40659145814E+02  0.00000000000E+00 0. -1.
         11    1    3    3    0    0 -0.95501017737E+01  0.30226995093E+01  0.30148254932E+01  0.10460895240E+02  0.51100000000E-03 0. -1.
        -11    1    3    3    0    0 -0.24042499708E+02 -0.32506464889E+01  0.23696537569E+02  0.33913631298E+02  0.51100000000E-03 0.  1.
         12    1    3    3    0    0  0.51478242970E+01  0.25112573559E+01  0.22514973443E+01  0.61543276474E+01  0.00000000000E+00 0. -1.
</event>
<event>
 7    1  0.5329250E-013  0.5052888E+02  0.7816164E-02  0.1300439E+00
        -11   -1    0    0    0    0  0.00000000000E+00  0.00000000000E+00  0.45593999997E+02  0.45594000000E+02  0.51100000000E-03 0.  1.
         11   -1    0    0    0    0 -0.00000000000E+00 -0.00000000000E+00 -0.45593999997E+02  0.45594000000E+02  0.51100000000E-03 0. -1.
    9900012    2    1    2    0    0 -0.14057626786E+02  0.38095504540E+02 -0.20687505950E+01  0.50528879669E+02  0.30000060243E+02 0.  0.
         12    1    1    2    0    0  0.14057626786E+02 -0.38095504540E+02  0.20687505950E+01  0.40659120331E+02  0.00000000000E+00 0. -1.
         11    1    3    3    0    0 -0.16310338525E+01 -0.21950621258E+01 -0.57080121091E+01  0.63292947208E+01  0.51100000000E-03 0. -1.
        -11    1    3    3    0    0  0.50946758888E+00  0.19767035144E+02  0.22215403899E+01  0.19898001849E+02  0.51100000000E-03 0.  1.
        -12    1    3    3    0    0 -0.12936060522E+02  0.20523531522E+02  0.14177211242E+01  0.24301583100E+02  0.00000000000E+00 0.  1.
</event>
<event>
 7    1  0.5329250E-013  0.5052886E+02  0.7816164E-02  0.1300439E+00
        -11   -1    0    0    0    0  0.00000000000E+00  0.00000000000E+00  0.45593999997E+02  0.45594000000E+02  0.51100000000E-03 0.  1.
         11   -1    0    0    0    0 -0.00000000000E+00 -0.00000000000E+00 -0.45593999997E+02  0.45594000000E+02  0.51100000000E-03 0. -1.
    9900012    2    1    2    0    0 -0.14129050470E+02 -0.25444914214E+02  0.28391758458E+02  0.50528859885E+02  0.30000000105E+02 0.  0.
         12    1    1    2    0    0  0.14129050470E+02  0.25444914214E+02 -0.28391758458E+02  0.40659140115E+02  0.00000000000E+00 0. -1.
         11    1    3    3    0    0  0.45215429132E+01 -0.10902178426E+02  0.24880389534E+01  0.12062014046E+02  0.51100000000E-03 0.  1.
        -11    1    3    3    0    0 -0.15198536232E+01  0.32607683963E+01  0.21369158348E+01  0.41843727267E+01  0.51100000000E-03 0. -1.
        -12    1    3    3    0    0 -0.17130739760E+02 -0.17803504184E+02  0.23766803670E+02  0.34282473112E+02  0.00000000000E+00 0.  1.
</event>
<event>
 7    1  0.5329250E-013  0.5052886E+02  0.7816164E-02  0.1300439E+00
        -11   -1    0    0    0    0  0.00000000000E+00  0.00000000000E+00  0.45593999997E+02  0.45594000000E+02  0.51100000000E-03 0. -1.
         11   -1    0    0    0    0 -0.00000000000E+00 -0.00000000000E+00 -0.45593999997E+02  0.45594000000E+02  0.51100000000E-03 0.  1.
    9900012    2    1    2    0    0  0.32756208168E+02 -0.13391864258E+02 -0.20021352895E+02  0.50528858671E+02  0.29999996417E+02 0.  0.
         12    1    1    2    0    0 -0.32756208168E+02  0.13391864258E+02  0.20021352895E+02  0.40659141329E+02  0.00000000000E+00 0. -1.
         11    1    3    3    0    0 -0.63620519165E+00 -0.45446030133E+01 -0.77716487992E+01  0.90253364986E+01  0.51100000000E-03 0. -1.
        -11    1    3    3    0    0  0.18545648910E+02 -0.38403059233E+01 -0.16662627505E+02  0.25225625834E+02  0.51100000000E-03 0.  1.
         12    1    3    3    0    0  0.14846764449E+02 -0.50069553217E+01  0.44129234091E+01  0.16277896339E+02  0.00000000000E+00 0. -1.
</event>
<event>
 7    1  0.5329250E-013  0.5052885E+02  0.7816164E-02  0.1300439E+00
        -11   -1    0    0    0    0  0.00000000000E+00  0.00000000000E+00  0.45593999997E+02  0.45594000000E+02  0.51100000000E-03 0.  1.
         11   -1    0    0    0    0 -0.00000000000E+00 -0.00000000000E+00 -0.45593999997E+02  0.45594000000E+02  0.51100000000E-03 0. -1.
    9900012    2    1    2    0    0 -0.36528141819E+02  0.68865504389E+00  0.17843400055E+02  0.50528852000E+02  0.29999976139E+02 0.  0.
         12    1    1    2    0    0  0.36528141819E+02 -0.68865504389E+00 -0.17843400055E+02  0.40659148000E+02  0.00000000000E+00 0. -1.
         11    1    3    3    0    0 -0.83939884821E+01 -0.96086098468E+01  0.10882010511E+02  0.16769095946E+02  0.51100000000E-03 0. -1.
        -11    1    3    3    0    0 -0.12266282159E+02  0.78929074710E+00  0.88776489498E+01  0.15162364889E+02  0.51100000000E-03 0.  1.
        -12    1    3    3    0    0 -0.15867871178E+02  0.95079741436E+01 -0.19162594049E+01  0.18597391165E+02  0.00000000000E+00 0.  1.
</event>
<event>
 7    1  0.5329250E-013  0.5052885E+02  0.7816164E-02  0.1300439E+00
        -11   -1    0    0    0    0  0.00000000000E+00  0.00000000000E+00  0.45593999997E+02  0.45594000000E+02  0.51100000000E-03 0. -1.
         11   -1    0    0    0    0 -0.00000000000E+00 -0.00000000000E+00 -0.45593999997E+02  0.45594000000E+02  0.51100000000E-03 0.  1.
    9900012    2    1    2    0    0  0.22719268795E+02 -0.33559553076E+02  0.32799059811E+01  0.50528848995E+02  0.29999967005E+02 0.  0.
         12    1    1    2    0    0 -0.22719268795E+02  0.33559553076E+02 -0.32799059811E+01  0.40659151005E+02  0.00000000000E+00 0. -1.
         11    1    3    3    0    0  0.20677492964E+01 -0.15944796905E+02  0.25834087146E+01  0.16284536725E+02  0.51100000000E-03 0. -1.
        -11    1    3    3    0    0  0.14634152427E+02 -0.20501472939E+02 -0.47468067165E+01  0.25632030434E+02  0.51100000000E-03 0.  1.
         12    1    3    3    0    0  0.60173670711E+01  0.28867167679E+01  0.54433039830E+01  0.86122818357E+01  0.00000000000E+00 0. -1.
</event>
<event>
 7    1  0.5329250E-013  0.5052885E+02  0.7816164E-02  0.1300439E+00
        -11   -1    0    0    0    0  0.00000000000E+00  0.00000000000E+00  0.45593999997E+02  0.45594000000E+02  0.51100000000E-03 0. -1.
         11   -1    0    0    0    0 -0.00000000000E+00 -0.00000000000E+00 -0.45593999997E+02  0.45594000000E+02  0.51100000000E-03 0.  1.
    9900012    2    1    2    0    0  0.30666751948E+02 -0.23649290348E+02 -0.12386604233E+02  0.50528848835E+02  0.29999966520E+02 0.  0.
         12    1    1    2    0    0 -0.30666751948E+02  0.23649290348E+02  0.12386604233E+02  0.40659151165E+02  0.00000000000E+00 0. -1.
         11    1    3    3    0    0  0.75328871533E+01 -0.15598280824E+02 -0.38237746979E+01  0.17738996779E+02  0.51100000000E-03 0. -1.
        -11    1    3    3    0    0  0.25111324196E+02 -0.11543576305E+02 -0.75637053258E+01  0.28653837357E+02  0.51100000000E-03 0.  1.
         12    1    3    3    0    0 -0.19774594010E+01  0.34925667811E+01 -0.99912420938E+00  0.41360146989E+01  0.00000000000E+00 0. -1.
</event>
<event>
 7    1  0.5329250E-013  0.5052885E+02  0.7816164E-02  0.1300439E+00
        -11   -1    0    0    0    0  0.00000000000E+00  0.00000000000E+00  0.45593999997E+02  0.45594000000E+02  0.51100000000E-03 0.  1.
         11   -1    0    0    0    0 -0.00000000000E+00 -0.00000000000E+00 -0.45593999997E+02  0.45594000000E+02  0.51100000000E-03 0. -1.
    9900012    2    1    2    0    0 -0.35314843173E+02 -0.47982519795E+01  0.19570509529E+02  0.50528853260E+02  0.29999979970E+02 0.  0.
         12    1    1    2    0    0  0.35314843173E+02  0.47982519795E+01 -0.19570509529E+02  0.40659146740E+02  0.00000000000E+00 0. -1.
         11    1    3    3    0    0 -0.21096817411E+02  0.39109901909E+00  0.27904564805E+01  0.21284156336E+02  0.51100000000E-03 0. -1.
        -11    1    3    3    0    0 -0.98748256450E+01  0.50778826119E+01  0.13785708386E+02  0.17701492290E+02  0.51100000000E-03 0.  1.
        -12    1    3    3    0    0 -0.43432001168E+01 -0.10267233611E+02  0.29943446627E+01  0.11543204634E+02  0.00000000000E+00 0.  1.
</event>
<event>
 7    1  0.5329250E-013  0.5052887E+02  0.7816164E-02  0.1300439E+00
        -11   -1    0    0    0    0  0.00000000000E+00  0.00000000000E+00  0.45593999997E+02  0.45594000000E+02  0.51100000000E-03 0. -1.
         11   -1    0    0    0    0 -0.00000000000E+00 -0.00000000000E+00 -0.45593999997E+02  0.45594000000E+02  0.51100000000E-03 0.  1.
    9900012    2    1    2    0    0  0.32447995785E+02  0.17326587930E+02 -0.17322869635E+02  0.50528869511E+02  0.30000029364E+02 0.  0.
         12    1    1    2    0    0 -0.32447995785E+02 -0.17326587930E+02  0.17322869635E+02  0.40659130489E+02  0.00000000000E+00 0. -1.
         11    1    3    3    0    0  0.12247998000E+02  0.35795126210E+01 -0.28886499150E+01  0.13083220712E+02  0.51100000000E-03 0. -1.
        -11    1    3    3    0    0 -0.21954434255E+01  0.10109160308E+02  0.37449416688E+00  0.10351586358E+02  0.51100000000E-03 0.  1.
         12    1    3    3    0    0  0.22395441210E+02  0.36379150007E+01 -0.14808713887E+02  0.27094062441E+02  0.00000000000E+00 0. -1.
</event>
<event>
 7    1  0.5329250E-013  0.5052889E+02  0.7816164E-02  0.1300439E+00
        -11   -1    0    0    0    0  0.00000000000E+00  0.00000000000E+00  0.45593999997E+02  0.45594000000E+02  0.51100000000E-03 0.  1.
         11   -1    0    0    0    0 -0.00000000000E+00 -0.00000000000E+00 -0.45593999997E+02  0.45594000000E+02  0.51100000000E-03 0. -1.
    9900012    2    1    2    0    0 -0.24116425504E+01 -0.40161334435E+02  0.58663782480E+01  0.50528890355E+02  0.30000092722E+02 0.  0.
         12    1    1    2    0    0  0.24116425504E+01  0.40161334435E+02 -0.58663782480E+01  0.40659109645E+02  0.00000000000E+00 0. -1.
         11    1    3    3    0    0  0.65890629344E+01 -0.10773520338E+02  0.11324855125E+02  0.16962807394E+02  0.51100000000E-03 0. -1.
        -11    1    3    3    0    0 -0.60635271860E+01 -0.19493478099E+02  0.24530155788E+01  0.20561598577E+02  0.51100000000E-03 0.  1.
        -12    1    3    3    0    0 -0.29371782989E+01 -0.98943359983E+01 -0.79114924561E+01  0.13004484384E+02  0.00000000000E+00 0.  1.
</event>
<event>
 7    1  0.5329250E-013  0.5052886E+02  0.7816164E-02  0.1300439E+00
        -11   -1    0    0    0    0  0.00000000000E+00  0.00000000000E+00  0.45593999997E+02  0.45594000000E+02  0.51100000000E-03 0. -1.
         11   -1    0    0    0    0 -0.00000000000E+00 -0.00000000000E+00 -0.45593999997E+02  0.45594000000E+02  0.51100000000E-03 0.  1.
    9900012    2    1    2    0    0  0.12396121465E+02 -0.37577776743E+02 -0.93494521609E+01  0.50528863413E+02  0.30000010831E+02 0.  0.
         12    1    1    2    0    0 -0.12396121465E+02  0.37577776743E+02  0.93494521609E+01  0.40659136587E+02  0.00000000000E+00 0. -1.
         11    1    3    3    0    0  0.72259771104E+01 -0.49163765905E+01 -0.34742344801E+01  0.94050948673E+01  0.51100000000E-03 0. -1.
        -11    1    3    3    0    0 -0.14890099892E-01 -0.13816589582E+02 -0.14260375183E+02  0.19855897612E+02  0.51100000000E-03 0.  1.
         12    1    3    3    0    0  0.51850344540E+01 -0.18844810570E+02  0.83851575017E+01  0.21267870933E+02  0.00000000000E+00 0. -1.
</event>
<event>
 7    1  0.5329250E-013  0.5052887E+02  0.7816164E-02  0.1300439E+00
        -11   -1    0    0    0    0  0.00000000000E+00  0.00000000000E+00  0.45593999997E+02  0.45594000000E+02  0.51100000000E-03 0.  1.
         11   -1    0    0    0    0 -0.00000000000E+00 -0.00000000000E+00 -0.45593999997E+02  0.45594000000E+02  0.51100000000E-03 0. -1.
    9900012    2    1    2    0    0 -0.37633866929E+02 -0.42708788309E+01 -0.14785697264E+02  0.50528865853E+02  0.30000018246E+02 0.  0.
         12    1    1    2    0    0  0.37633866929E+02  0.42708788309E+01  0.14785697264E+02  0.40659134147E+02  0.00000000000E+00 0. -1.
         11    1    3    3    0    0 -0.35392009364E+00  0.50927536353E+01 -0.78384418812E+01  0.93542808600E+01  0.51100000000E-03 0. -1.
        -11    1    3    3    0    0 -0.12514543959E+02  0.11296295910E+01  0.22169814672E+01  0.12759501581E+02  0.51100000000E-03 0.  1.
        -12    1    3    3    0    0 -0.24765402876E+02 -0.10493262057E+02 -0.91642368501E+01  0.28415083411E+02  0.00000000000E+00 0.  1.
</event>
<event>
 7    1  0.5329250E-013  0.5052886E+02  0.7816164E-02  0.1300439E+00
        -11   -1    0    0    0    0  0.00000000000E+00  0.00000000000E+00  0.45593999997E+02  0.45594000000E+02  0.51100000000E-03 0.  1.
         11   -1    0    0    0    0 -0.00000000000E+00 -0.00000000000E+00 -0.45593999997E+02  0.45594000000E+02  0.51100000000E-03 0. -1.
    9900012    2    1    2    0    0  0.12003324365E+02  0.13746717180E+02  0.36333367624E+02  0.50528860413E+02  0.30000001710E+02 0.  0.
         12    1    1    2    0    0 -0.12003324365E+02 -0.13746717180E+02 -0.36333367624E+02  0.40659139587E+02  0.00000000000E+00 0. -1.
         11    1    3    3    0    0  0.12444697581E+02  0.80884904193E+01  0.15706478986E+02  0.21609897213E+02  0.51100000000E-03 0. -1.
        -11    1    3    3    0    0  0.93858548282E+00  0.10134375379E+02  0.21827300931E+02  0.24083553999E+02  0.51100000000E-03 0.  1.
         12    1    3    3    0    0 -0.13799586986E+01 -0.44761486186E+01 -0.12004122927E+01  0.48354092007E+01  0.00000000000E+00 0. -1.
</event>
<event>
 7    1  0.5329250E-013  0.5052886E+02  0.7816164E-02  0.1300439E+00
        -11   -1    0    0    0    0  0.00000000000E+00  0.00000000000E+00  0.45593999997E+02  0.45594000000E+02  0.51100000000E-03 0. -1.
         11   -1    0    0    0    0 -0.00000000000E+00 -0.00000000000E+00 -0.45593999997E+02  0.45594000000E+02  0.51100000000E-03 0.  1.
    9900012    2    1    2    0    0  0.13348155453E+02  0.27774228131E+02 -0.26525177909E+02  0.50528855084E+02  0.29999985512E+02 0.  0.
         12    1    1    2    0    0 -0.13348155453E+02 -0.27774228131E+02  0.26525177909E+02  0.40659144916E+02  0.00000000000E+00 0. -1.
         11    1    3    3    0    0  0.97780202634E+01  0.37310213587E+00 -0.19362830527E+01  0.99748723198E+01  0.51100000000E-03 0. -1.
        -11    1    3    3    0    0  0.49068399109E+01  0.21439599648E+01 -0.11048389586E+00  0.53559172131E+01  0.51100000000E-03 0.  1.
        -12    1    3    3    0    0 -0.13367047212E+01  0.25257166030E+02 -0.24478410960E+02  0.35198065551E+02  0.00000000000E+00 0.  1.
</event>
<event>
 7    1  0.5329250E-013  0.5052886E+02  0.7816164E-02  0.1300439E+00
        -11   -1    0    0    0    0  0.00000000000E+00  0.00000000000E+00  0.45593999997E+02  0.45594000000E+02  0.51100000000E-03 0.  1.
         11   -1    0    0    0    0 -0.00000000000E+00 -0.00000000000E+00 -0.45593999997E+02  0.45594000000E+02  0.51100000000E-03 0. -1.
    9900012    2    1    2    0    0 -0.22805385811E+02  0.43989776323E+01  0.33372578400E+02  0.50528860618E+02  0.30000002336E+02 0.  0.
         12    1    1    2    0    0  0.22805385811E+02 -0.43989776323E+01 -0.33372578400E+02  0.40659139382E+02  0.00000000000E+00 0. -1.
         11    1    3    3    0    0  0.44434002383E+01  0.35444964192E+01  0.13603779865E+02  0.14743476097E+02  0.51100000000E-03 0. -1.
        -11    1    3    3    0    0 -0.13588791477E+02  0.63303947825E+01  0.11589185081E+02  0.18948307655E+02  0.51100000000E-03 0.  1.
        -12    1    3    3    0    0 -0.13659994573E+02 -0.54759135694E+01  0.81796134539E+01  0.16837076866E+02  0.00000000000E+00 0.  1.
</event>
<event>
 7    1  0.5329250E-013  0.5052885E+02  0.7816164E-02  0.1300439E+00
        -11   -1    0    0    0    0  0.00000000000E+00  0.00000000000E+00  0.45593999997E+02  0.45594000000E+02  0.51100000000E-03 0. -1.
         11   -1    0    0    0    0 -0.00000000000E+00 -0.00000000000E+00 -0.45593999997E+02  0.45594000000E+02  0.51100000000E-03 0.  1.
    9900012    2    1    2    0    0  0.10284380024E+02 -0.37200295621E+02 -0.12788117745E+02  0.50528850695E+02  0.29999972173E+02 0.  0.
         12    1    1    2    0    0 -0.10284380024E+02  0.37200295621E+02  0.12788117745E+02  0.40659149305E+02  0.00000000000E+00 0. -1.
         11    1    3    3    0    0 -0.62955676731E+01 -0.13161100163E+02 -0.28798553688E+01  0.14870853944E+02  0.51100000000E-03 0. -1.
        -11    1    3    3    0    0  0.90894913525E+01 -0.25007122114E+02 -0.66103344934E+01  0.27416628747E+02  0.51100000000E-03 0.  1.
         12    1    3    3    0    0  0.74904563444E+01  0.96792665578E+00 -0.32979278832E+01  0.82413680043E+01  0.00000000000E+00 0. -1.
</event>
<event>
 7    1  0.5329250E-013  0.5052894E+02  0.7816164E-02  0.1300439E+00
        -11   -1    0    0    0    0  0.00000000000E+00  0.00000000000E+00  0.45593999997E+02  0.45594000000E+02  0.51100000000E-03 0.  1.
         11   -1    0    0    0    0 -0.00000000000E+00 -0.00000000000E+00 -0.45593999997E+02  0.45594000000E+02  0.51100000000E-03 0. -1.
    9900012    2    1    2    0    0 -0.37631382799E+02  0.10845660997E+02  0.10927479766E+02  0.50528940150E+02  0.30000244079E+02 0.  0.
         12    1    1    2    0    0  0.37631382799E+02 -0.10845660997E+02 -0.10927479766E+02  0.40659059850E+02  0.00000000000E+00 0. -1.
         11    1    3    3    0    0 -0.28667759011E+01  0.11190044365E+02  0.50163381800E+01  0.12593615285E+02  0.51100000000E-03 0.  1.
        -11    1    3    3    0    0 -0.15187560279E+02  0.45423225725E+01 -0.25487641973E+01  0.16055867487E+02  0.51100000000E-03 0. -1.
        -12    1    3    3    0    0 -0.19577046619E+02 -0.48867059407E+01  0.84599057831E+01  0.21879457378E+02  0.00000000000E+00 0.  1.
</event>
<event>
 7    1  0.5329250E-013  0.5052886E+02  0.7816164E-02  0.1300439E+00
        -11   -1    0    0    0    0  0.00000000000E+00  0.00000000000E+00  0.45593999997E+02  0.45594000000E+02  0.51100000000E-03 0.  1.
         11   -1    0    0    0    0 -0.00000000000E+00 -0.00000000000E+00 -0.45593999997E+02  0.45594000000E+02  0.51100000000E-03 0. -1.
    9900012    2    1    2    0    0  0.38682244179E+02  0.43676443698E+01  0.11737694278E+02  0.50528858358E+02  0.29999995466E+02 0.  0.
         12    1    1    2    0    0 -0.38682244179E+02 -0.43676443698E+01 -0.11737694278E+02  0.40659141642E+02  0.00000000000E+00 0. -1.
         11    1    3    3    0    0  0.12911836675E+02  0.65096585307E+01  0.67513680597E+01  0.15958450785E+02  0.51100000000E-03 0.  1.
        -11    1    3    3    0    0  0.24272545403E+02 -0.96923279157E+01  0.59730112449E+01  0.26809970987E+02  0.51100000000E-03 0. -1.
         12    1    3    3    0    0  0.14978621017E+01  0.75503137549E+01 -0.98668502658E+00  0.77604365866E+01  0.00000000000E+00 0. -1.
</event>
<event>
 7    1  0.5329250E-013  0.5052874E+02  0.7816164E-02  0.1300439E+00
        -11   -1    0    0    0    0  0.00000000000E+00  0.00000000000E+00  0.45593999997E+02  0.45594000000E+02  0.51100000000E-03 0. -1.
         11   -1    0    0    0    0 -0.00000000000E+00 -0.00000000000E+00 -0.45593999997E+02  0.45594000000E+02  0.51100000000E-03 0.  1.
    9900012    2    1    2    0    0 -0.92145204103E+01 -0.19042566021E+02 -0.34722448951E+02  0.50528743143E+02  0.29999645255E+02 0.  0.
         12    1    1    2    0    0  0.92145204103E+01  0.19042566021E+02  0.34722448951E+02  0.40659256857E+02  0.00000000000E+00 0. -1.
         11    1    3    3    0    0  0.30270437892E+01 -0.10283893198E+02 -0.26381484901E+02  0.28476379672E+02  0.51100000000E-03 0. -1.
        -11    1    3    3    0    0 -0.55581411916E+01 -0.16092033499E+01 -0.10537786444E+02  0.12021955429E+02  0.51100000000E-03 0.  1.
         12    1    3    3    0    0 -0.66834230079E+01 -0.71494694730E+01  0.21968223947E+01  0.10030408042E+02  0.00000000000E+00 0. -1.
</event>
<event>
 7    1  0.5329250E-013  0.5052887E+02  0.7816164E-02  0.1300439E+00
        -11   -1    0    0    0    0  0.00000000000E+00  0.00000000000E+00  0.45593999997E+02  0.45594000000E+02  0.51100000000E-03 0.  1.
         11   -1    0    0    0    0 -0.00000000000E+00 -0.00000000000E+00 -0.45593999997E+02  0.45594000000E+02  0.51100000000E-03 0. -1.
    9900012    2    1    2    0    0  0.37976058090E+02 -0.13129395714E+02  0.62131010900E+01  0.50528872550E+02  0.30000038602E+02 0.  0.
         12    1    1    2    0    0 -0.37976058090E+02  0.13129395714E+02 -0.62131010900E+01  0.40659127450E+02  0.00000000000E+00 0. -1.
         11    1    3    3    0    0  0.12318063126E+02  0.52409417715E+01  0.28189368687E+01  0.13680224968E+02  0.51100000000E-03 0. -1.
        -11    1    3    3    0    0  0.19920644096E+02 -0.89791338110E+01  0.99815658038E+01  0.24022667657E+02  0.51100000000E-03 0.  1.
        -12    1    3    3    0    0  0.57373508677E+01 -0.93912036741E+01 -0.65874015826E+01  0.12825979925E+02  0.00000000000E+00 0.  1.
</event>
<event>
 7    1  0.5329250E-013  0.5052886E+02  0.7816164E-02  0.1300439E+00
        -11   -1    0    0    0    0  0.00000000000E+00  0.00000000000E+00  0.45593999997E+02  0.45594000000E+02  0.51100000000E-03 0.  1.
         11   -1    0    0    0    0 -0.00000000000E+00 -0.00000000000E+00 -0.45593999997E+02  0.45594000000E+02  0.51100000000E-03 0. -1.
    9900012    2    1    2    0    0 -0.20082185592E+02  0.97057586468E+01  0.33995145360E+02  0.50528857890E+02  0.29999994042E+02 0.  0.
         12    1    1    2    0    0  0.20082185592E+02 -0.97057586468E+01 -0.33995145360E+02  0.40659142110E+02  0.00000000000E+00 0. -1.
         11    1    3    3    0    0  0.61795574968E+01 -0.55867779815E-01  0.37560399426E+01  0.72317278970E+01  0.51100000000E-03 0. -1.
        -11    1    3    3    0    0 -0.85541884025E+01  0.31180669821E+01  0.19565753981E+02  0.21580435816E+02  0.51100000000E-03 0.  1.
        -12    1    3    3    0    0 -0.17707554686E+02  0.66435594445E+01  0.10673351437E+02  0.21716694177E+02  0.00000000000E+00 0.  1.
</event>
<event>
 7    1  0.5329250E-013  0.5052885E+02  0.7816164E-02  0.1300439E+00
        -11   -1    0    0    0    0  0.00000000000E+00  0.00000000000E+00  0.45593999997E+02  0.45594000000E+02  0.51100000000E-03 0.  1.
         11   -1    0    0    0    0 -0.00000000000E+00 -0.00000000000E+00 -0.45593999997E+02  0.45594000000E+02  0.51100000000E-03 0. -1.
    9900012    2    1    2    0    0 -0.36977564209E+02  0.71163506191E+01  0.15335692655E+02  0.50528853794E+02  0.29999981593E+02 0.  0.
         12    1    1    2    0    0  0.36977564209E+02 -0.71163506191E+01 -0.15335692655E+02  0.40659146206E+02  0.00000000000E+00 0. -1.
         11    1    3    3    0    0  0.22236386284E+00 -0.44558485715E+01  0.74497324649E+01  0.86834639539E+01  0.51100000000E-03 0. -1.
        -11    1    3    3    0    0 -0.33680297327E+01  0.54788631743E+01 -0.53264260935E+00  0.64533149910E+01  0.51100000000E-03 0.  1.
        -12    1    3    3    0    0 -0.33831898339E+02  0.60933360163E+01  0.84186027996E+01  0.35392074849E+02  0.00000000000E+00 0.  1.
</event>
<event>
 7    1  0.5329250E-013  0.5052886E+02  0.7816164E-02  0.1300439E+00
        -11   -1    0    0    0    0  0.00000000000E+00  0.00000000000E+00  0.45593999997E+02  0.45594000000E+02  0.51100000000E-03 0. -1.
         11   -1    0    0    0    0 -0.00000000000E+00 -0.00000000000E+00 -0.45593999997E+02  0.45594000000E+02  0.51100000000E-03 0.  1.
    9900012    2    1    2    0    0 -0.38294475081E+01  0.40382219176E+02 -0.27888071240E+01  0.50528859097E+02  0.29999997710E+02 0.  0.
         12    1    1    2    0    0  0.38294475081E+01 -0.40382219176E+02  0.27888071240E+01  0.40659140903E+02  0.00000000000E+00 0. -1.
         11    1    3    3    0    0  0.57727662166E+01 -0.32396121159E+00  0.23715082453E+01  0.62493065436E+01  0.51100000000E-03 0. -1.
        -11    1    3    3    0    0 -0.61677341766E+01  0.45656187936E+01 -0.80309401990E+00  0.77156192304E+01  0.51100000000E-03 0.  1.
         12    1    3    3    0    0 -0.34344795480E+01  0.36140561594E+02 -0.43572213493E+01  0.36563933323E+02  0.00000000000E+00 0. -1.
</event>
<event>
 7    1  0.5329250E-013  0.5052880E+02  0.7816164E-02  0.1300439E+00
        -11   -1    0    0    0    0  0.00000000000E+00  0.00000000000E+00  0.45593999997E+02  0.45594000000E+02  0.51100000000E-03 0.  1.
         11   -1    0    0    0    0 -0.00000000000E+00 -0.00000000000E+00 -0.45593999997E+02  0.45594000000E+02  0.51100000000E-03 0. -1.
    9900012    2    1    2    0    0  0.38430892087E+02  0.12994433355E+02 -0.27168799813E+01  0.50528804218E+02  0.29999830901E+02 0.  0.
         12    1    1    2    0    0 -0.38430892087E+02 -0.12994433355E+02  0.27168799813E+01  0.40659195782E+02  0.00000000000E+00 0. -1.
         11    1    3    3    0    0  0.22048627601E+01 -0.16440104933E+01  0.81469516788E+01  0.85986633968E+01  0.51100000000E-03 0. -1.
        -11    1    3    3    0    0  0.24298471569E+02  0.48522699653E+01 -0.42330928972E+01  0.25137209872E+02  0.51100000000E-03 0.  1.
        -12    1    3    3    0    0  0.11927557758E+02  0.97861738830E+01 -0.66307387629E+01  0.16792930949E+02  0.00000000000E+00 0.  1.
</event>
<event>
 7    1  0.5329250E-013  0.5052886E+02  0.7816164E-02  0.1300439E+00
        -11   -1    0    0    0    0  0.00000000000E+00  0.00000000000E+00  0.45593999997E+02  0.45594000000E+02  0.51100000000E-03 0. -1.
         11   -1    0    0    0    0 -0.00000000000E+00 -0.00000000000E+00 -0.45593999997E+02  0.45594000000E+02  0.51100000000E-03 0.  1.
    9900012    2    1    2    0    0  0.33722492697E+02  0.22289632528E+02  0.43739854739E+01  0.50528856122E+02  0.29999988669E+02 0.  0.
         12    1    1    2    0    0 -0.33722492697E+02 -0.22289632528E+02 -0.43739854739E+01  0.40659143878E+02  0.00000000000E+00 0. -1.
         11    1    3    3    0    0  0.29402772960E+00 -0.46830813684E+00  0.81343868339E+01  0.81531597704E+01  0.51100000000E-03 0. -1.
        -11    1    3    3    0    0  0.51011820056E+01  0.59141456916E+00 -0.38300582227E+01  0.64063386812E+01  0.51100000000E-03 0.  1.
        -12    1    3    3    0    0  0.28327282962E+02  0.22166526096E+02  0.69656862722E-01  0.35969357671E+02  0.00000000000E+00 0.  1.
</event>
<event>
 7    1  0.5329250E-013  0.5052886E+02  0.7816164E-02  0.1300439E+00
        -11   -1    0    0    0    0  0.00000000000E+00  0.00000000000E+00  0.45593999997E+02  0.45594000000E+02  0.51100000000E-03 0. -1.
         11   -1    0    0    0    0 -0.00000000000E+00 -0.00000000000E+00 -0.45593999997E+02  0.45594000000E+02  0.51100000000E-03 0.  1.
    9900012    2    1    2    0    0  0.29149410172E+02 -0.15699347816E+02 -0.23601025076E+02  0.50528855643E+02  0.29999987212E+02 0.  0.
         12    1    1    2    0    0 -0.29149410172E+02  0.15699347816E+02  0.23601025076E+02  0.40659144357E+02  0.00000000000E+00 0. -1.
         11    1    3    3    0    0  0.25365995863E+01 -0.38375008344E+01 -0.13638410490E+02  0.14393296741E+02  0.51100000000E-03 0. -1.
        -11    1    3    3    0    0  0.40348098425E+01 -0.70481159773E+01 -0.10213426741E+02  0.13048743823E+02  0.51100000000E-03 0.  1.
        -12    1    3    3    0    0  0.22578000743E+02 -0.48137310046E+01  0.25081215615E+00  0.23086815079E+02  0.00000000000E+00 0.  1.
</event>
<event>
 7    1  0.5329250E-013  0.5052886E+02  0.7816164E-02  0.1300439E+00
        -11   -1    0    0    0    0  0.00000000000E+00  0.00000000000E+00  0.45593999997E+02  0.45594000000E+02  0.51100000000E-03 0. -1.
         11   -1    0    0    0    0 -0.00000000000E+00 -0.00000000000E+00 -0.45593999997E+02  0.45594000000E+02  0.51100000000E-03 0.  1.
    9900012    2    1    2    0    0  0.34697997965E+02  0.21080968173E+02  0.21926041514E+01  0.50528858410E+02  0.29999995622E+02 0.  0.
         12    1    1    2    0    0 -0.34697997965E+02 -0.21080968173E+02 -0.21926041514E+01  0.40659141590E+02  0.00000000000E+00 0. -1.
         11    1    3    3    0    0  0.16222822449E+02  0.12330553103E+02 -0.81705385758E+01  0.21954047665E+02  0.51100000000E-03 0.  1.
        -11    1    3    3    0    0  0.83373361891E+01  0.12839300960E+02  0.36200455781E+01  0.15730974354E+02  0.51100000000E-03 0. -1.
         12    1    3    3    0    0  0.10137839328E+02 -0.40888858902E+01  0.67430971490E+01  0.12843836390E+02  0.00000000000E+00 0. -1.
</event>
<event>
 7    1  0.5329250E-013  0.5052886E+02  0.7816164E-02  0.1300439E+00
        -11   -1    0    0    0    0  0.00000000000E+00  0.00000000000E+00  0.45593999997E+02  0.45594000000E+02  0.51100000000E-03 0.  1.
         11   -1    0    0    0    0 -0.00000000000E+00 -0.00000000000E+00 -0.45593999997E+02  0.45594000000E+02  0.51100000000E-03 0. -1.
    9900012    2    1    2    0    0 -0.15047381034E+01  0.32531378932E+02  0.24343604238E+02  0.50528856880E+02  0.29999990971E+02 0.  0.
         12    1    1    2    0    0  0.15047381034E+01 -0.32531378932E+02 -0.24343604238E+02  0.40659143120E+02  0.00000000000E+00 0. -1.
         11    1    3    3    0    0 -0.22984984217E+01  0.34340350264E+01 -0.55887211773E+01  0.69505033066E+01  0.51100000000E-03 0. -1.
        -11    1    3    3    0    0  0.50408876115E+00  0.26147923195E+01  0.10225924722E+02  0.10566966501E+02  0.51100000000E-03 0.  1.
         12    1    3    3    0    0  0.28967155708E+00  0.26482551586E+02  0.19706400693E+02  0.33011387072E+02  0.00000000000E+00 0. -1.
</event>
<event>
 7    1  0.5455159E-013  0.5052886E+02  0.7816164E-02  0.1300439E+00
        -11   -1    0    0    0    0  0.00000000000E+00  0.00000000000E+00  0.45593999997E+02  0.45594000000E+02  0.51100000000E-03 0.  1.
         11   -1    0    0    0    0 -0.00000000000E+00 -0.00000000000E+00 -0.45593999997E+02  0.45594000000E+02  0.51100000000E-03 0. -1.
    9900012    2    1    2    0    0  0.15559499757E+02 -0.24770824843E+02  0.28239579431E+02  0.50528860283E+02  0.30000001316E+02 0.  0.
         12    1    1    2    0    0 -0.15559499757E+02  0.24770824843E+02 -0.28239579431E+02  0.40659139717E+02  0.00000000000E+00 0. -1.
         11    1    3    3    0    0  0.47254535527E+00  0.25629969992E+01 -0.10989235098E+01  0.28284069495E+01  0.51100000000E-03 0. -1.
        -11    1    3    3    0    0  0.14930575689E+02 -0.68310053576E+01  0.85895666695E+01  0.18530120896E+02  0.51100000000E-03 0.  1.
        -12    1    3    3    0    0  0.15637871271E+00 -0.20502816485E+02  0.20748936271E+02  0.29170332437E+02  0.00000000000E+00 0.  1.
</event>
<event>
 7    1  0.5329250E-013  0.5052887E+02  0.7816164E-02  0.1300439E+00
        -11   -1    0    0    0    0  0.00000000000E+00  0.00000000000E+00  0.45593999997E+02  0.45594000000E+02  0.51100000000E-03 0.  1.
         11   -1    0    0    0    0 -0.00000000000E+00 -0.00000000000E+00 -0.45593999997E+02  0.45594000000E+02  0.51100000000E-03 0. -1.
    9900012    2    1    2    0    0 -0.40045765706E+02 -0.68253336179E+01 -0.17077968653E+01  0.50528866953E+02  0.30000021591E+02 0.  0.
         12    1    1    2    0    0  0.40045765706E+02  0.68253336179E+01  0.17077968653E+01  0.40659133047E+02  0.00000000000E+00 0. -1.
         11    1    3    3    0    0 -0.46177459458E+01  0.15862941630E+01  0.11372166548E+01  0.50132991904E+01  0.51100000000E-03 0. -1.
        -11    1    3    3    0    0 -0.36581439192E+02 -0.17064251580E+01 -0.73554497127E+01  0.37352593229E+02  0.51100000000E-03 0.  1.
         12    1    3    3    0    0  0.11534194318E+01 -0.67052026228E+01  0.45104361926E+01  0.81629745342E+01  0.00000000000E+00 0. -1.
</event>
<event>
 7    1  0.5329250E-013  0.5052889E+02  0.7816164E-02  0.1300439E+00
        -11   -1    0    0    0    0  0.00000000000E+00  0.00000000000E+00  0.45593999997E+02  0.45594000000E+02  0.51100000000E-03 0. -1.
         11   -1    0    0    0    0 -0.00000000000E+00 -0.00000000000E+00 -0.45593999997E+02  0.45594000000E+02  0.51100000000E-03 0.  1.
    9900012    2    1    2    0    0 -0.38145821538E+02 -0.11228621092E+02 -0.84839769201E+01  0.50528886670E+02  0.30000081522E+02 0.  0.
         12    1    1    2    0    0  0.38145821538E+02  0.11228621092E+02  0.84839769201E+01  0.40659113330E+02  0.00000000000E+00 0. -1.
         11    1    3    3    0    0 -0.18002649170E+02 -0.13657458366E+01 -0.40001684059E+01  0.18492214209E+02  0.51100000000E-03 0. -1.
        -11    1    3    3    0    0 -0.10535291553E+02  0.15197987065E+01 -0.11414703995E+02  0.15607614288E+02  0.51100000000E-03 0.  1.
         12    1    3    3    0    0 -0.96078808145E+01 -0.11382673962E+02  0.69308954807E+01  0.16429058172E+02  0.00000000000E+00 0. -1.
</event>
<event>
 7    1  0.5329250E-013  0.5052888E+02  0.7816164E-02  0.1300439E+00
        -11   -1    0    0    0    0  0.00000000000E+00  0.00000000000E+00  0.45593999997E+02  0.45594000000E+02  0.51100000000E-03 0.  1.
         11   -1    0    0    0    0 -0.00000000000E+00 -0.00000000000E+00 -0.45593999997E+02  0.45594000000E+02  0.51100000000E-03 0. -1.
    9900012    2    1    2    0    0  0.36570470683E+02 -0.72276369116E+01  0.16233495618E+02  0.50528875055E+02  0.30000046218E+02 0.  0.
         12    1    1    2    0    0 -0.36570470683E+02  0.72276369116E+01 -0.16233495618E+02  0.40659124945E+02  0.00000000000E+00 0. -1.
         11    1    3    3    0    0  0.10404416791E+01 -0.67649844909E+00 -0.41193231580E+01  0.43022078727E+01  0.51100000000E-03 0. -1.
        -11    1    3    3    0    0  0.91250925509E+01  0.34637031268E+01  0.14351022238E+02  0.17355586793E+02  0.51100000000E-03 0.  1.
         12    1    3    3    0    0  0.26404936453E+02 -0.10014841589E+02  0.60017965380E+01  0.28871080389E+02  0.00000000000E+00 0. -1.
</event>
<event>
 7    1  0.5329250E-013  0.5052886E+02  0.7816164E-02  0.1300439E+00
        -11   -1    0    0    0    0  0.00000000000E+00  0.00000000000E+00  0.45593999997E+02  0.45594000000E+02  0.51100000000E-03 0.  1.
         11   -1    0    0    0    0 -0.00000000000E+00 -0.00000000000E+00 -0.45593999997E+02  0.45594000000E+02  0.51100000000E-03 0. -1.
    9900012    2    1    2    0    0  0.33159297729E+02 -0.65267940615E+01  0.22605923189E+02  0.50528857979E+02  0.29999994314E+02 0.  0.
         12    1    1    2    0    0 -0.33159297729E+02  0.65267940615E+01 -0.22605923189E+02  0.40659142021E+02  0.00000000000E+00 0. -1.
         11    1    3    3    0    0 -0.20197391572E+01  0.73928285872E+00 -0.41320443370E+00  0.21901195340E+01  0.51100000000E-03 0. -1.
        -11    1    3    3    0    0  0.36130132563E+02 -0.12195876667E+01  0.21389902713E+02  0.42004783197E+02  0.51100000000E-03 0.  1.
         12    1    3    3    0    0 -0.95109567670E+00 -0.60464892536E+01  0.16292249097E+01  0.63339552482E+01  0.00000000000E+00 0. -1.
</event>
<event>
 7    1  0.5329250E-013  0.5052886E+02  0.7816164E-02  0.1300439E+00
        -11   -1    0    0    0    0  0.00000000000E+00  0.00000000000E+00  0.45593999997E+02  0.45594000000E+02  0.51100000000E-03 0.  1.
         11   -1    0    0    0    0 -0.00000000000E+00 -0.00000000000E+00 -0.45593999997E+02  0.45594000000E+02  0.51100000000E-03 0. -1.
    9900012    2    1    2    0    0  0.13850058748E+02  0.88151695988E+01  0.37197240634E+02  0.50528855233E+02  0.29999985967E+02 0.  0.
         12    1    1    2    0    0 -0.13850058748E+02 -0.88151695988E+01 -0.37197240634E+02  0.40659144767E+02  0.00000000000E+00 0. -1.
         11    1    3    3    0    0  0.59428663316E+01  0.67986819246E+01  0.10778753131E+02  0.14061339035E+02  0.51100000000E-03 0. -1.
        -11    1    3    3    0    0  0.54278361866E+01  0.21537021499E+01  0.30844560752E+02  0.31392463536E+02  0.51100000000E-03 0.  1.
         12    1    3    3    0    0  0.24793562297E+01 -0.13721447568E+00 -0.44260732483E+01  0.50750526623E+01  0.00000000000E+00 0. -1.
</event>
<event>
 7    1  0.5329250E-013  0.5052886E+02  0.7816164E-02  0.1300439E+00
        -11   -1    0    0    0    0  0.00000000000E+00  0.00000000000E+00  0.45593999997E+02  0.45594000000E+02  0.51100000000E-03 0.  1.
         11   -1    0    0    0    0 -0.00000000000E+00 -0.00000000000E+00 -0.45593999997E+02  0.45594000000E+02  0.51100000000E-03 0. -1.
    9900012    2    1    2    0    0  0.17224041950E+01  0.38713796297E+02 -0.12306123602E+02  0.50528863535E+02  0.30000011201E+02 0.  0.
         12    1    1    2    0    0 -0.17224041950E+01 -0.38713796297E+02  0.12306123602E+02  0.40659136465E+02  0.00000000000E+00 0. -1.
         11    1    3    3    0    0  0.44892122022E+01  0.15741051801E+00 -0.52020070128E+00  0.45219921824E+01  0.51100000000E-03 0.  1.
        -11    1    3    3    0    0  0.53966605932E+01  0.27576828124E+02 -0.15141210814E+02  0.31919612468E+02  0.51100000000E-03 0. -1.
        -12    1    3    3    0    0 -0.81634686003E+01  0.10979557655E+02  0.33552879130E+01  0.14087258884E+02  0.00000000000E+00 0.  1.
</event>
<event>
 7    1  0.5329250E-013  0.5052885E+02  0.7816164E-02  0.1300439E+00
        -11   -1    0    0    0    0  0.00000000000E+00  0.00000000000E+00  0.45593999997E+02  0.45594000000E+02  0.51100000000E-03 0.  1.
         11   -1    0    0    0    0 -0.00000000000E+00 -0.00000000000E+00 -0.45593999997E+02  0.45594000000E+02  0.51100000000E-03 0. -1.
    9900012    2    1    2    0    0 -0.33393973031E+02  0.22728268454E+02  0.46297554916E+01  0.50528852719E+02  0.29999978326E+02 0.  0.
         12    1    1    2    0    0  0.33393973031E+02 -0.22728268454E+02 -0.46297554916E+01  0.40659147281E+02  0.00000000000E+00 0. -1.
         11    1    3    3    0    0 -0.23783960912E+01  0.12035147157E+02  0.86473173626E+00  0.12298345266E+02  0.51100000000E-03 0.  1.
        -11    1    3    3    0    0 -0.17127590016E+02 -0.27725306978E+01 -0.32524067709E+01  0.17652745290E+02  0.51100000000E-03 0. -1.
         12    1    3    3    0    0 -0.13887986924E+02  0.13465651994E+02  0.70174305262E+01  0.20577762163E+02  0.00000000000E+00 0. -1.
</event>
<event>
 7    1  0.5329250E-013  0.5052886E+02  0.7816164E-02  0.1300439E+00
        -11   -1    0    0    0    0  0.00000000000E+00  0.00000000000E+00  0.45593999997E+02  0.45594000000E+02  0.51100000000E-03 0.  1.
         11   -1    0    0    0    0 -0.00000000000E+00 -0.00000000000E+00 -0.45593999997E+02  0.45594000000E+02  0.51100000000E-03 0. -1.
    9900012    2    1    2    0    0  0.48080907583E+01 -0.17364381014E+02  0.36448951737E+02  0.50528861452E+02  0.30000004869E+02 0.  0.
         12    1    1    2    0    0 -0.48080907583E+01  0.17364381014E+02 -0.36448951737E+02  0.40659138548E+02  0.00000000000E+00 0. -1.
         11    1    3    3    0    0 -0.71098111440E+01 -0.85599243066E+01  0.17949232749E+02  0.21118633364E+02  0.51100000000E-03 0. -1.
        -11    1    3    3    0    0  0.22916271563E+01 -0.12360876379E+02  0.10924352638E+02  0.16654858171E+02  0.51100000000E-03 0.  1.
         12    1    3    3    0    0  0.96262747460E+01  0.35564196720E+01  0.75753663502E+01  0.12755369917E+02  0.00000000000E+00 0. -1.
</event>
<event>
 7    1  0.5329250E-013  0.5052886E+02  0.7816164E-02  0.1300439E+00
        -11   -1    0    0    0    0  0.00000000000E+00  0.00000000000E+00  0.45593999997E+02  0.45594000000E+02  0.51100000000E-03 0.  1.
         11   -1    0    0    0    0 -0.00000000000E+00 -0.00000000000E+00 -0.45593999997E+02  0.45594000000E+02  0.51100000000E-03 0. -1.
    9900012    2    1    2    0    0 -0.14769754967E+02 -0.35638870994E+02  0.12840969225E+02  0.50528864764E+02  0.30000014936E+02 0.  0.
         12    1    1    2    0    0  0.14769754967E+02  0.35638870994E+02 -0.12840969225E+02  0.40659135236E+02  0.00000000000E+00 0. -1.
         11    1    3    3    0    0  0.26764891650E+01 -0.10426643855E+01 -0.52870100197E+01  0.60169110414E+01  0.51100000000E-03 0. -1.
        -11    1    3    3    0    0 -0.98884157288E+01 -0.13870454709E+02  0.14042048679E+02  0.22075991729E+02  0.51100000000E-03 0.  1.
        -12    1    3    3    0    0 -0.75578284026E+01 -0.20725751899E+02  0.40859305654E+01  0.22435961993E+02  0.00000000000E+00 0.  1.
</event>
<event>
 7    1  0.5329250E-013  0.5052887E+02  0.7816164E-02  0.1300439E+00
        -11   -1    0    0    0    0  0.00000000000E+00  0.00000000000E+00  0.45593999997E+02  0.45594000000E+02  0.51100000000E-03 0.  1.
         11   -1    0    0    0    0 -0.00000000000E+00 -0.00000000000E+00 -0.45593999997E+02  0.45594000000E+02  0.51100000000E-03 0. -1.
    9900012    2    1    2    0    0 -0.14685559942E+01  0.16633508119E+02  0.37072022292E+02  0.50528867128E+02  0.30000022123E+02 0.  0.
         12    1    1    2    0    0  0.14685559942E+01 -0.16633508119E+02 -0.37072022292E+02  0.40659132872E+02  0.00000000000E+00 0. -1.
         11    1    3    3    0    0 -0.88461180148E+00  0.12161548663E+02  0.18197679544E+02  0.21905281211E+02  0.51100000000E-03 0.  1.
        -11    1    3    3    0    0  0.77633110756E+01  0.27566867114E+01  0.18316254380E+02  0.20083662396E+02  0.51100000000E-03 0. -1.
         12    1    3    3    0    0 -0.83472552683E+01  0.17152727453E+01  0.55808836833E+00  0.85399235202E+01  0.00000000000E+00 0. -1.
</event>
<event>
 7    1  0.5329250E-013  0.5052886E+02  0.7816164E-02  0.1300439E+00
        -11   -1    0    0    0    0  0.00000000000E+00  0.00000000000E+00  0.45593999997E+02  0.45594000000E+02  0.51100000000E-03 0.  1.
         11   -1    0    0    0    0 -0.00000000000E+00 -0.00000000000E+00 -0.45593999997E+02  0.45594000000E+02  0.51100000000E-03 0. -1.
    9900012    2    1    2    0    0  0.17009557696E+02  0.36587016840E+02  0.50230137250E+01  0.50528861776E+02  0.30000005853E+02 0.  0.
         12    1    1    2    0    0 -0.17009557696E+02 -0.36587016840E+02 -0.50230137250E+01  0.40659138224E+02  0.00000000000E+00 0. -1.
         11    1    3    3    0    0 -0.39952647773E+01  0.11532303523E+02  0.11286813288E+01  0.12256838377E+02  0.51100000000E-03 0. -1.
        -11    1    3    3    0    0  0.55771590030E+01  0.14722441863E+02  0.10088129813E+02  0.18698271587E+02  0.51100000000E-03 0.  1.
         12    1    3    3    0    0  0.15427663470E+02  0.10332271454E+02 -0.61937974168E+01  0.19573751812E+02  0.00000000000E+00 0. -1.
</event>
<event>
 7    1  0.5329250E-013  0.5052892E+02  0.7816164E-02  0.1300439E+00
        -11   -1    0    0    0    0  0.00000000000E+00  0.00000000000E+00  0.45593999997E+02  0.45594000000E+02  0.51100000000E-03 0.  1.
         11   -1    0    0    0    0 -0.00000000000E+00 -0.00000000000E+00 -0.45593999997E+02  0.45594000000E+02  0.51100000000E-03 0. -1.
    9900012    2    1    2    0    0  0.27715298442E+02  0.12684880017E+02  0.26909424304E+02  0.50528916572E+02  0.30000172413E+02 0.  0.
         12    1    1    2    0    0 -0.27715298442E+02 -0.12684880017E+02 -0.26909424304E+02  0.40659083428E+02  0.00000000000E+00 0. -1.
         11    1    3    3    0    0  0.12481797498E+01  0.51993734320E+01 -0.29736482418E+01  0.61183348143E+01  0.51100000000E-03 0. -1.
        -11    1    3    3    0    0  0.19625904569E+02  0.13404762577E+02  0.22599451081E+02  0.32796325699E+02  0.51100000000E-03 0.  1.
        -12    1    3    3    0    0  0.68412141235E+01 -0.59192559917E+01  0.72836214647E+01  0.11614256060E+02  0.00000000000E+00 0.  1.
</event>
<event>
 7    1  0.5329250E-013  0.5052885E+02  0.7816164E-02  0.1300439E+00
        -11   -1    0    0    0    0  0.00000000000E+00  0.00000000000E+00  0.45593999997E+02  0.45594000000E+02  0.51100000000E-03 0.  1.
         11   -1    0    0    0    0 -0.00000000000E+00 -0.00000000000E+00 -0.45593999997E+02  0.45594000000E+02  0.51100000000E-03 0. -1.
    9900012    2    1    2    0    0 -0.30851290725E+02  0.24509547071E+02  0.10032284851E+02  0.50528846340E+02  0.29999958934E+02 0.  0.
         12    1    1    2    0    0  0.30851290725E+02 -0.24509547071E+02 -0.10032284851E+02  0.40659153660E+02  0.00000000000E+00 0. -1.
         11    1    3    3    0    0 -0.53258294724E+00 -0.20775235061E+01  0.25541222114E+00  0.21598574439E+01  0.51100000000E-03 0. -1.
        -11    1    3    3    0    0 -0.31793072511E+01  0.12635904988E+02 -0.56191662748E+01  0.14189754027E+02  0.51100000000E-03 0.  1.
        -12    1    3    3    0    0 -0.27139400527E+02  0.13951165589E+02  0.15396038905E+02  0.34179234869E+02  0.00000000000E+00 0.  1.
</event>
<event>
 7    1  0.5329250E-013  0.5052886E+02  0.7816164E-02  0.1300439E+00
        -11   -1    0    0    0    0  0.00000000000E+00  0.00000000000E+00  0.45593999997E+02  0.45594000000E+02  0.51100000000E-03 0.  1.
         11   -1    0    0    0    0 -0.00000000000E+00 -0.00000000000E+00 -0.45593999997E+02  0.45594000000E+02  0.51100000000E-03 0. -1.
    9900012    2    1    2    0    0 -0.91812794595E+00 -0.39371623689E+02  0.10109280925E+02  0.50528864844E+02  0.30000015180E+02 0.  0.
         12    1    1    2    0    0  0.91812794595E+00  0.39371623689E+02 -0.10109280925E+02  0.40659135156E+02  0.00000000000E+00 0. -1.
         11    1    3    3    0    0  0.51318118018E+01 -0.20196774042E+02  0.99402019425E+01  0.23087936006E+02  0.51100000000E-03 0. -1.
        -11    1    3    3    0    0  0.11395352432E+01  0.35426739964E+00  0.57682467348E+01  0.58903918899E+01  0.51100000000E-03 0.  1.
         12    1    3    3    0    0 -0.71894749909E+01 -0.19529117046E+02 -0.55991677523E+01  0.21550536949E+02  0.00000000000E+00 0. -1.
</event>
<event>
 7    1  0.5329250E-013  0.5052886E+02  0.7816164E-02  0.1300439E+00
        -11   -1    0    0    0    0  0.00000000000E+00  0.00000000000E+00  0.45593999997E+02  0.45594000000E+02  0.51100000000E-03 0.  1.
         11   -1    0    0    0    0 -0.00000000000E+00 -0.00000000000E+00 -0.45593999997E+02  0.45594000000E+02  0.51100000000E-03 0. -1.
    9900012    2    1    2    0    0  0.23455423525E+02 -0.99134662396E+01  0.31697503827E+02  0.50528862595E+02  0.30000008345E+02 0.  0.
         12    1    1    2    0    0 -0.23455423525E+02  0.99134662396E+01 -0.31697503827E+02  0.40659137405E+02  0.00000000000E+00 0. -1.
         11    1    3    3    0    0  0.18161236583E+01 -0.88011894028E+01 -0.21404754361E+01  0.92380125243E+01  0.51100000000E-03 0. -1.
        -11    1    3    3    0    0  0.41537173895E+01 -0.10270215002E+01  0.15109202376E+01  0.45377330837E+01  0.51100000000E-03 0.  1.
        -12    1    3    3    0    0  0.17485582477E+02 -0.85255336606E-01  0.32327059026E+02  0.36753116987E+02  0.00000000000E+00 0.  1.
</event>
<event>
 7    1  0.5329250E-013  0.5052885E+02  0.7816164E-02  0.1300439E+00
        -11   -1    0    0    0    0  0.00000000000E+00  0.00000000000E+00  0.45593999997E+02  0.45594000000E+02  0.51100000000E-03 0.  1.
         11   -1    0    0    0    0 -0.00000000000E+00 -0.00000000000E+00 -0.45593999997E+02  0.45594000000E+02  0.51100000000E-03 0. -1.
    9900012    2    1    2    0    0 -0.89414989359E+01 -0.38155342643E+01  0.39479838934E+02  0.50528851126E+02  0.29999973482E+02 0.  0.
         12    1    1    2    0    0  0.89414989359E+01  0.38155342643E+01 -0.39479838934E+02  0.40659148874E+02  0.00000000000E+00 0. -1.
         11    1    3    3    0    0  0.92117120316E+00  0.74087556650E+01  0.11920930401E+02  0.14065802458E+02  0.51100000000E-03 0.  1.
        -11    1    3    3    0    0 -0.12841891512E+02 -0.17199067435E+01  0.10364390394E+02  0.16591951221E+02  0.51100000000E-03 0. -1.
         12    1    3    3    0    0  0.29792213734E+01 -0.95043831859E+01  0.17194518138E+02  0.19871097447E+02  0.00000000000E+00 0. -1.
</event>
<event>
 7    1  0.5329250E-013  0.5052887E+02  0.7816164E-02  0.1300439E+00
        -11   -1    0    0    0    0  0.00000000000E+00  0.00000000000E+00  0.45593999997E+02  0.45594000000E+02  0.51100000000E-03 0.  1.
         11   -1    0    0    0    0 -0.00000000000E+00 -0.00000000000E+00 -0.45593999997E+02  0.45594000000E+02  0.51100000000E-03 0. -1.
    9900012    2    1    2    0    0  0.26996225090E+01  0.20580310646E+02  0.34961805745E+02  0.50528868074E+02  0.30000024999E+02 0.  0.
         12    1    1    2    0    0 -0.26996225090E+01 -0.20580310646E+02 -0.34961805745E+02  0.40659131926E+02  0.00000000000E+00 0. -1.
         11    1    3    3    0    0  0.37805099635E+01  0.10295227346E+02  0.19851295202E+01  0.11145613539E+02  0.51100000000E-03 0. -1.
        -11    1    3    3    0    0  0.12823980925E+01  0.40076604585E+01 -0.13408908155E+01  0.44163192433E+01  0.51100000000E-03 0.  1.
         12    1    3    3    0    0 -0.23632855470E+01  0.62774228413E+01  0.34317567041E+02  0.34966935292E+02  0.00000000000E+00 0. -1.
</event>
<event>
 7    1  0.5329250E-013  0.5052886E+02  0.7816164E-02  0.1300439E+00
        -11   -1    0    0    0    0  0.00000000000E+00  0.00000000000E+00  0.45593999997E+02  0.45594000000E+02  0.51100000000E-03 0. -1.
         11   -1    0    0    0    0 -0.00000000000E+00 -0.00000000000E+00 -0.45593999997E+02  0.45594000000E+02  0.51100000000E-03 0.  1.
    9900012    2    1    2    0    0 -0.33595854164E+02  0.19253846632E+02  0.12400551975E+02  0.50528859375E+02  0.29999998555E+02 0.  0.
         12    1    1    2    0    0  0.33595854164E+02 -0.19253846632E+02 -0.12400551975E+02  0.40659140625E+02  0.00000000000E+00 0. -1.
         11    1    3    3    0    0 -0.44152773495E+01  0.80481272038E+00 -0.27230042383E+01  0.52494904449E+01  0.51100000000E-03 0. -1.
        -11    1    3    3    0    0 -0.10824507433E+02  0.60067979938E+01 -0.67762954798E+01  0.14112751822E+02  0.51100000000E-03 0.  1.
         12    1    3    3    0    0 -0.18356069382E+02  0.12442235918E+02  0.21899851693E+02  0.31166617108E+02  0.00000000000E+00 0. -1.
</event>
<event>
 7    1  0.5329250E-013  0.5052885E+02  0.7816164E-02  0.1300439E+00
        -11   -1    0    0    0    0  0.00000000000E+00  0.00000000000E+00  0.45593999997E+02  0.45594000000E+02  0.51100000000E-03 0.  1.
         11   -1    0    0    0    0 -0.00000000000E+00 -0.00000000000E+00 -0.45593999997E+02  0.45594000000E+02  0.51100000000E-03 0. -1.
    9900012    2    1    2    0    0 -0.17769077248E+02 -0.19490571865E+02  0.30944205463E+02  0.50528851588E+02  0.29999974886E+02 0.  0.
         12    1    1    2    0    0  0.17769077248E+02  0.19490571865E+02 -0.30944205463E+02  0.40659148412E+02  0.00000000000E+00 0. -1.
         11    1    3    3    0    0 -0.13468212652E+02 -0.75887356847E+01  0.10684248830E+02  0.18791882148E+02  0.51100000000E-03 0.  1.
        -11    1    3    3    0    0 -0.89479101906E+01 -0.10638787190E+02  0.22482531223E+02  0.26433181801E+02  0.51100000000E-03 0. -1.
         12    1    3    3    0    0  0.46470455946E+01 -0.12630489908E+01 -0.22225745905E+01  0.53037876392E+01  0.00000000000E+00 0. -1.
</event>
<event>
 7    1  0.5329250E-013  0.5052887E+02  0.7816164E-02  0.1300439E+00
        -11   -1    0    0    0    0  0.00000000000E+00  0.00000000000E+00  0.45593999997E+02  0.45594000000E+02  0.51100000000E-03 0.  1.
         11   -1    0    0    0    0 -0.00000000000E+00 -0.00000000000E+00 -0.45593999997E+02  0.45594000000E+02  0.51100000000E-03 0. -1.
    9900012    2    1    2    0    0 -0.37282090571E+02 -0.10535023981E+02  0.12337900344E+02  0.50528870735E+02  0.30000033087E+02 0.  0.
         12    1    1    2    0    0  0.37282090571E+02  0.10535023981E+02 -0.12337900344E+02  0.40659129265E+02  0.00000000000E+00 0. -1.
         11    1    3    3    0    0 -0.10756761604E+02 -0.88543085604E+01 -0.39148305924E+01  0.14471786314E+02  0.51100000000E-03 0. -1.
        -11    1    3    3    0    0 -0.16838835645E+02  0.24477534841E+00 -0.22988852643E+00  0.16842183642E+02  0.51100000000E-03 0.  1.
         12    1    3    3    0    0 -0.96864933228E+01 -0.19254907694E+01  0.16482619463E+02  0.19214900779E+02  0.00000000000E+00 0. -1.
</event>
<event>
 7    1  0.5329250E-013  0.5052886E+02  0.7816164E-02  0.1300439E+00
        -11   -1    0    0    0    0  0.00000000000E+00  0.00000000000E+00  0.45593999997E+02  0.45594000000E+02  0.51100000000E-03 0.  1.
         11   -1    0    0    0    0 -0.00000000000E+00 -0.00000000000E+00 -0.45593999997E+02  0.45594000000E+02  0.51100000000E-03 0. -1.
    9900012    2    1    2    0    0 -0.39988798213E+02 -0.57406398426E+01  0.45942096864E+01  0.50528859687E+02  0.29999999505E+02 0.  0.
         12    1    1    2    0    0  0.39988798213E+02  0.57406398426E+01 -0.45942096864E+01  0.40659140313E+02  0.00000000000E+00 0. -1.
         11    1    3    3    0    0 -0.44137091210E+01 -0.74302120548E+01  0.39185121823E+00  0.86511517743E+01  0.51100000000E-03 0. -1.
        -11    1    3    3    0    0 -0.34038570194E+02 -0.53538136523E+01  0.35302011376E+01  0.34637406107E+02  0.51100000000E-03 0.  1.
        -12    1    3    3    0    0 -0.15365188978E+01  0.70433858645E+01  0.67215733051E+00  0.72403018056E+01  0.00000000000E+00 0.  1.
</event>
<event>
 7    1  0.5329250E-013  0.5052885E+02  0.7816164E-02  0.1300439E+00
        -11   -1    0    0    0    0  0.00000000000E+00  0.00000000000E+00  0.45593999997E+02  0.45594000000E+02  0.51100000000E-03 0.  1.
         11   -1    0    0    0    0 -0.00000000000E+00 -0.00000000000E+00 -0.45593999997E+02  0.45594000000E+02  0.51100000000E-03 0. -1.
    9900012    2    1    2    0    0 -0.27698768026E+02 -0.15685468461E+02  0.25296455494E+02  0.50528851810E+02  0.29999975562E+02 0.  0.
         12    1    1    2    0    0  0.27698768026E+02  0.15685468461E+02 -0.25296455494E+02  0.40659148190E+02  0.00000000000E+00 0. -1.
         11    1    3    3    0    0 -0.14247501039E+02  0.22897669906E+01  0.17696822674E+02  0.22834444416E+02  0.51100000000E-03 0. -1.
        -11    1    3    3    0    0 -0.43490557196E+01 -0.10386306776E+01 -0.33322212290E+01  0.55764449174E+01  0.51100000000E-03 0.  1.
        -12    1    3    3    0    0 -0.91022112666E+01 -0.16936604774E+02  0.10931854049E+02  0.22117962477E+02  0.00000000000E+00 0.  1.
</event>
<event>
 7    1  0.5329250E-013  0.5052886E+02  0.7816164E-02  0.1300439E+00
        -11   -1    0    0    0    0  0.00000000000E+00  0.00000000000E+00  0.45593999997E+02  0.45594000000E+02  0.51100000000E-03 0. -1.
         11   -1    0    0    0    0 -0.00000000000E+00 -0.00000000000E+00 -0.45593999997E+02  0.45594000000E+02  0.51100000000E-03 0.  1.
    9900012    2    1    2    0    0 -0.23120654215E+02  0.29511966550E+02 -0.15736728246E+02  0.50528862812E+02  0.30000009004E+02 0.  0.
         12    1    1    2    0    0  0.23120654215E+02 -0.29511966550E+02  0.15736728246E+02  0.40659137188E+02  0.00000000000E+00 0. -1.
         11    1    3    3    0    0  0.17425480774E+01 -0.16776985764E+01  0.17009844459E+00  0.24248876380E+01  0.51100000000E-03 0. -1.
        -11    1    3    3    0    0 -0.14220881909E+02  0.20408157710E+01 -0.49376356887E+01  0.15191400782E+02  0.51100000000E-03 0.  1.
        -12    1    3    3    0    0 -0.10642320384E+02  0.29148849355E+02 -0.10969191002E+02  0.32912574392E+02  0.00000000000E+00 0.  1.
</event>
<event>
 7    1  0.5329250E-013  0.5052883E+02  0.7816164E-02  0.1300439E+00
        -11   -1    0    0    0    0  0.00000000000E+00  0.00000000000E+00  0.45593999997E+02  0.45594000000E+02  0.51100000000E-03 0. -1.
         11   -1    0    0    0    0 -0.00000000000E+00 -0.00000000000E+00 -0.45593999997E+02  0.45594000000E+02  0.51100000000E-03 0.  1.
    9900012    2    1    2    0    0  0.79401372242E+01 -0.35074632597E+02 -0.18970835732E+02  0.50528828349E+02  0.29999904249E+02 0.  0.
         12    1    1    2    0    0 -0.79401372242E+01  0.35074632597E+02  0.18970835732E+02  0.40659171651E+02  0.00000000000E+00 0. -1.
         11    1    3    3    0    0  0.75070182211E+01 -0.45016884016E+01 -0.83241814592E+01  0.12079425411E+02  0.51100000000E-03 0. -1.
        -11    1    3    3    0    0  0.56346026505E+01 -0.31034183604E+02 -0.10436315586E+02  0.33223274707E+02  0.51100000000E-03 0.  1.
         12    1    3    3    0    0 -0.52014836474E+01  0.46123940790E+00 -0.21033868728E+00  0.52261282312E+01  0.00000000000E+00 0. -1.
</event>
<event>
 7    1  0.5329250E-013  0.5052886E+02  0.7816164E-02  0.1300439E+00
        -11   -1    0    0    0    0  0.00000000000E+00  0.00000000000E+00  0.45593999997E+02  0.45594000000E+02  0.51100000000E-03 0.  1.
         11   -1    0    0    0    0 -0.00000000000E+00 -0.00000000000E+00 -0.45593999997E+02  0.45594000000E+02  0.51100000000E-03 0. -1.
    9900012    2    1    2    0    0 -0.20274216791E+02  0.49360347300E+01  0.34896382688E+02  0.50528857977E+02  0.29999994308E+02 0.  0.
         12    1    1    2    0    0  0.20274216791E+02 -0.49360347300E+01 -0.34896382688E+02  0.40659142023E+02  0.00000000000E+00 0. -1.
         11    1    3    3    0    0 -0.94064094818E+01  0.88289609729E+01  0.41030649730E+01  0.13537585960E+02  0.51100000000E-03 0. -1.
        -11    1    3    3    0    0 -0.24998559209E+00  0.58340307968E+01  0.11704660220E+02  0.13080423512E+02  0.51100000000E-03 0.  1.
        -12    1    3    3    0    0 -0.10617821717E+02 -0.97269570397E+01  0.19088657495E+02  0.23910848505E+02  0.00000000000E+00 0.  1.
</event>
<event>
 7    1  0.5329250E-013  0.5052887E+02  0.7816164E-02  0.1300439E+00
        -11   -1    0    0    0    0  0.00000000000E+00  0.00000000000E+00  0.45593999997E+02  0.45594000000E+02  0.51100000000E-03 0. -1.
         11   -1    0    0    0    0 -0.00000000000E+00 -0.00000000000E+00 -0.45593999997E+02  0.45594000000E+02  0.51100000000E-03 0.  1.
    9900012    2    1    2    0    0  0.21886143958E+02  0.32640925908E+02 -0.10427431447E+02  0.50528872266E+02  0.30000037741E+02 0.  0.
         12    1    1    2    0    0 -0.21886143958E+02 -0.32640925908E+02  0.10427431447E+02  0.40659127734E+02  0.00000000000E+00 0. -1.
         11    1    3    3    0    0  0.50603253813E+00  0.12162698355E+02  0.48902129753E+01  0.13118745497E+02  0.51100000000E-03 0. -1.
        -11    1    3    3    0    0  0.11047732973E+02  0.33159968577E+01  0.99291064451E+00  0.11577310171E+02  0.51100000000E-03 0.  1.
         12    1    3    3    0    0  0.10332378447E+02  0.17162230695E+02 -0.16310555067E+02  0.25832816598E+02  0.00000000000E+00 0. -1.
</event>
<event>
 7    1  0.5329250E-013  0.5052885E+02  0.7816164E-02  0.1300439E+00
        -11   -1    0    0    0    0  0.00000000000E+00  0.00000000000E+00  0.45593999997E+02  0.45594000000E+02  0.51100000000E-03 0. -1.
         11   -1    0    0    0    0 -0.00000000000E+00 -0.00000000000E+00 -0.45593999997E+02  0.45594000000E+02  0.51100000000E-03 0.  1.
    9900012    2    1    2    0    0  0.40036925800E+02 -0.14966788241E+01 -0.69261033245E+01  0.50528851186E+02  0.29999973665E+02 0.  0.
         12    1    1    2    0    0 -0.40036925800E+02  0.14966788241E+01  0.69261033245E+01  0.40659148814E+02  0.00000000000E+00 0. -1.
         11    1    3    3    0    0  0.35699478401E+01 -0.91892625703E+01 -0.14111431074E+01  0.99588352380E+01  0.51100000000E-03 0. -1.
        -11    1    3    3    0    0  0.41790754761E+01  0.40416210388E+01 -0.56058932373E+01  0.80762250901E+01  0.51100000000E-03 0.  1.
         12    1    3    3    0    0  0.32287902484E+02  0.36509627073E+01  0.90933020191E-01  0.32493790858E+02  0.00000000000E+00 0. -1.
</event>
<event>
 7    1  0.5329250E-013  0.5052886E+02  0.7816164E-02  0.1300439E+00
        -11   -1    0    0    0    0  0.00000000000E+00  0.00000000000E+00  0.45593999997E+02  0.45594000000E+02  0.51100000000E-03 0.  1.
         11   -1    0    0    0    0 -0.00000000000E+00 -0.00000000000E+00 -0.45593999997E+02  0.45594000000E+02  0.51100000000E-03 0. -1.
    9900012    2    1    2    0    0 -0.39743502721E+02  0.40449457103E+01 -0.75669027937E+01  0.50528860656E+02  0.30000002449E+02 0.  0.
         12    1    1    2    0    0  0.39743502721E+02 -0.40449457103E+01  0.75669027937E+01  0.40659139344E+02  0.00000000000E+00 0. -1.
         11    1    3    3    0    0 -0.16114893552E+02  0.51353467925E+01  0.82376808098E+01  0.18812787307E+02  0.51100000000E-03 0. -1.
        -11    1    3    3    0    0 -0.24424122862E+01 -0.46071009086E+01 -0.29059715465E+00  0.52225667564E+01  0.51100000000E-03 0.  1.
        -12    1    3    3    0    0 -0.21186196882E+02  0.35166998263E+01 -0.15513986449E+02  0.26493506592E+02  0.00000000000E+00 0.  1.
</event>
<event>
 7    1  0.5329250E-013  0.5052887E+02  0.7816164E-02  0.1300439E+00
        -11   -1    0    0    0    0  0.00000000000E+00  0.00000000000E+00  0.45593999997E+02  0.45594000000E+02  0.51100000000E-03 0. -1.
         11   -1    0    0    0    0 -0.00000000000E+00 -0.00000000000E+00 -0.45593999997E+02  0.45594000000E+02  0.51100000000E-03 0.  1.
    9900012    2    1    2    0    0  0.18691554385E+02  0.50443687115E+00 -0.36104522833E+02  0.50528865345E+02  0.30000016703E+02 0.  0.
         12    1    1    2    0    0 -0.18691554385E+02 -0.50443687115E+00  0.36104522833E+02  0.40659134655E+02  0.00000000000E+00 0. -1.
         11    1    3    3    0    0  0.75860340737E+01  0.82669586852E+01 -0.42768190935E+00  0.11228242558E+02  0.51100000000E-03 0. -1.
        -11    1    3    3    0    0 -0.92682852725E+00 -0.27061753145E+01 -0.31608773026E+01  0.42630436938E+01  0.51100000000E-03 0.  1.
        -12    1    3    3    0    0  0.12032348839E+02 -0.50563464995E+01 -0.32515963621E+02  0.35037579093E+02  0.00000000000E+00 0.  1.
</event>
<event>
 7    1  0.5329250E-013  0.5052882E+02  0.7816164E-02  0.1300439E+00
        -11   -1    0    0    0    0  0.00000000000E+00  0.00000000000E+00  0.45593999997E+02  0.45594000000E+02  0.51100000000E-03 0.  1.
         11   -1    0    0    0    0 -0.00000000000E+00 -0.00000000000E+00 -0.45593999997E+02  0.45594000000E+02  0.51100000000E-03 0. -1.
    9900012    2    1    2    0    0  0.17703922281E+02  0.42335966468E+01  0.36356791908E+02  0.50528824866E+02  0.29999893663E+02 0.  0.
         12    1    1    2    0    0 -0.17703922281E+02 -0.42335966468E+01 -0.36356791908E+02  0.40659175134E+02  0.00000000000E+00 0. -1.
         11    1    3    3    0    0  0.21245168010E+02  0.40082630432E+01  0.12884212142E+02  0.25167960966E+02  0.51100000000E-03 0.  1.
        -11    1    3    3    0    0 -0.19474211507E+01  0.34909706198E+01  0.43978852872E+01  0.59431237802E+01  0.51100000000E-03 0. -1.
        -12    1    3    3    0    0 -0.15938245783E+01 -0.32656370161E+01  0.19074694479E+02  0.19417740120E+02  0.00000000000E+00 0.  1.
</event>
<event>
 7    1  0.5329250E-013  0.5052886E+02  0.7816164E-02  0.1300439E+00
        -11   -1    0    0    0    0  0.00000000000E+00  0.00000000000E+00  0.45593999997E+02  0.45594000000E+02  0.51100000000E-03 0. -1.
         11   -1    0    0    0    0 -0.00000000000E+00 -0.00000000000E+00 -0.45593999997E+02  0.45594000000E+02  0.51100000000E-03 0.  1.
    9900012    2    1    2    0    0 -0.46387552007E+01 -0.36917386914E+02  0.16393720688E+02  0.50528860998E+02  0.30000003490E+02 0.  0.
         12    1    1    2    0    0  0.46387552007E+01  0.36917386914E+02 -0.16393720688E+02  0.40659139002E+02  0.00000000000E+00 0. -1.
         11    1    3    3    0    0 -0.43533262096E+01 -0.26300270411E+02  0.54945034757E+01  0.27218472431E+02  0.51100000000E-03 0. -1.
        -11    1    3    3    0    0 -0.28675495244E+01 -0.12494608686E+02  0.94213849277E+00  0.12854015392E+02  0.51100000000E-03 0.  1.
         12    1    3    3    0    0  0.25821205332E+01  0.18774921830E+01  0.99570787197E+01  0.10456373175E+02  0.00000000000E+00 0. -1.
</event>
<event>
 7    1  0.5329250E-013  0.5052885E+02  0.7816164E-02  0.1300439E+00
        -11   -1    0    0    0    0  0.00000000000E+00  0.00000000000E+00  0.45593999997E+02  0.45594000000E+02  0.51100000000E-03 0.  1.
         11   -1    0    0    0    0 -0.00000000000E+00 -0.00000000000E+00 -0.45593999997E+02  0.45594000000E+02  0.51100000000E-03 0. -1.
    9900012    2    1    2    0    0 -0.23045602715E+02 -0.33238431179E+02  0.41561570158E+01  0.50528846628E+02  0.29999959811E+02 0.  0.
         12    1    1    2    0    0  0.23045602715E+02  0.33238431179E+02 -0.41561570158E+01  0.40659153372E+02  0.00000000000E+00 0. -1.
         11    1    3    3    0    0 -0.10548488921E+02 -0.12675996386E+02 -0.34833177140E+01  0.16854821430E+02  0.51100000000E-03 0. -1.
        -11    1    3    3    0    0 -0.13489951887E+02 -0.13598195705E+02 -0.44704655457E+01  0.19669132944E+02  0.51100000000E-03 0.  1.
        -12    1    3    3    0    0  0.99283809233E+00 -0.69642390891E+01  0.12109940275E+02  0.14004892254E+02  0.00000000000E+00 0.  1.
</event>
<event>
 7    1  0.5329250E-013  0.5052886E+02  0.7816164E-02  0.1300439E+00
        -11   -1    0    0    0    0  0.00000000000E+00  0.00000000000E+00  0.45593999997E+02  0.45594000000E+02  0.51100000000E-03 0.  1.
         11   -1    0    0    0    0 -0.00000000000E+00 -0.00000000000E+00 -0.45593999997E+02  0.45594000000E+02  0.51100000000E-03 0. -1.
    9900012    2    1    2    0    0  0.38237907040E+01 -0.90385506957E+01  0.39456922442E+02  0.50528862004E+02  0.30000006547E+02 0.  0.
         12    1    1    2    0    0 -0.38237907040E+01  0.90385506957E+01 -0.39456922442E+02  0.40659137996E+02  0.00000000000E+00 0. -1.
         11    1    3    3    0    0  0.19619514748E+01  0.48796661096E+01  0.23067588931E+00  0.52643714305E+01  0.51100000000E-03 0. -1.
        -11    1    3    3    0    0  0.45006080427E+01  0.96085952252E+00  0.21427583633E+02  0.21916205519E+02  0.51100000000E-03 0.  1.
         12    1    3    3    0    0 -0.26387688135E+01 -0.14879076328E+02  0.17798662920E+02  0.23348285054E+02  0.00000000000E+00 0. -1.
</event>
<event>
 7    1  0.5329250E-013  0.5052886E+02  0.7816164E-02  0.1300439E+00
        -11   -1    0    0    0    0  0.00000000000E+00  0.00000000000E+00  0.45593999997E+02  0.45594000000E+02  0.51100000000E-03 0.  1.
         11   -1    0    0    0    0 -0.00000000000E+00 -0.00000000000E+00 -0.45593999997E+02  0.45594000000E+02  0.51100000000E-03 0. -1.
    9900012    2    1    2    0    0 -0.39430121199E+02 -0.63619509336E+01  0.76129183500E+01  0.50528863225E+02  0.30000010259E+02 0.  0.
         12    1    1    2    0    0  0.39430121199E+02  0.63619509336E+01 -0.76129183500E+01  0.40659136775E+02  0.00000000000E+00 0. -1.
         11    1    3    3    0    0 -0.10919596681E+02  0.67450595359E+01  0.50546338133E+01  0.13794301108E+02  0.51100000000E-03 0. -1.
        -11    1    3    3    0    0 -0.18168747591E+02  0.14421477857E+01  0.45167486769E+01  0.18777225517E+02  0.51100000000E-03 0.  1.
         12    1    3    3    0    0 -0.10341776928E+02 -0.14549158255E+02 -0.19584641402E+01  0.17957336599E+02  0.00000000000E+00 0. -1.
</event>
<event>
 7    1  0.5329250E-013  0.5052882E+02  0.7816164E-02  0.1300439E+00
        -11   -1    0    0    0    0  0.00000000000E+00  0.00000000000E+00  0.45593999997E+02  0.45594000000E+02  0.51100000000E-03 0.  1.
         11   -1    0    0    0    0 -0.00000000000E+00 -0.00000000000E+00 -0.45593999997E+02  0.45594000000E+02  0.51100000000E-03 0. -1.
    9900012    2    1    2    0    0 -0.15573616444E+02  0.15116559425E+02  0.34381988696E+02  0.50528818446E+02  0.29999874147E+02 0.  0.
         12    1    1    2    0    0  0.15573616444E+02 -0.15116559425E+02 -0.34381988696E+02  0.40659181554E+02  0.00000000000E+00 0. -1.
         11    1    3    3    0    0 -0.13067462103E+02  0.48006400389E+01  0.68054856152E+01  0.15495784760E+02  0.51100000000E-03 0. -1.
        -11    1    3    3    0    0 -0.47543049606E+01 -0.16034132243E+01  0.20250505534E+02  0.20862821580E+02  0.51100000000E-03 0.  1.
         12    1    3    3    0    0  0.22481506198E+01  0.11919332610E+02  0.73259975465E+01  0.14170212106E+02  0.00000000000E+00 0. -1.
</event>
<event>
 7    1  0.5329250E-013  0.5052886E+02  0.7816164E-02  0.1300439E+00
        -11   -1    0    0    0    0  0.00000000000E+00  0.00000000000E+00  0.45593999997E+02  0.45594000000E+02  0.51100000000E-03 0.  1.
         11   -1    0    0    0    0 -0.00000000000E+00 -0.00000000000E+00 -0.45593999997E+02  0.45594000000E+02  0.51100000000E-03 0. -1.
    9900012    2    1    2    0    0 -0.31868270746E+02 -0.42105988578E+01  0.24896777173E+02  0.50528864044E+02  0.30000012749E+02 0.  0.
         12    1    1    2    0    0  0.31868270746E+02  0.42105988578E+01 -0.24896777173E+02  0.40659135956E+02  0.00000000000E+00 0. -1.
         11    1    3    3    0    0 -0.14054823049E+02 -0.15962361140E+01  0.18342942986E+01  0.14263613024E+02  0.51100000000E-03 0. -1.
        -11    1    3    3    0    0 -0.22926053475E+01 -0.96901418175E+01  0.13289844757E+02  0.16606470475E+02  0.51100000000E-03 0.  1.
         12    1    3    3    0    0 -0.15520842350E+02  0.70757790737E+01  0.97726381183E+01  0.19658780545E+02  0.00000000000E+00 0. -1.
</event>
<event>
 7    1  0.5329250E-013  0.5052886E+02  0.7816164E-02  0.1300439E+00
        -11   -1    0    0    0    0  0.00000000000E+00  0.00000000000E+00  0.45593999997E+02  0.45594000000E+02  0.51100000000E-03 0.  1.
         11   -1    0    0    0    0 -0.00000000000E+00 -0.00000000000E+00 -0.45593999997E+02  0.45594000000E+02  0.51100000000E-03 0. -1.
    9900012    2    1    2    0    0  0.44139961969E+01 -0.96796507334E+01  0.39242666120E+02  0.50528857794E+02  0.29999993749E+02 0.  0.
         12    1    1    2    0    0 -0.44139961969E+01  0.96796507334E+01 -0.39242666120E+02  0.40659142206E+02  0.00000000000E+00 0. -1.
         11    1    3    3    0    0 -0.22957268975E+01  0.15853766723E+01  0.67074354560E+00  0.28694386813E+01  0.51100000000E-03 0. -1.
        -11    1    3    3    0    0 -0.83156538615E+01  0.16915872112E-01  0.67764517096E+01  0.10727100416E+02  0.51100000000E-03 0.  1.
        -12    1    3    3    0    0  0.15025376956E+02 -0.11281943278E+02  0.31795470865E+02  0.36932318697E+02  0.00000000000E+00 0.  1.
</event>
<event>
 7    1  0.5329250E-013  0.5052890E+02  0.7816164E-02  0.1300439E+00
        -11   -1    0    0    0    0  0.00000000000E+00  0.00000000000E+00  0.45593999997E+02  0.45594000000E+02  0.51100000000E-03 0. -1.
         11   -1    0    0    0    0 -0.00000000000E+00 -0.00000000000E+00 -0.45593999997E+02  0.45594000000E+02  0.51100000000E-03 0.  1.
    9900012    2    1    2    0    0 -0.22038493454E+02 -0.33441391858E+02 -0.70100481868E+01  0.50528896976E+02  0.30000112848E+02 0.  0.
         12    1    1    2    0    0  0.22038493454E+02  0.33441391858E+02  0.70100481868E+01  0.40659103024E+02  0.00000000000E+00 0. -1.
         11    1    3    3    0    0 -0.23002175416E+01  0.25943333235E+01 -0.25288355004E+01  0.42914537608E+01  0.51100000000E-03 0. -1.
        -11    1    3    3    0    0 -0.10498871859E+01 -0.95933269995E+01 -0.94166387400E+01  0.13483592676E+02  0.51100000000E-03 0.  1.
         12    1    3    3    0    0 -0.18688388726E+02 -0.26442398182E+02  0.49354260536E+01  0.32753850539E+02  0.00000000000E+00 0. -1.
</event>
<event>
 7    1  0.5329250E-013  0.5052883E+02  0.7816164E-02  0.1300439E+00
        -11   -1    0    0    0    0  0.00000000000E+00  0.00000000000E+00  0.45593999997E+02  0.45594000000E+02  0.51100000000E-03 0. -1.
         11   -1    0    0    0    0 -0.00000000000E+00 -0.00000000000E+00 -0.45593999997E+02  0.45594000000E+02  0.51100000000E-03 0.  1.
    9900012    2    1    2    0    0  0.33246397176E+02 -0.12384373934E+02 -0.19861328858E+02  0.50528830961E+02  0.29999912188E+02 0.  0.
         12    1    1    2    0    0 -0.33246397176E+02  0.12384373934E+02  0.19861328858E+02  0.40659169039E+02  0.00000000000E+00 0. -1.
         11    1    3    3    0    0  0.14597207440E+01 -0.64088128505E+00  0.43815907076E+01  0.46626012978E+01  0.51100000000E-03 0. -1.
        -11    1    3    3    0    0  0.13880437470E+01  0.38883506703E+01 -0.31390502301E+00  0.41405884851E+01  0.51100000000E-03 0.  1.
        -12    1    3    3    0    0  0.30398632686E+02 -0.15631843320E+02 -0.23929014543E+02  0.41725641178E+02  0.00000000000E+00 0.  1.
</event>
<event>
 7    1  0.5329250E-013  0.5052885E+02  0.7816164E-02  0.1300439E+00
        -11   -1    0    0    0    0  0.00000000000E+00  0.00000000000E+00  0.45593999997E+02  0.45594000000E+02  0.51100000000E-03 0.  1.
         11   -1    0    0    0    0 -0.00000000000E+00 -0.00000000000E+00 -0.45593999997E+02  0.45594000000E+02  0.51100000000E-03 0. -1.
    9900012    2    1    2    0    0  0.36727513674E+02  0.12867705774E+02 -0.11776193208E+02  0.50528845569E+02  0.29999956591E+02 0.  0.
         12    1    1    2    0    0 -0.36727513674E+02 -0.12867705774E+02  0.11776193208E+02  0.40659154431E+02  0.00000000000E+00 0. -1.
         11    1    3    3    0    0  0.77668237308E+01 -0.10558029405E+01  0.54959792701E+01  0.95730903638E+01  0.51100000000E-03 0.  1.
        -11    1    3    3    0    0  0.15384020690E+01 -0.34510078356E+01 -0.49623372886E+01  0.62370608170E+01  0.51100000000E-03 0. -1.
         12    1    3    3    0    0  0.27422287874E+02  0.17374516550E+02 -0.12309835190E+02  0.34718694388E+02  0.00000000000E+00 0. -1.
</event>
<event>
 7    1  0.5329250E-013  0.5052888E+02  0.7816164E-02  0.1300439E+00
        -11   -1    0    0    0    0  0.00000000000E+00  0.00000000000E+00  0.45593999997E+02  0.45594000000E+02  0.51100000000E-03 0.  1.
         11   -1    0    0    0    0 -0.00000000000E+00 -0.00000000000E+00 -0.45593999997E+02  0.45594000000E+02  0.51100000000E-03 0. -1.
    9900012    2    1    2    0    0 -0.10655891811E+02 -0.33454231480E+02  0.20504398841E+02  0.50528880408E+02  0.30000062487E+02 0.  0.
         12    1    1    2    0    0  0.10655891811E+02  0.33454231480E+02 -0.20504398841E+02  0.40659119592E+02  0.00000000000E+00 0. -1.
         11    1    3    3    0    0  0.55610415721E+01 -0.65466260469E+01  0.12784273340E+00  0.85906833250E+01  0.51100000000E-03 0. -1.
        -11    1    3    3    0    0 -0.96114715398E+01 -0.20839273557E+02  0.40410410913E+01  0.23302054007E+02  0.51100000000E-03 0.  1.
        -12    1    3    3    0    0 -0.66054618437E+01 -0.60683318753E+01  0.16335515016E+02  0.18636143076E+02  0.00000000000E+00 0.  1.
</event>
<event>
 7    1  0.5329250E-013  0.5052885E+02  0.7816164E-02  0.1300439E+00
        -11   -1    0    0    0    0  0.00000000000E+00  0.00000000000E+00  0.45593999997E+02  0.45594000000E+02  0.51100000000E-03 0. -1.
         11   -1    0    0    0    0 -0.00000000000E+00 -0.00000000000E+00 -0.45593999997E+02  0.45594000000E+02  0.51100000000E-03 0.  1.
    9900012    2    1    2    0    0 -0.22328783452E+02 -0.56253021353E+00 -0.33974626469E+02  0.50528852759E+02  0.29999978446E+02 0.  0.
         12    1    1    2    0    0  0.22328783452E+02  0.56253021353E+00  0.33974626469E+02  0.40659147241E+02  0.00000000000E+00 0. -1.
         11    1    3    3    0    0 -0.70616474698E+00 -0.74649405732E+01 -0.12720708338E+01  0.76054040575E+01  0.51100000000E-03 0. -1.
        -11    1    3    3    0    0  0.18789539011E+01 -0.12078586960E+01 -0.58744615768E+00  0.23096501123E+01  0.51100000000E-03 0.  1.
        -12    1    3    3    0    0 -0.23501572606E+02  0.81102690556E+01 -0.32115109477E+02  0.40613798589E+02  0.00000000000E+00 0.  1.
</event>
<event>
 7    1  0.5329250E-013  0.5052886E+02  0.7816164E-02  0.1300439E+00
        -11   -1    0    0    0    0  0.00000000000E+00  0.00000000000E+00  0.45593999997E+02  0.45594000000E+02  0.51100000000E-03 0.  1.
         11   -1    0    0    0    0 -0.00000000000E+00 -0.00000000000E+00 -0.45593999997E+02  0.45594000000E+02  0.51100000000E-03 0. -1.
    9900012    2    1    2    0    0 -0.20978730152E-01 -0.11890602358E+02  0.38881598068E+02  0.50528861632E+02  0.30000005416E+02 0.  0.
         12    1    1    2    0    0  0.20978730152E-01  0.11890602358E+02 -0.38881598068E+02  0.40659138368E+02  0.00000000000E+00 0. -1.
         11    1    3    3    0    0  0.93087920877E+00 -0.75238005336E+01  0.79017949326E+01  0.10950455424E+02  0.51100000000E-03 0. -1.
        -11    1    3    3    0    0  0.10979725553E+02  0.15613867032E+01  0.16714249869E+02  0.20058874609E+02  0.51100000000E-03 0.  1.
         12    1    3    3    0    0 -0.11931583492E+02 -0.59281885279E+01  0.14265553266E+02  0.19519531599E+02  0.00000000000E+00 0. -1.
</event>
<event>
 7    1  0.5329250E-013  0.5052887E+02  0.7816164E-02  0.1300439E+00
        -11   -1    0    0    0    0  0.00000000000E+00  0.00000000000E+00  0.45593999997E+02  0.45594000000E+02  0.51100000000E-03 0. -1.
         11   -1    0    0    0    0 -0.00000000000E+00 -0.00000000000E+00 -0.45593999997E+02  0.45594000000E+02  0.51100000000E-03 0.  1.
    9900012    2    1    2    0    0  0.99483296273E+01  0.37721433408E+02 -0.11458158519E+02  0.50528865757E+02  0.30000017955E+02 0.  0.
         12    1    1    2    0    0 -0.99483296273E+01 -0.37721433408E+02  0.11458158519E+02  0.40659134243E+02  0.00000000000E+00 0. -1.
         11    1    3    3    0    0 -0.54545917766E+01  0.66892348002E+01 -0.70298125085E-01  0.86315338005E+01  0.51100000000E-03 0. -1.
        -11    1    3    3    0    0  0.32972265656E+01  0.23520257094E+01  0.52254841659E+01  0.66113094763E+01  0.51100000000E-03 0.  1.
        -12    1    3    3    0    0  0.12105694838E+02  0.28680172899E+02 -0.16613344560E+02  0.35286022480E+02  0.00000000000E+00 0.  1.
</event>
<event>
 7    1  0.5329250E-013  0.5052886E+02  0.7816164E-02  0.1300439E+00
        -11   -1    0    0    0    0  0.00000000000E+00  0.00000000000E+00  0.45593999997E+02  0.45594000000E+02  0.51100000000E-03 0.  1.
         11   -1    0    0    0    0 -0.00000000000E+00 -0.00000000000E+00 -0.45593999997E+02  0.45594000000E+02  0.51100000000E-03 0. -1.
    9900012    2    1    2    0    0  0.61732069470E+00 -0.59453177572E+01  0.40217377469E+02  0.50528864021E+02  0.30000012679E+02 0.  0.
         12    1    1    2    0    0 -0.61732069470E+00  0.59453177572E+01 -0.40217377469E+02  0.40659135979E+02  0.00000000000E+00 0. -1.
         11    1    3    3    0    0 -0.12221617833E+02  0.35807847118E-01  0.15582901714E+02  0.19803940283E+02  0.51100000000E-03 0. -1.
        -11    1    3    3    0    0  0.50325568010E+01  0.27692569721E+01  0.12969690303E+02  0.14184790409E+02  0.51100000000E-03 0.  1.
         12    1    3    3    0    0  0.78063817269E+01 -0.87503825764E+01  0.11664785452E+02  0.16540133329E+02  0.00000000000E+00 0. -1.
</event>
<event>
 7    1  0.5329250E-013  0.5052886E+02  0.7816164E-02  0.1300439E+00
        -11   -1    0    0    0    0  0.00000000000E+00  0.00000000000E+00  0.45593999997E+02  0.45594000000E+02  0.51100000000E-03 0.  1.
         11   -1    0    0    0    0 -0.00000000000E+00 -0.00000000000E+00 -0.45593999997E+02  0.45594000000E+02  0.51100000000E-03 0. -1.
    9900012    2    1    2    0    0  0.23843259470E+02 -0.62126870068E+01  0.32342962461E+02  0.50528859297E+02  0.29999998319E+02 0.  0.
         12    1    1    2    0    0 -0.23843259470E+02  0.62126870068E+01 -0.32342962461E+02  0.40659140703E+02  0.00000000000E+00 0. -1.
         11    1    3    3    0    0  0.52279273281E+01 -0.81252164522E+01  0.75983549690E+01  0.12291678691E+02  0.51100000000E-03 0. -1.
        -11    1    3    3    0    0  0.21515489649E+02 -0.34999437271E+01  0.23343675076E+02  0.31938895836E+02  0.51100000000E-03 0.  1.
         12    1    3    3    0    0 -0.29001575071E+01  0.54124731725E+01  0.14009324156E+01  0.62982847698E+01  0.00000000000E+00 0. -1.
</event>
<event>
 7    1  0.5329250E-013  0.5052887E+02  0.7816164E-02  0.1300439E+00
        -11   -1    0    0    0    0  0.00000000000E+00  0.00000000000E+00  0.45593999997E+02  0.45594000000E+02  0.51100000000E-03 0. -1.
         11   -1    0    0    0    0 -0.00000000000E+00 -0.00000000000E+00 -0.45593999997E+02  0.45594000000E+02  0.51100000000E-03 0.  1.
    9900012    2    1    2    0    0 -0.51145693700E+00  0.27355825350E+02 -0.30075945267E+02  0.50528865080E+02  0.30000015896E+02 0.  0.
         12    1    1    2    0    0  0.51145693700E+00 -0.27355825350E+02  0.30075945267E+02  0.40659134920E+02  0.00000000000E+00 0. -1.
         11    1    3    3    0    0 -0.17280725810E+01 -0.59096312161E+01 -0.23572466247E+01  0.65929195252E+01  0.51100000000E-03 0. -1.
        -11    1    3    3    0    0 -0.66151740652E+00  0.19646294366E+02 -0.20523720714E+02  0.28418965495E+02  0.51100000000E-03 0.  1.
        -12    1    3    3    0    0  0.18781330505E+01  0.13619162200E+02 -0.71949779280E+01  0.15516980060E+02  0.00000000000E+00 0.  1.
</event>
<event>
 7    1  0.5329250E-013  0.5052887E+02  0.7816164E-02  0.1300439E+00
        -11   -1    0    0    0    0  0.00000000000E+00  0.00000000000E+00  0.45593999997E+02  0.45594000000E+02  0.51100000000E-03 0. -1.
         11   -1    0    0    0    0 -0.00000000000E+00 -0.00000000000E+00 -0.45593999997E+02  0.45594000000E+02  0.51100000000E-03 0.  1.
    9900012    2    1    2    0    0 -0.14028141361E+01  0.22965033272E+02 -0.33523193525E+02  0.50528866403E+02  0.30000019919E+02 0.  0.
         12    1    1    2    0    0  0.14028141361E+01 -0.22965033272E+02  0.33523193525E+02  0.40659133597E+02  0.00000000000E+00 0. -1.
         11    1    3    3    0    0  0.71349440582E+01  0.12262372293E+02 -0.15437113254E+02  0.20966107575E+02  0.51100000000E-03 0. -1.
        -11    1    3    3    0    0 -0.40578962123E+01  0.14886039340E+02 -0.71043051818E+01  0.16986225045E+02  0.51100000000E-03 0.  1.
         12    1    3    3    0    0 -0.44798619820E+01 -0.41833783606E+01 -0.10981775090E+02  0.12576533784E+02  0.00000000000E+00 0. -1.
</event>
<event>
 7    1  0.5329250E-013  0.5052887E+02  0.7816164E-02  0.1300439E+00
        -11   -1    0    0    0    0  0.00000000000E+00  0.00000000000E+00  0.45593999997E+02  0.45594000000E+02  0.51100000000E-03 0.  1.
         11   -1    0    0    0    0 -0.00000000000E+00 -0.00000000000E+00 -0.45593999997E+02  0.45594000000E+02  0.51100000000E-03 0. -1.
    9900012    2    1    2    0    0  0.45698476675E+01  0.85122871859E+00  0.40392529867E+02  0.50528873508E+02  0.30000041516E+02 0.  0.
         12    1    1    2    0    0 -0.45698476675E+01 -0.85122871859E+00 -0.40392529867E+02  0.40659126492E+02  0.00000000000E+00 0. -1.
         11    1    3    3    0    0  0.62192704161E+01 -0.48974806755E+01  0.16904173093E+02  0.18665896970E+02  0.51100000000E-03 0.  1.
        -11    1    3    3    0    0 -0.15140108120E+01  0.12386109681E+02  0.21626176649E+02  0.24967968650E+02  0.51100000000E-03 0. -1.
         12    1    3    3    0    0 -0.13541193657E+00 -0.66374002873E+01  0.18621801244E+01  0.68950078885E+01  0.00000000000E+00 0. -1.
</event>
<event>
 7    1  0.5329250E-013  0.5052886E+02  0.7816164E-02  0.1300439E+00
        -11   -1    0    0    0    0  0.00000000000E+00  0.00000000000E+00  0.45593999997E+02  0.45594000000E+02  0.51100000000E-03 0.  1.
         11   -1    0    0    0    0 -0.00000000000E+00 -0.00000000000E+00 -0.45593999997E+02  0.45594000000E+02  0.51100000000E-03 0. -1.
    9900012    2    1    2    0    0  0.27950663799E+02  0.89834882792E+01 -0.28128679484E+02  0.50528864767E+02  0.30000014944E+02 0.  0.
         12    1    1    2    0    0 -0.27950663799E+02 -0.89834882792E+01  0.28128679484E+02  0.40659135233E+02  0.00000000000E+00 0. -1.
         11    1    3    3    0    0 -0.49797608461E+01  0.15155318415E+01 -0.44869771275E+00  0.52245750780E+01  0.51100000000E-03 0. -1.
        -11    1    3    3    0    0  0.15155475028E+02  0.95438183757E+01 -0.15145392303E+02  0.23455400247E+02  0.51100000000E-03 0.  1.
        -12    1    3    3    0    0  0.17774949617E+02 -0.20758619380E+01 -0.12534589468E+02  0.21848889441E+02  0.00000000000E+00 0.  1.
</event>
<event>
 7    1  0.5329250E-013  0.5052887E+02  0.7816164E-02  0.1300439E+00
        -11   -1    0    0    0    0  0.00000000000E+00  0.00000000000E+00  0.45593999997E+02  0.45594000000E+02  0.51100000000E-03 0. -1.
         11   -1    0    0    0    0 -0.00000000000E+00 -0.00000000000E+00 -0.45593999997E+02  0.45594000000E+02  0.51100000000E-03 0.  1.
    9900012    2    1    2    0    0 -0.29058906300E+02 -0.27672473900E+02  0.65558555215E+01  0.50528867093E+02  0.30000022017E+02 0.  0.
         12    1    1    2    0    0  0.29058906300E+02  0.27672473900E+02 -0.65558555215E+01  0.40659132907E+02  0.00000000000E+00 0. -1.
         11    1    3    3    0    0 -0.23334858057E+02 -0.19116838588E+02  0.50693377053E+01  0.30588679330E+02  0.51100000000E-03 0. -1.
        -11    1    3    3    0    0 -0.70915486781E+01 -0.10673190753E+02 -0.43903230154E+01  0.13545552774E+02  0.51100000000E-03 0.  1.
         12    1    3    3    0    0  0.13675004345E+01  0.21175554414E+01  0.58768408316E+01  0.63946349893E+01  0.00000000000E+00 0. -1.
</event>
<event>
 7    1  0.5329250E-013  0.5052886E+02  0.7816164E-02  0.1300439E+00
        -11   -1    0    0    0    0  0.00000000000E+00  0.00000000000E+00  0.45593999997E+02  0.45594000000E+02  0.51100000000E-03 0. -1.
         11   -1    0    0    0    0 -0.00000000000E+00 -0.00000000000E+00 -0.45593999997E+02  0.45594000000E+02  0.51100000000E-03 0.  1.
    9900012    2    1    2    0    0 -0.26746043952E+02  0.27663351652E+02  0.13135969110E+02  0.50528861099E+02  0.30000003797E+02 0.  0.
         12    1    1    2    0    0  0.26746043952E+02 -0.27663351652E+02 -0.13135969110E+02  0.40659138901E+02  0.00000000000E+00 0. -1.
         11    1    3    3    0    0  0.17334011910E+01 -0.32981386012E+01  0.35829993389E+01  0.51691665136E+01  0.51100000000E-03 0. -1.
        -11    1    3    3    0    0 -0.18021350025E+01  0.10677199410E+02  0.24616165395E+01  0.11104496119E+02  0.51100000000E-03 0.  1.
         12    1    3    3    0    0 -0.26677310140E+02  0.20284290844E+02  0.70913532314E+01  0.34255198467E+02  0.00000000000E+00 0. -1.
</event>
<event>
 7    1  0.5329250E-013  0.5052886E+02  0.7816164E-02  0.1300439E+00
        -11   -1    0    0    0    0  0.00000000000E+00  0.00000000000E+00  0.45593999997E+02  0.45594000000E+02  0.51100000000E-03 0.  1.
         11   -1    0    0    0    0 -0.00000000000E+00 -0.00000000000E+00 -0.45593999997E+02  0.45594000000E+02  0.51100000000E-03 0. -1.
    9900012    2    1    2    0    0 -0.36572556498E+02  0.14663043200E+02  0.10030418398E+02  0.50528855667E+02  0.29999987285E+02 0.  0.
         12    1    1    2    0    0  0.36572556498E+02 -0.14663043200E+02 -0.10030418398E+02  0.40659144333E+02  0.00000000000E+00 0. -1.
         11    1    3    3    0    0  0.10042148052E+01  0.69004661608E+01  0.28273714890E+01  0.75245538345E+01  0.51100000000E-03 0. -1.
        -11    1    3    3    0    0 -0.54317506793E+01  0.19527953875E+01 -0.54833759548E+01  0.79614532210E+01  0.51100000000E-03 0.  1.
        -12    1    3    3    0    0 -0.32145020624E+02  0.58097816520E+01  0.12686422863E+02  0.35042848611E+02  0.00000000000E+00 0.  1.
</event>
<event>
 7    1  0.5329250E-013  0.5052887E+02  0.7816164E-02  0.1300439E+00
        -11   -1    0    0    0    0  0.00000000000E+00  0.00000000000E+00  0.45593999997E+02  0.45594000000E+02  0.51100000000E-03 0.  1.
         11   -1    0    0    0    0 -0.00000000000E+00 -0.00000000000E+00 -0.45593999997E+02  0.45594000000E+02  0.51100000000E-03 0. -1.
    9900012    2    1    2    0    0  0.14540458605E+02 -0.37093171833E+02 -0.81139632263E+01  0.50528871476E+02  0.30000035340E+02 0.  0.
         12    1    1    2    0    0 -0.14540458605E+02  0.37093171833E+02  0.81139632263E+01  0.40659128524E+02  0.00000000000E+00 0. -1.
         11    1    3    3    0    0  0.39462690112E+01  0.15040803113E+00  0.20315844594E+01  0.44410581353E+01  0.51100000000E-03 0. -1.
        -11    1    3    3    0    0  0.13540446006E+02 -0.17938635804E+02 -0.13580374189E+02  0.26259567703E+02  0.51100000000E-03 0.  1.
        -12    1    3    3    0    0 -0.29462564118E+01 -0.19304944060E+02  0.34348265034E+01  0.19828245639E+02  0.00000000000E+00 0.  1.
</event>
<event>
 7    1  0.5476769E-013  0.5052886E+02  0.7816164E-02  0.1300439E+00
        -11   -1    0    0    0    0  0.00000000000E+00  0.00000000000E+00  0.45593999997E+02  0.45594000000E+02  0.51100000000E-03 0. -1.
         11   -1    0    0    0    0 -0.00000000000E+00 -0.00000000000E+00 -0.45593999997E+02  0.45594000000E+02  0.51100000000E-03 0.  1.
    9900012    2    1    2    0    0 -0.96581831469E+01 -0.25818225114E+02 -0.29888193556E+02  0.50528863711E+02  0.30000011737E+02 0.  0.
         12    1    1    2    0    0  0.96581831469E+01  0.25818225114E+02  0.29888193556E+02  0.40659136289E+02  0.00000000000E+00 0. -1.
         11    1    3    3    0    0 -0.12808189297E+01  0.61925011246E+00  0.31783440160E+01  0.34822175087E+01  0.51100000000E-03 0. -1.
        -11    1    3    3    0    0  0.30135475842E+01 -0.14613281917E+02 -0.75961235671E+01  0.16743075313E+02  0.51100000000E-03 0.  1.
        -12    1    3    3    0    0 -0.11390911801E+02 -0.11824193309E+02 -0.25470414005E+02  0.30303570889E+02  0.00000000000E+00 0.  1.
</event>
<event>
 7    1  0.5329250E-013  0.5052887E+02  0.7816164E-02  0.1300439E+00
        -11   -1    0    0    0    0  0.00000000000E+00  0.00000000000E+00  0.45593999997E+02  0.45594000000E+02  0.51100000000E-03 0.  1.
         11   -1    0    0    0    0 -0.00000000000E+00 -0.00000000000E+00 -0.45593999997E+02  0.45594000000E+02  0.51100000000E-03 0. -1.
    9900012    2    1    2    0    0 -0.88922064037E+01 -0.83854434457E+01  0.38778576130E+02  0.50528868638E+02  0.30000026711E+02 0.  0.
         12    1    1    2    0    0  0.88922064037E+01  0.83854434457E+01 -0.38778576130E+02  0.40659131362E+02  0.00000000000E+00 0. -1.
         11    1    3    3    0    0 -0.38569454617E+01 -0.48589586964E+01  0.23898630006E+01  0.66480789203E+01  0.51100000000E-03 0. -1.
        -11    1    3    3    0    0  0.77732539720E+01 -0.69594061345E+01  0.21786957477E+02  0.24156331000E+02  0.51100000000E-03 0.  1.
         12    1    3    3    0    0 -0.12808514914E+02  0.34329213852E+01  0.14601755652E+02  0.19724458717E+02  0.00000000000E+00 0. -1.
</event>
<event>
 7    1  0.5329250E-013  0.5052887E+02  0.7816164E-02  0.1300439E+00
        -11   -1    0    0    0    0  0.00000000000E+00  0.00000000000E+00  0.45593999997E+02  0.45594000000E+02  0.51100000000E-03 0.  1.
         11   -1    0    0    0    0 -0.00000000000E+00 -0.00000000000E+00 -0.45593999997E+02  0.45594000000E+02  0.51100000000E-03 0. -1.
    9900012    2    1    2    0    0  0.12420183806E+02  0.29965191779E+02  0.24515117242E+02  0.50528872396E+02  0.30000038136E+02 0.  0.
         12    1    1    2    0    0 -0.12420183806E+02 -0.29965191779E+02 -0.24515117242E+02  0.40659127604E+02  0.00000000000E+00 0. -1.
         11    1    3    3    0    0  0.19490250346E+01  0.61035909220E+01  0.22563625175E+01  0.67929148972E+01  0.51100000000E-03 0. -1.
        -11    1    3    3    0    0  0.53480529767E+01 -0.53947930431E+01  0.22468600675E+01  0.79217323259E+01  0.51100000000E-03 0.  1.
         12    1    3    3    0    0  0.51231057943E+01  0.29256393900E+02  0.20011894657E+02  0.35814225173E+02  0.00000000000E+00 0. -1.
</event>
<event>
 7    1  0.5329250E-013  0.5052886E+02  0.7816164E-02  0.1300439E+00
        -11   -1    0    0    0    0  0.00000000000E+00  0.00000000000E+00  0.45593999997E+02  0.45594000000E+02  0.51100000000E-03 0. -1.
         11   -1    0    0    0    0 -0.00000000000E+00 -0.00000000000E+00 -0.45593999997E+02  0.45594000000E+02  0.51100000000E-03 0.  1.
    9900012    2    1    2    0    0  0.86191938956E+01  0.38688341682E+02 -0.90602186758E+01  0.50528857756E+02  0.29999993636E+02 0.  0.
         12    1    1    2    0    0 -0.86191938956E+01 -0.38688341682E+02  0.90602186758E+01  0.40659142244E+02  0.00000000000E+00 0. -1.
         11    1    3    3    0    0  0.17281036291E+01 -0.36077572971E+01 -0.32328750131E+01  0.51433195487E+01  0.51100000000E-03 0. -1.
        -11    1    3    3    0    0 -0.42283700320E+00  0.16658767606E+02 -0.82891562065E+01  0.18611916617E+02  0.51100000000E-03 0.  1.
        -12    1    3    3    0    0  0.73139272697E+01  0.25637331374E+02  0.24618125439E+01  0.26773621591E+02  0.00000000000E+00 0.  1.
</event>
<event>
 7    1  0.5329250E-013  0.5052886E+02  0.7816164E-02  0.1300439E+00
        -11   -1    0    0    0    0  0.00000000000E+00  0.00000000000E+00  0.45593999997E+02  0.45594000000E+02  0.51100000000E-03 0. -1.
         11   -1    0    0    0    0 -0.00000000000E+00 -0.00000000000E+00 -0.45593999997E+02  0.45594000000E+02  0.51100000000E-03 0.  1.
    9900012    2    1    2    0    0  0.67053636699E+01 -0.40022766686E+02 -0.25262107267E+01  0.50528862087E+02  0.30000006801E+02 0.  0.
         12    1    1    2    0    0 -0.67053636699E+01  0.40022766686E+02  0.25262107267E+01  0.40659137913E+02  0.00000000000E+00 0. -1.
         11    1    3    3    0    0 -0.52531711025E+00 -0.67109323999E+01  0.30745511053E+01  0.74003673222E+01  0.51100000000E-03 0. -1.
        -11    1    3    3    0    0  0.58624172109E+01 -0.36982900711E+02 -0.83221096059E+01  0.38358315775E+02  0.51100000000E-03 0.  1.
        -12    1    3    3    0    0  0.13682635692E+01  0.36710664248E+01  0.27213477738E+01  0.47701789899E+01  0.00000000000E+00 0.  1.
</event>
<event>
 7    1  0.5329250E-013  0.5052886E+02  0.7816164E-02  0.1300439E+00
        -11   -1    0    0    0    0  0.00000000000E+00  0.00000000000E+00  0.45593999997E+02  0.45594000000E+02  0.51100000000E-03 0. -1.
         11   -1    0    0    0    0 -0.00000000000E+00 -0.00000000000E+00 -0.45593999997E+02  0.45594000000E+02  0.51100000000E-03 0.  1.
    9900012    2    1    2    0    0  0.24860767937E+01 -0.32220355923E+02 -0.24674556566E+02  0.50528860126E+02  0.30000000838E+02 0.  0.
         12    1    1    2    0    0 -0.24860767937E+01  0.32220355923E+02  0.24674556566E+02  0.40659139874E+02  0.00000000000E+00 0. -1.
         11    1    3    3    0    0  0.61574334135E+00 -0.22129833054E+02 -0.54454894275E+01  0.22798289546E+02  0.51100000000E-03 0. -1.
        -11    1    3    3    0    0 -0.10686781730E+01 -0.13086428189E+02 -0.19518503336E+02  0.23523788991E+02  0.51100000000E-03 0.  1.
        -12    1    3    3    0    0  0.29390116253E+01  0.29959053200E+01  0.28943619754E+00  0.42067815884E+01  0.00000000000E+00 0.  1.
</event>
<event>
 7    1  0.5329250E-013  0.5052884E+02  0.7816164E-02  0.1300439E+00
        -11   -1    0    0    0    0  0.00000000000E+00  0.00000000000E+00  0.45593999997E+02  0.45594000000E+02  0.51100000000E-03 0.  1.
         11   -1    0    0    0    0 -0.00000000000E+00 -0.00000000000E+00 -0.45593999997E+02  0.45594000000E+02  0.51100000000E-03 0. -1.
    9900012    2    1    2    0    0  0.19905244456E+00  0.78256955349E+01  0.39898449666E+02  0.50528838446E+02  0.29999934942E+02 0.  0.
         12    1    1    2    0    0 -0.19905244456E+00 -0.78256955349E+01 -0.39898449666E+02  0.40659161554E+02  0.00000000000E+00 0. -1.
         11    1    3    3    0    0  0.54790757173E+01  0.66997404898E+01  0.65422017701E+00  0.86795620655E+01  0.51100000000E-03 0. -1.
        -11    1    3    3    0    0  0.83016121926E-01  0.66418687401E+01  0.14782785172E+02  0.16206543424E+02  0.51100000000E-03 0.  1.
         12    1    3    3    0    0 -0.53630393947E+01 -0.55159136951E+01  0.24461444317E+02  0.25642732957E+02  0.00000000000E+00 0. -1.
</event>
<event>
 7    1  0.5329250E-013  0.5052885E+02  0.7816164E-02  0.1300439E+00
        -11   -1    0    0    0    0  0.00000000000E+00  0.00000000000E+00  0.45593999997E+02  0.45594000000E+02  0.51100000000E-03 0. -1.
         11   -1    0    0    0    0 -0.00000000000E+00 -0.00000000000E+00 -0.45593999997E+02  0.45594000000E+02  0.51100000000E-03 0.  1.
    9900012    2    1    2    0    0  0.31745346748E+02  0.61988898827E+01  0.24636833364E+02  0.50528845629E+02  0.29999956773E+02 0.  0.
         12    1    1    2    0    0 -0.31745346748E+02 -0.61988898827E+01 -0.24636833364E+02  0.40659154371E+02  0.00000000000E+00 0. -1.
         11    1    3    3    0    0  0.25993613993E+01 -0.54931678255E+00  0.12162758555E+02  0.12449543146E+02  0.51100000000E-03 0. -1.
        -11    1    3    3    0    0  0.23384141129E+02 -0.18825808980E+01  0.14397162856E+02  0.27525269585E+02  0.51100000000E-03 0.  1.
         12    1    3    3    0    0  0.57618442206E+01  0.86307875632E+01 -0.19230880462E+01  0.10554032898E+02  0.00000000000E+00 0. -1.
</event>
<event>
 7    1  0.5329250E-013  0.5052885E+02  0.7816164E-02  0.1300439E+00
        -11   -1    0    0    0    0  0.00000000000E+00  0.00000000000E+00  0.45593999997E+02  0.45594000000E+02  0.51100000000E-03 0.  1.
         11   -1    0    0    0    0 -0.00000000000E+00 -0.00000000000E+00 -0.45593999997E+02  0.45594000000E+02  0.51100000000E-03 0. -1.
    9900012    2    1    2    0    0  0.21157105743E+02 -0.14195662990E+02  0.31686375695E+02  0.50528851265E+02  0.29999973906E+02 0.  0.
         12    1    1    2    0    0 -0.21157105743E+02  0.14195662990E+02 -0.31686375695E+02  0.40659148735E+02  0.00000000000E+00 0. -1.
         11    1    3    3    0    0  0.68736457264E+01  0.35091782235E+00  0.76814931359E+01  0.10313849230E+02  0.51100000000E-03 0. -1.
        -11    1    3    3    0    0  0.15426043130E+02 -0.17644772108E+02  0.27002472915E+02  0.35755200086E+02  0.51100000000E-03 0.  1.
         12    1    3    3    0    0 -0.11425831135E+01  0.30981912956E+01 -0.29975903564E+01  0.44598019485E+01  0.00000000000E+00 0. -1.
</event>
<event>
 7    1  0.5329250E-013  0.5052886E+02  0.7816164E-02  0.1300439E+00
        -11   -1    0    0    0    0  0.00000000000E+00  0.00000000000E+00  0.45593999997E+02  0.45594000000E+02  0.51100000000E-03 0.  1.
         11   -1    0    0    0    0 -0.00000000000E+00 -0.00000000000E+00 -0.45593999997E+02  0.45594000000E+02  0.51100000000E-03 0. -1.
    9900012    2    1    2    0    0  0.17600274763E+02 -0.36638904129E+02 -0.99337028657E+00  0.50528858936E+02  0.29999997222E+02 0.  0.
         12    1    1    2    0    0 -0.17600274763E+02  0.36638904129E+02  0.99337028657E+00  0.40659141064E+02  0.00000000000E+00 0. -1.
         11    1    3    3    0    0  0.13269815883E+02 -0.62029573133E+01  0.11812057952E+01  0.14695575538E+02  0.51100000000E-03 0. -1.
        -11    1    3    3    0    0  0.10839187096E+02 -0.22408369187E+02  0.13107771814E+01  0.24926715058E+02  0.51100000000E-03 0.  1.
         12    1    3    3    0    0 -0.65087282159E+01 -0.80275776296E+01 -0.34853532631E+01  0.10906568340E+02  0.00000000000E+00 0. -1.
</event>
<event>
 7    1  0.5329250E-013  0.5052886E+02  0.7816164E-02  0.1300439E+00
        -11   -1    0    0    0    0  0.00000000000E+00  0.00000000000E+00  0.45593999997E+02  0.45594000000E+02  0.51100000000E-03 0.  1.
         11   -1    0    0    0    0 -0.00000000000E+00 -0.00000000000E+00 -0.45593999997E+02  0.45594000000E+02  0.51100000000E-03 0. -1.
    9900012    2    1    2    0    0  0.88431969158E-01  0.37799534212E+02  0.14978424930E+02  0.50528858098E+02  0.29999994673E+02 0.  0.
         12    1    1    2    0    0 -0.88431969158E-01 -0.37799534212E+02 -0.14978424930E+02  0.40659141902E+02  0.00000000000E+00 0. -1.
         11    1    3    3    0    0 -0.11323232752E+02  0.22214098933E+02  0.62784268631E+01  0.25711873434E+02  0.51100000000E-03 0. -1.
        -11    1    3    3    0    0 -0.17988871361E+01  0.64837735956E+01  0.36517792893E+00  0.67385955620E+01  0.51100000000E-03 0.  1.
        -12    1    3    3    0    0  0.13210551857E+02  0.91016616836E+01  0.83348201377E+01  0.18078389101E+02  0.00000000000E+00 0.  1.
</event>
<event>
 7    1  0.5329250E-013  0.5052885E+02  0.7816164E-02  0.1300439E+00
        -11   -1    0    0    0    0  0.00000000000E+00  0.00000000000E+00  0.45593999997E+02  0.45594000000E+02  0.51100000000E-03 0.  1.
         11   -1    0    0    0    0 -0.00000000000E+00 -0.00000000000E+00 -0.45593999997E+02  0.45594000000E+02  0.51100000000E-03 0. -1.
    9900012    2    1    2    0    0  0.18458150176E+02  0.16005764618E+01  0.36192554192E+02  0.50528854265E+02  0.29999983024E+02 0.  0.
         12    1    1    2    0    0 -0.18458150176E+02 -0.16005764618E+01 -0.36192554192E+02  0.40659145735E+02  0.00000000000E+00 0. -1.
         11    1    3    3    0    0  0.35729662218E+01  0.23929097083E+01  0.19528353736E+02  0.19996217252E+02  0.51100000000E-03 0. -1.
        -11    1    3    3    0    0  0.16423550567E+02 -0.54821912016E+01  0.18432967963E+02  0.25289557960E+02  0.51100000000E-03 0.  1.
         12    1    3    3    0    0 -0.15383666128E+01  0.46898579551E+01 -0.17687675063E+01  0.52430790539E+01  0.00000000000E+00 0. -1.
</event>
<event>
 7    1  0.5329250E-013  0.5052886E+02  0.7816164E-02  0.1300439E+00
        -11   -1    0    0    0    0  0.00000000000E+00  0.00000000000E+00  0.45593999997E+02  0.45594000000E+02  0.51100000000E-03 0.  1.
         11   -1    0    0    0    0 -0.00000000000E+00 -0.00000000000E+00 -0.45593999997E+02  0.45594000000E+02  0.51100000000E-03 0. -1.
    9900012    2    1    2    0    0  0.26945845470E+02 -0.20099028856E+02  0.22871732790E+02  0.50528859455E+02  0.29999998799E+02 0.  0.
         12    1    1    2    0    0 -0.26945845470E+02  0.20099028856E+02 -0.22871732790E+02  0.40659140545E+02  0.00000000000E+00 0. -1.
         11    1    3    3    0    0  0.20937719612E+02 -0.74185698067E+01  0.16005752681E+02  0.27378959068E+02  0.51100000000E-03 0. -1.
        -11    1    3    3    0    0  0.53664590820E+01 -0.15708413801E+02  0.94646515181E+01  0.19108447761E+02  0.51100000000E-03 0.  1.
         12    1    3    3    0    0  0.64166677610E+00  0.30279547518E+01 -0.25986714090E+01  0.40414526253E+01  0.00000000000E+00 0. -1.
</event>
<event>
 7    1  0.5329250E-013  0.5052884E+02  0.7816164E-02  0.1300439E+00
        -11   -1    0    0    0    0  0.00000000000E+00  0.00000000000E+00  0.45593999997E+02  0.45594000000E+02  0.51100000000E-03 0.  1.
         11   -1    0    0    0    0 -0.00000000000E+00 -0.00000000000E+00 -0.45593999997E+02  0.45594000000E+02  0.51100000000E-03 0. -1.
    9900012    2    1    2    0    0 -0.37973016069E+02 -0.13920203414E+02 -0.41767716160E+01  0.50528838258E+02  0.29999934369E+02 0.  0.
         12    1    1    2    0    0  0.37973016069E+02  0.13920203414E+02  0.41767716160E+01  0.40659161742E+02  0.00000000000E+00 0. -1.
         11    1    3    3    0    0  0.34774820945E+00 -0.26612720541E+01 -0.10870887101E+01  0.28956967880E+01  0.51100000000E-03 0. -1.
        -11    1    3    3    0    0 -0.90160830366E+01 -0.10828255293E+02  0.81106573636E+01  0.16258032758E+02  0.51100000000E-03 0.  1.
        -12    1    3    3    0    0 -0.29304681242E+02 -0.43067606626E+00 -0.11200340270E+02  0.31375108712E+02  0.00000000000E+00 0.  1.
</event>
<event>
 7    1  0.5329250E-013  0.5052887E+02  0.7816164E-02  0.1300439E+00
        -11   -1    0    0    0    0  0.00000000000E+00  0.00000000000E+00  0.45593999997E+02  0.45594000000E+02  0.51100000000E-03 0. -1.
         11   -1    0    0    0    0 -0.00000000000E+00 -0.00000000000E+00 -0.45593999997E+02  0.45594000000E+02  0.51100000000E-03 0.  1.
    9900012    2    1    2    0    0  0.35421882823E+01 -0.37065764711E+02  0.16332374287E+02  0.50528874809E+02  0.30000045470E+02 0.  0.
         12    1    1    2    0    0 -0.35421882823E+01  0.37065764711E+02 -0.16332374287E+02  0.40659125191E+02  0.00000000000E+00 0. -1.
         11    1    3    3    0    0 -0.43238444910E+01 -0.10072104494E+02  0.80179596146E+01  0.13580522698E+02  0.51100000000E-03 0.  1.
        -11    1    3    3    0    0  0.98310411528E+01 -0.22441079239E+02  0.14922464385E+02  0.28686780076E+02  0.51100000000E-03 0. -1.
         12    1    3    3    0    0 -0.19650083795E+01 -0.45525809774E+01 -0.66080497120E+01  0.82615720347E+01  0.00000000000E+00 0. -1.
</event>
<event>
 7    1  0.5329250E-013  0.5052886E+02  0.7816164E-02  0.1300439E+00
        -11   -1    0    0    0    0  0.00000000000E+00  0.00000000000E+00  0.45593999997E+02  0.45594000000E+02  0.51100000000E-03 0. -1.
         11   -1    0    0    0    0 -0.00000000000E+00 -0.00000000000E+00 -0.45593999997E+02  0.45594000000E+02  0.51100000000E-03 0.  1.
    9900012    2    1    2    0    0 -0.17756995301E+02  0.28395819480E+02  0.23054981455E+02  0.50528860610E+02  0.30000002309E+02 0.  0.
         12    1    1    2    0    0  0.17756995301E+02 -0.28395819480E+02 -0.23054981455E+02  0.40659139390E+02  0.00000000000E+00 0. -1.
         11    1    3    3    0    0 -0.24386737888E+00 -0.25791256742E+01  0.48052336582E+01  0.54590870402E+01  0.51100000000E-03 0. -1.
        -11    1    3    3    0    0 -0.37044332723E+01  0.32762757763E+01 -0.44777769927E+01  0.66713788596E+01  0.51100000000E-03 0.  1.
        -12    1    3    3    0    0 -0.13808694650E+02  0.27698669378E+02  0.22727524790E+02  0.38398394710E+02  0.00000000000E+00 0.  1.
</event>
<event>
 7    1  0.5329250E-013  0.5052888E+02  0.7816164E-02  0.1300439E+00
        -11   -1    0    0    0    0  0.00000000000E+00  0.00000000000E+00  0.45593999997E+02  0.45594000000E+02  0.51100000000E-03 0.  1.
         11   -1    0    0    0    0 -0.00000000000E+00 -0.00000000000E+00 -0.45593999997E+02  0.45594000000E+02  0.51100000000E-03 0. -1.
    9900012    2    1    2    0    0 -0.10299869796E+02 -0.25253518040E+02  0.30155213876E+02  0.50528875377E+02  0.30000047195E+02 0.  0.
         12    1    1    2    0    0  0.10299869796E+02  0.25253518040E+02 -0.30155213876E+02  0.40659124623E+02  0.00000000000E+00 0. -1.
         11    1    3    3    0    0  0.48087917945E+01 -0.18746075784E+01  0.47081983290E+01  0.69861122137E+01  0.51100000000E-03 0. -1.
        -11    1    3    3    0    0 -0.26264981773E+01 -0.12777386375E+02  0.23726466534E+02  0.27075917523E+02  0.51100000000E-03 0.  1.
        -12    1    3    3    0    0 -0.12482163413E+02 -0.10601524087E+02  0.17205490129E+01  0.16466845641E+02  0.00000000000E+00 0.  1.
</event>
<event>
 7    1  0.5329250E-013  0.5052885E+02  0.7816164E-02  0.1300439E+00
        -11   -1    0    0    0    0  0.00000000000E+00  0.00000000000E+00  0.45593999997E+02  0.45594000000E+02  0.51100000000E-03 0. -1.
         11   -1    0    0    0    0 -0.00000000000E+00 -0.00000000000E+00 -0.45593999997E+02  0.45594000000E+02  0.51100000000E-03 0.  1.
    9900012    2    1    2    0    0  0.32468871792E+01  0.40526624364E+02 -0.46560432639E+00  0.50528851631E+02  0.29999975017E+02 0.  0.
         12    1    1    2    0    0 -0.32468871792E+01 -0.40526624364E+02  0.46560432639E+00  0.40659148369E+02  0.00000000000E+00 0. -1.
         11    1    3    3    0    0 -0.75791654772E+00  0.29980347920E+02 -0.49455336482E+01  0.30394966725E+02  0.51100000000E-03 0.  1.
        -11    1    3    3    0    0  0.35593504031E+01  0.12941835709E+02 -0.16633328885E+01  0.13525042084E+02  0.51100000000E-03 0. -1.
         12    1    3    3    0    0  0.44545332383E+00 -0.23955592648E+01  0.61432622102E+01  0.66088428214E+01  0.00000000000E+00 0. -1.
</event>
<event>
 7    1  0.5329250E-013  0.5052886E+02  0.7816164E-02  0.1300439E+00
        -11   -1    0    0    0    0  0.00000000000E+00  0.00000000000E+00  0.45593999997E+02  0.45594000000E+02  0.51100000000E-03 0. -1.
         11   -1    0    0    0    0 -0.00000000000E+00 -0.00000000000E+00 -0.45593999997E+02  0.45594000000E+02  0.51100000000E-03 0.  1.
    9900012    2    1    2    0    0  0.13183635902E+02  0.23573593292E+02 -0.30391500065E+02  0.50528857947E+02  0.29999994214E+02 0.  0.
         12    1    1    2    0    0 -0.13183635902E+02 -0.23573593292E+02  0.30391500065E+02  0.40659142053E+02  0.00000000000E+00 0. -1.
         11    1    3    3    0    0 -0.30057920058E+01 -0.25478365508E+01  0.19597392310E-02  0.39403376471E+01  0.51100000000E-03 0. -1.
        -11    1    3    3    0    0  0.11043657721E+02  0.47504437723E+01 -0.17088810735E+02  0.20893935592E+02  0.51100000000E-03 0.  1.
        -12    1    3    3    0    0  0.51457701861E+01  0.21370986071E+02 -0.13304649069E+02  0.25694584708E+02  0.00000000000E+00 0.  1.
</event>
<event>
 7    1  0.5329250E-013  0.5052886E+02  0.7816164E-02  0.1300439E+00
        -11   -1    0    0    0    0  0.00000000000E+00  0.00000000000E+00  0.45593999997E+02  0.45594000000E+02  0.51100000000E-03 0. -1.
         11   -1    0    0    0    0 -0.00000000000E+00 -0.00000000000E+00 -0.45593999997E+02  0.45594000000E+02  0.51100000000E-03 0.  1.
    9900012    2    1    2    0    0 -0.18524946934E+02 -0.19429610811E+02 -0.30536567402E+02  0.50528863463E+02  0.30000010983E+02 0.  0.
         12    1    1    2    0    0  0.18524946934E+02  0.19429610811E+02  0.30536567402E+02  0.40659136537E+02  0.00000000000E+00 0. -1.
         11    1    3    3    0    0 -0.30147149164E+00 -0.37207422815E+01  0.39073247581E+00  0.37533292307E+01  0.51100000000E-03 0. -1.
        -11    1    3    3    0    0 -0.87407425471E+00  0.66061830759E+01 -0.42175312618E+01  0.78862684991E+01  0.51100000000E-03 0.  1.
        -12    1    3    3    0    0 -0.17349401188E+02 -0.22315051605E+02 -0.26709768616E+02  0.38889265733E+02  0.00000000000E+00 0.  1.
</event>
<event>
 7    1  0.5329250E-013  0.5052887E+02  0.7816164E-02  0.1300439E+00
        -11   -1    0    0    0    0  0.00000000000E+00  0.00000000000E+00  0.45593999997E+02  0.45594000000E+02  0.51100000000E-03 0.  1.
         11   -1    0    0    0    0 -0.00000000000E+00 -0.00000000000E+00 -0.45593999997E+02  0.45594000000E+02  0.51100000000E-03 0. -1.
    9900012    2    1    2    0    0 -0.16261442975E+02 -0.11372228578E+02  0.35488060586E+02  0.50528873661E+02  0.30000041981E+02 0.  0.
         12    1    1    2    0    0  0.16261442975E+02  0.11372228578E+02 -0.35488060586E+02  0.40659126339E+02  0.00000000000E+00 0. -1.
         11    1    3    3    0    0  0.16069885752E+01 -0.35509510920E+01 -0.53515548806E+00  0.39342162620E+01  0.51100000000E-03 0. -1.
        -11    1    3    3    0    0  0.31621119300E+01  0.37397473271E+01  0.29012590838E+01  0.56922725216E+01  0.51100000000E-03 0.  1.
         12    1    3    3    0    0 -0.21030543480E+02 -0.11561024813E+02  0.33121956991E+02  0.40902384878E+02  0.00000000000E+00 0. -1.
</event>
<event>
 7    1  0.5329250E-013  0.5052883E+02  0.7816164E-02  0.1300439E+00
        -11   -1    0    0    0    0  0.00000000000E+00  0.00000000000E+00  0.45593999997E+02  0.45594000000E+02  0.51100000000E-03 0. -1.
         11   -1    0    0    0    0 -0.00000000000E+00 -0.00000000000E+00 -0.45593999997E+02  0.45594000000E+02  0.51100000000E-03 0.  1.
    9900012    2    1    2    0    0 -0.39299885897E+02 -0.75475572098E+01  0.71917811038E+01  0.50528826781E+02  0.29999899484E+02 0.  0.
         12    1    1    2    0    0  0.39299885897E+02  0.75475572098E+01 -0.71917811038E+01  0.40659173219E+02  0.00000000000E+00 0. -1.
         11    1    3    3    0    0 -0.28949730502E+01  0.67985588415E+01  0.22128902067E+01  0.77135046905E+01  0.51100000000E-03 0. -1.
        -11    1    3    3    0    0 -0.28239734644E+01 -0.58715474323E+01  0.49485081777E+01  0.81815419588E+01  0.51100000000E-03 0.  1.
        -12    1    3    3    0    0 -0.33580939383E+02 -0.84745686189E+01  0.30382719397E-01  0.34633780132E+02  0.00000000000E+00 0.  1.
</event>
<event>
 7    1  0.5329250E-013  0.5052886E+02  0.7816164E-02  0.1300439E+00
        -11   -1    0    0    0    0  0.00000000000E+00  0.00000000000E+00  0.45593999997E+02  0.45594000000E+02  0.51100000000E-03 0.  1.
         11   -1    0    0    0    0 -0.00000000000E+00 -0.00000000000E+00 -0.45593999997E+02  0.45594000000E+02  0.51100000000E-03 0. -1.
    9900012    2    1    2    0    0  0.12774033371E+02  0.63017768958E+01  0.38082501862E+02  0.50528864880E+02  0.30000015291E+02 0.  0.
         12    1    1    2    0    0 -0.12774033371E+02 -0.63017768958E+01 -0.38082501862E+02  0.40659135120E+02  0.00000000000E+00 0. -1.
         11    1    3    3    0    0  0.14883565265E+01  0.97917556463E+01  0.55880558692E+01  0.11371897487E+02  0.51100000000E-03 0. -1.
        -11    1    3    3    0    0 -0.11272896822E+00  0.40501791203E+01  0.20735990077E+02  0.21128131566E+02  0.51100000000E-03 0.  1.
        -12    1    3    3    0    0  0.11398405813E+02 -0.75401578707E+01  0.11758455916E+02  0.18028835828E+02  0.00000000000E+00 0.  1.
</event>
<event>
 7    1  0.5329250E-013  0.5052886E+02  0.7816164E-02  0.1300439E+00
        -11   -1    0    0    0    0  0.00000000000E+00  0.00000000000E+00  0.45593999997E+02  0.45594000000E+02  0.51100000000E-03 0.  1.
         11   -1    0    0    0    0 -0.00000000000E+00 -0.00000000000E+00 -0.45593999997E+02  0.45594000000E+02  0.51100000000E-03 0. -1.
    9900012    2    1    2    0    0  0.33309674020E+02  0.93217144818E+01  0.21371411132E+02  0.50528856404E+02  0.29999989525E+02 0.  0.
         12    1    1    2    0    0 -0.33309674020E+02 -0.93217144818E+01 -0.21371411132E+02  0.40659143596E+02  0.00000000000E+00 0. -1.
         11    1    3    3    0    0  0.19664925690E+02  0.31495379756E+01 -0.21154202249E+00  0.19916667446E+02  0.51100000000E-03 0. -1.
        -11    1    3    3    0    0  0.14684875419E+02 -0.20880416762E+00  0.17962963029E+02  0.23202525860E+02  0.51100000000E-03 0.  1.
        -12    1    3    3    0    0 -0.10401270883E+01  0.63809806739E+01  0.36199901248E+01  0.74096630979E+01  0.00000000000E+00 0.  1.
</event>
<event>
 7    1  0.5329250E-013  0.5052887E+02  0.7816164E-02  0.1300439E+00
        -11   -1    0    0    0    0  0.00000000000E+00  0.00000000000E+00  0.45593999997E+02  0.45594000000E+02  0.51100000000E-03 0.  1.
         11   -1    0    0    0    0 -0.00000000000E+00 -0.00000000000E+00 -0.45593999997E+02  0.45594000000E+02  0.51100000000E-03 0. -1.
    9900012    2    1    2    0    0 -0.35583965365E+02  0.14724378658E+02  0.13043741179E+02  0.50528866931E+02  0.30000021525E+02 0.  0.
         12    1    1    2    0    0  0.35583965365E+02 -0.14724378658E+02 -0.13043741179E+02  0.40659133069E+02  0.00000000000E+00 0. -1.
         11    1    3    3    0    0 -0.14040316672E+02  0.47497803461E+00  0.23961699560E+01  0.14251235985E+02  0.51100000000E-03 0. -1.
        -11    1    3    3    0    0 -0.15566677462E+02 -0.28791866196E+01  0.13385878030E+01  0.15887195484E+02  0.51100000000E-03 0.  1.
        -12    1    3    3    0    0 -0.59769712316E+01  0.17128587243E+02  0.93089834195E+01  0.20390435462E+02  0.00000000000E+00 0.  1.
</event>
<event>
 7    1  0.5329250E-013  0.5052890E+02  0.7816164E-02  0.1300439E+00
        -11   -1    0    0    0    0  0.00000000000E+00  0.00000000000E+00  0.45593999997E+02  0.45594000000E+02  0.51100000000E-03 0.  1.
         11   -1    0    0    0    0 -0.00000000000E+00 -0.00000000000E+00 -0.45593999997E+02  0.45594000000E+02  0.51100000000E-03 0. -1.
    9900012    2    1    2    0    0  0.32802850813E+02  0.22832545197E+02  0.74706429262E+01  0.50528897116E+02  0.30000113273E+02 0.  0.
         12    1    1    2    0    0 -0.32802850813E+02 -0.22832545197E+02 -0.74706429262E+01  0.40659102884E+02  0.00000000000E+00 0. -1.
         11    1    3    3    0    0 -0.15060305282E+01 -0.13515400970E+01  0.18231658655E+01  0.27237332138E+01  0.51100000000E-03 0. -1.
        -11    1    3    3    0    0  0.24615137762E+02  0.40898055714E+01  0.52094323517E+01  0.25490580659E+02  0.51100000000E-03 0.  1.
         12    1    3    3    0    0  0.96937435788E+01  0.20094279723E+02  0.43804470894E+00  0.22314583243E+02  0.00000000000E+00 0. -1.
</event>
<event>
 7    1  0.5329250E-013  0.5052885E+02  0.7816164E-02  0.1300439E+00
        -11   -1    0    0    0    0  0.00000000000E+00  0.00000000000E+00  0.45593999997E+02  0.45594000000E+02  0.51100000000E-03 0.  1.
         11   -1    0    0    0    0 -0.00000000000E+00 -0.00000000000E+00 -0.45593999997E+02  0.45594000000E+02  0.51100000000E-03 0. -1.
    9900012    2    1    2    0    0  0.10656860396E+02 -0.32942875832E+02  0.21315832523E+02  0.50528850258E+02  0.29999970844E+02 0.  0.
         12    1    1    2    0    0 -0.10656860396E+02  0.32942875832E+02 -0.21315832523E+02  0.40659149742E+02  0.00000000000E+00 0. -1.
         11    1    3    3    0    0  0.28077782368E+01 -0.17136696054E+02  0.34497400149E+01  0.17704538309E+02  0.51100000000E-03 0. -1.
        -11    1    3    3    0    0 -0.70107483069E+01 -0.21381256790E+01  0.52693235597E+01  0.90270673134E+01  0.51100000000E-03 0.  1.
         12    1    3    3    0    0  0.14859830466E+02 -0.13668054099E+02  0.12596768949E+02  0.23797244636E+02  0.00000000000E+00 0. -1.
</event>
<event>
 7    1  0.5329250E-013  0.5052887E+02  0.7816164E-02  0.1300439E+00
        -11   -1    0    0    0    0  0.00000000000E+00  0.00000000000E+00  0.45593999997E+02  0.45594000000E+02  0.51100000000E-03 0.  1.
         11   -1    0    0    0    0 -0.00000000000E+00 -0.00000000000E+00 -0.45593999997E+02  0.45594000000E+02  0.51100000000E-03 0. -1.
    9900012    2    1    2    0    0  0.38685588019E+02 -0.11330767435E+02 -0.53107319324E+01  0.50528869602E+02  0.30000029643E+02 0.  0.
         12    1    1    2    0    0 -0.38685588019E+02  0.11330767435E+02  0.53107319324E+01  0.40659130398E+02  0.00000000000E+00 0. -1.
         11    1    3    3    0    0  0.71906897531E+01 -0.57162493270E+01  0.28223142092E+01  0.96097337763E+01  0.51100000000E-03 0.  1.
        -11    1    3    3    0    0 -0.36172476885E+01  0.49265524077E+00  0.15831187254E+01  0.39791274402E+01  0.51100000000E-03 0. -1.
         12    1    3    3    0    0  0.35112145954E+02 -0.61071733485E+01 -0.97161648669E+01  0.36940008386E+02  0.00000000000E+00 0. -1.
</event>
<event>
 7    1  0.5329250E-013  0.5052892E+02  0.7816164E-02  0.1300439E+00
        -11   -1    0    0    0    0  0.00000000000E+00  0.00000000000E+00  0.45593999997E+02  0.45594000000E+02  0.51100000000E-03 0.  1.
         11   -1    0    0    0    0 -0.00000000000E+00 -0.00000000000E+00 -0.45593999997E+02  0.45594000000E+02  0.51100000000E-03 0. -1.
    9900012    2    1    2    0    0 -0.66665488614E+01  0.84682862850E+00  0.40099887088E+02  0.50528918149E+02  0.30000177206E+02 0.  0.
         12    1    1    2    0    0  0.66665488614E+01 -0.84682862850E+00 -0.40099887088E+02  0.40659081851E+02  0.00000000000E+00 0. -1.
         11    1    3    3    0    0  0.38410391930E+01  0.37001896841E+01  0.34631131468E+01  0.63590988913E+01  0.51100000000E-03 0. -1.
        -11    1    3    3    0    0 -0.63418822675E+01  0.95417429857E+01  0.14788570498E+02  0.18707382167E+02  0.51100000000E-03 0.  1.
        -12    1    3    3    0    0 -0.41657057870E+01 -0.12395104041E+02  0.21848203443E+02  0.25462437091E+02  0.00000000000E+00 0.  1.
</event>
<event>
 7    1  0.5329250E-013  0.5052886E+02  0.7816164E-02  0.1300439E+00
        -11   -1    0    0    0    0  0.00000000000E+00  0.00000000000E+00  0.45593999997E+02  0.45594000000E+02  0.51100000000E-03 0.  1.
         11   -1    0    0    0    0 -0.00000000000E+00 -0.00000000000E+00 -0.45593999997E+02  0.45594000000E+02  0.51100000000E-03 0. -1.
    9900012    2    1    2    0    0  0.23298171437E+02 -0.14290852083E+02  0.30102034965E+02  0.50528858905E+02  0.29999997127E+02 0.  0.
         12    1    1    2    0    0 -0.23298171437E+02  0.14290852083E+02 -0.30102034965E+02  0.40659141095E+02  0.00000000000E+00 0. -1.
         11    1    3    3    0    0 -0.42251227708E+01  0.10626211792E+01  0.11772942221E+02  0.12553206562E+02  0.51100000000E-03 0. -1.
        -11    1    3    3    0    0  0.16399587568E+02 -0.34200883681E+01  0.72411653232E+01  0.18250423347E+02  0.51100000000E-03 0.  1.
        -12    1    3    3    0    0  0.11123706639E+02 -0.11933384894E+02  0.11087927422E+02  0.19725228996E+02  0.00000000000E+00 0.  1.
</event>
<event>
 7    1  0.5329250E-013  0.5052886E+02  0.7816164E-02  0.1300439E+00
        -11   -1    0    0    0    0  0.00000000000E+00  0.00000000000E+00  0.45593999997E+02  0.45594000000E+02  0.51100000000E-03 0.  1.
         11   -1    0    0    0    0 -0.00000000000E+00 -0.00000000000E+00 -0.45593999997E+02  0.45594000000E+02  0.51100000000E-03 0. -1.
    9900012    2    1    2    0    0  0.21085296403E+02  0.11090826444E+02  0.32947986547E+02  0.50528856218E+02  0.29999988959E+02 0.  0.
         12    1    1    2    0    0 -0.21085296403E+02 -0.11090826444E+02 -0.32947986547E+02  0.40659143782E+02  0.00000000000E+00 0. -1.
         11    1    3    3    0    0 -0.14952078731E+01  0.52846201183E+01  0.84474558224E+01  0.10075830810E+02  0.51100000000E-03 0. -1.
        -11    1    3    3    0    0  0.52214260164E+01  0.38594271643E+00 -0.40385568547E+01  0.66122751875E+01  0.51100000000E-03 0.  1.
        -12    1    3    3    0    0  0.17359078259E+02  0.54202636090E+01  0.28539087579E+02  0.33840750220E+02  0.00000000000E+00 0.  1.
</event>
<event>
 7    1  0.5329250E-013  0.5052886E+02  0.7816164E-02  0.1300439E+00
        -11   -1    0    0    0    0  0.00000000000E+00  0.00000000000E+00  0.45593999997E+02  0.45594000000E+02  0.51100000000E-03 0.  1.
         11   -1    0    0    0    0 -0.00000000000E+00 -0.00000000000E+00 -0.45593999997E+02  0.45594000000E+02  0.51100000000E-03 0. -1.
    9900012    2    1    2    0    0  0.82784249187E+00  0.75458058008E+01  0.39944221963E+02  0.50528863553E+02  0.30000011255E+02 0.  0.
         12    1    1    2    0    0 -0.82784249187E+00 -0.75458058008E+01 -0.39944221963E+02  0.40659136447E+02  0.00000000000E+00 0. -1.
         11    1    3    3    0    0 -0.18042518285E+01 -0.37239810454E+00 -0.19282404210E+01  0.26668551501E+01  0.51100000000E-03 0. -1.
        -11    1    3    3    0    0 -0.67272899611E+01 -0.22543909743E+01  0.25327180321E+02  0.26302181889E+02  0.51100000000E-03 0.  1.
         12    1    3    3    0    0  0.93593842815E+01  0.10172594880E+02  0.16545282064E+02  0.21559826513E+02  0.00000000000E+00 0. -1.
</event>
<event>
 7    1  0.5329250E-013  0.5052886E+02  0.7816164E-02  0.1300439E+00
        -11   -1    0    0    0    0  0.00000000000E+00  0.00000000000E+00  0.45593999997E+02  0.45594000000E+02  0.51100000000E-03 0. -1.
         11   -1    0    0    0    0 -0.00000000000E+00 -0.00000000000E+00 -0.45593999997E+02  0.45594000000E+02  0.51100000000E-03 0.  1.
    9900012    2    1    2    0    0  0.11525205704E+02  0.35977549807E+02  0.15031676399E+02  0.50528858937E+02  0.29999997225E+02 0.  0.
         12    1    1    2    0    0 -0.11525205704E+02 -0.35977549807E+02 -0.15031676399E+02  0.40659141063E+02  0.00000000000E+00 0. -1.
         11    1    3    3    0    0 -0.12245666573E+01  0.11742620326E+01  0.10846121307E+02  0.10978014506E+02  0.51100000000E-03 0. -1.
        -11    1    3    3    0    0  0.15614387096E+01  0.20237181941E+01 -0.32405604730E+01  0.41273185742E+01  0.51100000000E-03 0.  1.
        -12    1    3    3    0    0  0.11188333651E+02  0.32779569580E+02  0.74261155649E+01  0.35423525857E+02  0.00000000000E+00 0.  1.
</event>
<event>
 7    1  0.5329250E-013  0.5052882E+02  0.7816164E-02  0.1300439E+00
        -11   -1    0    0    0    0  0.00000000000E+00  0.00000000000E+00  0.45593999997E+02  0.45594000000E+02  0.51100000000E-03 0.  1.
         11   -1    0    0    0    0 -0.00000000000E+00 -0.00000000000E+00 -0.45593999997E+02  0.45594000000E+02  0.51100000000E-03 0. -1.
    9900012    2    1    2    0    0 -0.31488992752E+02 -0.25407988093E+02  0.40057820849E+01  0.50528821287E+02  0.29999882784E+02 0.  0.
         12    1    1    2    0    0  0.31488992752E+02  0.25407988093E+02 -0.40057820849E+01  0.40659178713E+02  0.00000000000E+00 0. -1.
         11    1    3    3    0    0 -0.10617983777E+02 -0.14699278116E+02 -0.79721948161E+01  0.19808236849E+02  0.51100000000E-03 0. -1.
        -11    1    3    3    0    0 -0.46880018104E+01 -0.10875931330E+02  0.71399952417E+01  0.13829055484E+02  0.51100000000E-03 0.  1.
         12    1    3    3    0    0 -0.16183007165E+02  0.16722135283E+00  0.48379816593E+01  0.16891528954E+02  0.00000000000E+00 0. -1.
</event>
<event>
 7    1  0.5329250E-013  0.5052886E+02  0.7816164E-02  0.1300439E+00
        -11   -1    0    0    0    0  0.00000000000E+00  0.00000000000E+00  0.45593999997E+02  0.45594000000E+02  0.51100000000E-03 0.  1.
         11   -1    0    0    0    0 -0.00000000000E+00 -0.00000000000E+00 -0.45593999997E+02  0.45594000000E+02  0.51100000000E-03 0. -1.
    9900012    2    1    2    0    0  0.34434904734E+02  0.21543950026E+02  0.18058290362E+01  0.50528862463E+02  0.30000007942E+02 0.  0.
         12    1    1    2    0    0 -0.34434904734E+02 -0.21543950026E+02 -0.18058290362E+01  0.40659137537E+02  0.00000000000E+00 0. -1.
         11    1    3    3    0    0  0.11950467308E+02  0.30856830257E+01  0.37917375336E+01  0.12911714929E+02  0.51100000000E-03 0. -1.
        -11    1    3    3    0    0 -0.10241360888E+01  0.18041476947E+01  0.71091644327E+01  0.74056750418E+01  0.51100000000E-03 0.  1.
         12    1    3    3    0    0  0.23508573515E+02  0.16654119306E+02 -0.90950729301E+01  0.30211472492E+02  0.00000000000E+00 0. -1.
</event>
<event>
 7    1  0.5329250E-013  0.5052886E+02  0.7816164E-02  0.1300439E+00
        -11   -1    0    0    0    0  0.00000000000E+00  0.00000000000E+00  0.45593999997E+02  0.45594000000E+02  0.51100000000E-03 0.  1.
         11   -1    0    0    0    0 -0.00000000000E+00 -0.00000000000E+00 -0.45593999997E+02  0.45594000000E+02  0.51100000000E-03 0. -1.
    9900012    2    1    2    0    0  0.18379408021E+02  0.27673698599E+02  0.23442036774E+02  0.50528864232E+02  0.30000013319E+02 0.  0.
         12    1    1    2    0    0 -0.18379408021E+02 -0.27673698599E+02 -0.23442036774E+02  0.40659135768E+02  0.00000000000E+00 0. -1.
         11    1    3    3    0    0  0.33330070560E+01  0.40277131515E+01 -0.24087504494E+01  0.57561695818E+01  0.51100000000E-03 0. -1.
        -11    1    3    3    0    0  0.16535081245E+02  0.11661217258E+02  0.25681636671E+02  0.32694638124E+02  0.51100000000E-03 0.  1.
         12    1    3    3    0    0 -0.14886802804E+01  0.11984768190E+02  0.16915055253E+00  0.12078056526E+02  0.00000000000E+00 0. -1.
</event>
<event>
 7    1  0.5329250E-013  0.5052886E+02  0.7816164E-02  0.1300439E+00
        -11   -1    0    0    0    0  0.00000000000E+00  0.00000000000E+00  0.45593999997E+02  0.45594000000E+02  0.51100000000E-03 0. -1.
         11   -1    0    0    0    0 -0.00000000000E+00 -0.00000000000E+00 -0.45593999997E+02  0.45594000000E+02  0.51100000000E-03 0.  1.
    9900012    2    1    2    0    0  0.35442907215E+02  0.55716395863E+01 -0.19129108479E+02  0.50528860428E+02  0.30000001757E+02 0.  0.
         12    1    1    2    0    0 -0.35442907215E+02 -0.55716395863E+01  0.19129108479E+02  0.40659139572E+02  0.00000000000E+00 0. -1.
         11    1    3    3    0    0 -0.19431141032E+01 -0.20545228440E+01 -0.14939206271E+01  0.31982113182E+01  0.51100000000E-03 0. -1.
        -11    1    3    3    0    0  0.11529542221E+02  0.84387091463E+01  0.25557588115E+01  0.14514615367E+02  0.51100000000E-03 0.  1.
        -12    1    3    3    0    0  0.25856479098E+02 -0.81254671603E+00 -0.20190946663E+02  0.32816033743E+02  0.00000000000E+00 0.  1.
</event>
<event>
 7    1  0.5329250E-013  0.5052886E+02  0.7816164E-02  0.1300439E+00
        -11   -1    0    0    0    0  0.00000000000E+00  0.00000000000E+00  0.45593999997E+02  0.45594000000E+02  0.51100000000E-03 0.  1.
         11   -1    0    0    0    0 -0.00000000000E+00 -0.00000000000E+00 -0.45593999997E+02  0.45594000000E+02  0.51100000000E-03 0. -1.
    9900012    2    1    2    0    0 -0.75379007592E+01  0.21932295353E+02  0.33396403280E+02  0.50528864749E+02  0.30000014890E+02 0.  0.
         12    1    1    2    0    0  0.75379007592E+01 -0.21932295353E+02 -0.33396403280E+02  0.40659135251E+02  0.00000000000E+00 0. -1.
         11    1    3    3    0    0 -0.64287545324E+01  0.14167832897E+02  0.26350933489E+01  0.15779736723E+02  0.51100000000E-03 0. -1.
        -11    1    3    3    0    0  0.20398099159E+01  0.11207575900E+02  0.19937696523E+02  0.22962628878E+02  0.51100000000E-03 0.  1.
        -12    1    3    3    0    0 -0.31489561428E+01 -0.34431134433E+01  0.10823613408E+02  0.11786499148E+02  0.00000000000E+00 0.  1.
</event>
<event>
 7    1  0.5329250E-013  0.5052886E+02  0.7816164E-02  0.1300439E+00
        -11   -1    0    0    0    0  0.00000000000E+00  0.00000000000E+00  0.45593999997E+02  0.45594000000E+02  0.51100000000E-03 0.  1.
         11   -1    0    0    0    0 -0.00000000000E+00 -0.00000000000E+00 -0.45593999997E+02  0.45594000000E+02  0.51100000000E-03 0. -1.
    9900012    2    1    2    0    0 -0.60176064339E+01  0.29156807819E+02  0.27691774007E+02  0.50528863548E+02  0.30000011240E+02 0.  0.
         12    1    1    2    0    0  0.60176064339E+01 -0.29156807819E+02 -0.27691774007E+02  0.40659136452E+02  0.00000000000E+00 0. -1.
         11    1    3    3    0    0  0.49795653130E+01  0.87211444743E+00  0.25722818386E+00  0.50618989436E+01  0.51100000000E-03 0. -1.
        -11    1    3    3    0    0  0.40406467149E+01  0.12830090716E+02  0.16504288263E+02  0.21291537873E+02  0.51100000000E-03 0.  1.
        -12    1    3    3    0    0 -0.15037818462E+02  0.15454602656E+02  0.10930257559E+02  0.24175426731E+02  0.00000000000E+00 0.  1.
</event>
<event>
 7    1  0.5329250E-013  0.5052887E+02  0.7816164E-02  0.1300439E+00
        -11   -1    0    0    0    0  0.00000000000E+00  0.00000000000E+00  0.45593999997E+02  0.45594000000E+02  0.51100000000E-03 0.  1.
         11   -1    0    0    0    0 -0.00000000000E+00 -0.00000000000E+00 -0.45593999997E+02  0.45594000000E+02  0.51100000000E-03 0. -1.
    9900012    2    1    2    0    0  0.25206419019E+02 -0.60534636359E+01  0.31323418935E+02  0.50528873650E+02  0.30000041947E+02 0.  0.
         12    1    1    2    0    0 -0.25206419019E+02  0.60534636359E+01 -0.31323418935E+02  0.40659126350E+02  0.00000000000E+00 0. -1.
         11    1    3    3    0    0  0.19074005713E+02 -0.15310904662E+01  0.24540433432E+02  0.31119042486E+02  0.51100000000E-03 0. -1.
        -11    1    3    3    0    0 -0.62550427694E+00  0.76503345606E+00  0.10145815203E+02  0.10193826474E+02  0.51100000000E-03 0.  1.
         12    1    3    3    0    0  0.67579175827E+01 -0.52874066258E+01 -0.33628296990E+01  0.92160046910E+01  0.00000000000E+00 0. -1.
</event>
<event>
 7    1  0.5329250E-013  0.5052888E+02  0.7816164E-02  0.1300439E+00
        -11   -1    0    0    0    0  0.00000000000E+00  0.00000000000E+00  0.45593999997E+02  0.45594000000E+02  0.51100000000E-03 0.  1.
         11   -1    0    0    0    0 -0.00000000000E+00 -0.00000000000E+00 -0.45593999997E+02  0.45594000000E+02  0.51100000000E-03 0. -1.
    9900012    2    1    2    0    0 -0.34369977759E+02  0.29305624006E+01  0.21523952606E+02  0.50528879217E+02  0.30000058867E+02 0.  0.
         12    1    1    2    0    0  0.34369977759E+02 -0.29305624006E+01 -0.21523952606E+02  0.40659120783E+02  0.00000000000E+00 0. -1.
         11    1    3    3    0    0 -0.64023886459E+01 -0.30852296078E+01  0.11787195689E+00  0.71079614634E+01  0.51100000000E-03 0.  1.
        -11    1    3    3    0    0 -0.32116367104E+02  0.37431327697E+01  0.21242905350E+02  0.38687635064E+02  0.51100000000E-03 0. -1.
         12    1    3    3    0    0  0.41487779912E+01  0.22726592386E+01  0.16317529835E+00  0.47332826889E+01  0.00000000000E+00 0. -1.
</event>
<event>
 7    1  0.5329250E-013  0.5052886E+02  0.7816164E-02  0.1300439E+00
        -11   -1    0    0    0    0  0.00000000000E+00  0.00000000000E+00  0.45593999997E+02  0.45594000000E+02  0.51100000000E-03 0.  1.
         11   -1    0    0    0    0 -0.00000000000E+00 -0.00000000000E+00 -0.45593999997E+02  0.45594000000E+02  0.51100000000E-03 0. -1.
    9900012    2    1    2    0    0  0.21590048492E+02  0.76951881023E+00  0.34444783606E+02  0.50528862395E+02  0.30000007737E+02 0.  0.
         12    1    1    2    0    0 -0.21590048492E+02 -0.76951881023E+00 -0.34444783606E+02  0.40659137605E+02  0.00000000000E+00 0. -1.
         11    1    3    3    0    0  0.82197393155E+01  0.12083455491E+02  0.18166771555E+02  0.23315351166E+02  0.51100000000E-03 0.  1.
        -11    1    3    3    0    0  0.12282780356E+00 -0.66259267381E+01  0.95737599197E+01  0.11643662270E+02  0.51100000000E-03 0. -1.
        -12    1    3    3    0    0  0.13247481373E+02 -0.46880099431E+01  0.67042521322E+01  0.15569848959E+02  0.00000000000E+00 0.  1.
</event>
<event>
 7    1  0.5329250E-013  0.5052891E+02  0.7816164E-02  0.1300439E+00
        -11   -1    0    0    0    0  0.00000000000E+00  0.00000000000E+00  0.45593999997E+02  0.45594000000E+02  0.51100000000E-03 0.  1.
         11   -1    0    0    0    0 -0.00000000000E+00 -0.00000000000E+00 -0.45593999997E+02  0.45594000000E+02  0.51100000000E-03 0. -1.
    9900012    2    1    2    0    0  0.30108831583E+02  0.10087345261E+02  0.25394199082E+02  0.50528909741E+02  0.30000151649E+02 0.  0.
         12    1    1    2    0    0 -0.30108831583E+02 -0.10087345261E+02 -0.25394199082E+02  0.40659090259E+02  0.00000000000E+00 0. -1.
         11    1    3    3    0    0  0.16580254923E+02  0.11834890244E+01 -0.17930127193E+01  0.16718863431E+02  0.51100000000E-03 0. -1.
        -11    1    3    3    0    0  0.23891813797E+01  0.67362530368E+01  0.45087599469E+01  0.84506928213E+01  0.51100000000E-03 0.  1.
        -12    1    3    3    0    0  0.11139395280E+02  0.21676032000E+01  0.22678451854E+02  0.25359353488E+02  0.00000000000E+00 0.  1.
</event>
<event>
 7    1  0.5329250E-013  0.5052885E+02  0.7816164E-02  0.1300439E+00
        -11   -1    0    0    0    0  0.00000000000E+00  0.00000000000E+00  0.45593999997E+02  0.45594000000E+02  0.51100000000E-03 0.  1.
         11   -1    0    0    0    0 -0.00000000000E+00 -0.00000000000E+00 -0.45593999997E+02  0.45594000000E+02  0.51100000000E-03 0. -1.
    9900012    2    1    2    0    0 -0.27401025417E+02  0.29604674054E+02  0.50905709554E+01  0.50528845651E+02  0.29999956841E+02 0.  0.
         12    1    1    2    0    0  0.27401025417E+02 -0.29604674054E+02 -0.50905709554E+01  0.40659154349E+02  0.00000000000E+00 0. -1.
         11    1    3    3    0    0 -0.43996238648E+01  0.69857356516E+01 -0.27919232156E+01  0.87150460842E+01  0.51100000000E-03 0. -1.
        -11    1    3    3    0    0  0.27889167401E+01  0.76335712011E+01  0.87909995707E+01  0.11972098378E+02  0.51100000000E-03 0.  1.
         12    1    3    3    0    0 -0.25790318292E+02  0.14985367201E+02 -0.90850539970E+00  0.29841701188E+02  0.00000000000E+00 0. -1.
</event>
<event>
 7    1  0.5329250E-013  0.5052885E+02  0.7816164E-02  0.1300439E+00
        -11   -1    0    0    0    0  0.00000000000E+00  0.00000000000E+00  0.45593999997E+02  0.45594000000E+02  0.51100000000E-03 0.  1.
         11   -1    0    0    0    0 -0.00000000000E+00 -0.00000000000E+00 -0.45593999997E+02  0.45594000000E+02  0.51100000000E-03 0. -1.
    9900012    2    1    2    0    0  0.16240243673E+02  0.24680125314E+02  0.27934072592E+02  0.50528849595E+02  0.29999968830E+02 0.  0.
         12    1    1    2    0    0 -0.16240243673E+02 -0.24680125314E+02 -0.27934072592E+02  0.40659150405E+02  0.00000000000E+00 0. -1.
         11    1    3    3    0    0 -0.30165331271E+01  0.42514579959E+01 -0.14580669501E+01  0.54129776177E+01  0.51100000000E-03 0. -1.
        -11    1    3    3    0    0  0.14235581595E+02  0.15198362074E+02  0.76302986940E+01  0.22177994758E+02  0.51100000000E-03 0.  1.
        -12    1    3    3    0    0  0.50211952050E+01  0.52303052441E+01  0.21761840848E+02  0.22937877220E+02  0.00000000000E+00 0.  1.
</event>
<event>
 7    1  0.5329250E-013  0.5052885E+02  0.7816164E-02  0.1300439E+00
        -11   -1    0    0    0    0  0.00000000000E+00  0.00000000000E+00  0.45593999997E+02  0.45594000000E+02  0.51100000000E-03 0.  1.
         11   -1    0    0    0    0 -0.00000000000E+00 -0.00000000000E+00 -0.45593999997E+02  0.45594000000E+02  0.51100000000E-03 0. -1.
    9900012    2    1    2    0    0  0.31342153985E+02 -0.24558576080E+02  0.82287198893E+01  0.50528854577E+02  0.29999983973E+02 0.  0.
         12    1    1    2    0    0 -0.31342153985E+02  0.24558576080E+02 -0.82287198893E+01  0.40659145423E+02  0.00000000000E+00 0. -1.
         11    1    3    3    0    0  0.12391101235E+02 -0.35718764404E+01  0.13251760421E+02  0.18490723232E+02  0.51100000000E-03 0. -1.
        -11    1    3    3    0    0  0.21471087380E+01 -0.12336735875E+02 -0.38564671144E+01  0.13102574818E+02  0.51100000000E-03 0.  1.
         12    1    3    3    0    0  0.16803944012E+02 -0.86499637645E+01 -0.11665734171E+01  0.18935556528E+02  0.00000000000E+00 0. -1.
</event>
<event>
 7    1  0.5329250E-013  0.5052886E+02  0.7816164E-02  0.1300439E+00
        -11   -1    0    0    0    0  0.00000000000E+00  0.00000000000E+00  0.45593999997E+02  0.45594000000E+02  0.51100000000E-03 0.  1.
         11   -1    0    0    0    0 -0.00000000000E+00 -0.00000000000E+00 -0.45593999997E+02  0.45594000000E+02  0.51100000000E-03 0. -1.
    9900012    2    1    2    0    0 -0.25148869772E+02 -0.30840712818E+02  0.83396897176E+01  0.50528860283E+02  0.30000001317E+02 0.  0.
         12    1    1    2    0    0  0.25148869772E+02  0.30840712818E+02 -0.83396897176E+01  0.40659139717E+02  0.00000000000E+00 0. -1.
         11    1    3    3    0    0  0.14099036677E+00  0.42285109985E+01  0.26304010606E+00  0.42390298308E+01  0.51100000000E-03 0. -1.
        -11    1    3    3    0    0 -0.98814989880E+00  0.13406140203E+01  0.10109998823E+01  0.19482831409E+01  0.51100000000E-03 0.  1.
        -12    1    3    3    0    0 -0.24301710240E+02 -0.36409837837E+02  0.70656497292E+01  0.44341547312E+02  0.00000000000E+00 0.  1.
</event>
<event>
 7    1  0.5329250E-013  0.5052898E+02  0.7816164E-02  0.1300438E+00
        -11   -1    0    0    0    0  0.00000000000E+00  0.00000000000E+00  0.45593999997E+02  0.45594000000E+02  0.51100000000E-03 0. -1.
         11   -1    0    0    0    0 -0.00000000000E+00 -0.00000000000E+00 -0.45593999997E+02  0.45594000000E+02  0.51100000000E-03 0.  1.
    9900012    2    1    2    0    0  0.21271747918E+02  0.30000625599E+02 -0.17338708717E+02  0.50528983585E+02  0.30000376103E+02 0.  0.
         12    1    1    2    0    0 -0.21271747918E+02 -0.30000625599E+02  0.17338708717E+02  0.40659016415E+02  0.00000000000E+00 0. -1.
         11    1    3    3    0    0  0.45391715344E+01 -0.11714859880E+01  0.21735103257E+01  0.51672628185E+01  0.51100000000E-03 0. -1.
        -11    1    3    3    0    0  0.44203738265E+01  0.80313335824E+01 -0.16632570966E+02  0.18991694003E+02  0.51100000000E-03 0.  1.
         12    1    3    3    0    0  0.12312202557E+02  0.23140778005E+02 -0.28796480764E+01  0.26370026764E+02  0.00000000000E+00 0. -1.
</event>
<event>
 7    1  0.5329250E-013  0.5052886E+02  0.7816164E-02  0.1300439E+00
        -11   -1    0    0    0    0  0.00000000000E+00  0.00000000000E+00  0.45593999997E+02  0.45594000000E+02  0.51100000000E-03 0. -1.
         11   -1    0    0    0    0 -0.00000000000E+00 -0.00000000000E+00 -0.45593999997E+02  0.45594000000E+02  0.51100000000E-03 0.  1.
    9900012    2    1    2    0    0 -0.26885681411E+02 -0.10430205953E+02 -0.28662455126E+02  0.50528863326E+02  0.30000010567E+02 0.  0.
         12    1    1    2    0    0  0.26885681411E+02  0.10430205953E+02  0.28662455126E+02  0.40659136674E+02  0.00000000000E+00 0. -1.
         11    1    3    3    0    0 -0.89029351360E+01 -0.27287738015E+01 -0.11789900271E+02  0.15023654986E+02  0.51100000000E-03 0. -1.
        -11    1    3    3    0    0 -0.11836281229E+01 -0.12597132375E+02 -0.11764485812E+02  0.17276916573E+02  0.51100000000E-03 0.  1.
         12    1    3    3    0    0 -0.16799118152E+02  0.48957002231E+01 -0.51080690438E+01  0.18228291767E+02  0.00000000000E+00 0. -1.
</event>
<event>
 7    1  0.5329250E-013  0.5052886E+02  0.7816164E-02  0.1300439E+00
        -11   -1    0    0    0    0  0.00000000000E+00  0.00000000000E+00  0.45593999997E+02  0.45594000000E+02  0.51100000000E-03 0.  1.
         11   -1    0    0    0    0 -0.00000000000E+00 -0.00000000000E+00 -0.45593999997E+02  0.45594000000E+02  0.51100000000E-03 0. -1.
    9900012    2    1    2    0    0 -0.37368223536E+02 -0.68005083681E+01  0.14509817446E+02  0.50528857773E+02  0.29999993688E+02 0.  0.
         12    1    1    2    0    0  0.37368223536E+02  0.68005083681E+01 -0.14509817446E+02  0.40659142227E+02  0.00000000000E+00 0. -1.
         11    1    3    3    0    0 -0.81942092382E+01  0.21443065486E+01  0.27790071075E+01  0.89143702177E+01  0.51100000000E-03 0. -1.
        -11    1    3    3    0    0  0.33380793380E+00  0.32145685759E+01 -0.47112313529E+01  0.57131935016E+01  0.51100000000E-03 0.  1.
        -12    1    3    3    0    0 -0.29507822231E+02 -0.12159383493E+02  0.16442041692E+02  0.35901294054E+02  0.00000000000E+00 0.  1.
</event>
<event>
 7    1  0.5541925E-013  0.5052885E+02  0.7816164E-02  0.1300439E+00
        -11   -1    0    0    0    0  0.00000000000E+00  0.00000000000E+00  0.45593999997E+02  0.45594000000E+02  0.51100000000E-03 0. -1.
         11   -1    0    0    0    0 -0.00000000000E+00 -0.00000000000E+00 -0.45593999997E+02  0.45594000000E+02  0.51100000000E-03 0.  1.
    9900012    2    1    2    0    0 -0.21280114495E+01  0.48342066377E+01 -0.40314614509E+02  0.50528854294E+02  0.29999983111E+02 0.  0.
         12    1    1    2    0    0  0.21280114495E+01 -0.48342066377E+01  0.40314614509E+02  0.40659145706E+02  0.00000000000E+00 0. -1.
         11    1    3    3    0    0 -0.50593519866E+01  0.10806056878E+02 -0.69581691709E+01  0.13812459095E+02  0.51100000000E-03 0. -1.
        -11    1    3    3    0    0  0.27310987912E+01 -0.29158348228E+01 -0.87363050920E+00  0.40895261154E+01  0.51100000000E-03 0.  1.
        -12    1    3    3    0    0  0.20024174590E+00 -0.30560154171E+01 -0.32482814829E+02  0.32626869084E+02  0.00000000000E+00 0.  1.
</event>
<event>
 7    1  0.5329250E-013  0.5052886E+02  0.7816164E-02  0.1300439E+00
        -11   -1    0    0    0    0  0.00000000000E+00  0.00000000000E+00  0.45593999997E+02  0.45594000000E+02  0.51100000000E-03 0.  1.
         11   -1    0    0    0    0 -0.00000000000E+00 -0.00000000000E+00 -0.45593999997E+02  0.45594000000E+02  0.51100000000E-03 0. -1.
    9900012    2    1    2    0    0  0.57642513745E+00  0.23312994274E+02  0.33306720575E+02  0.50528860764E+02  0.30000002777E+02 0.  0.
         12    1    1    2    0    0 -0.57642513745E+00 -0.23312994274E+02 -0.33306720575E+02  0.40659139236E+02  0.00000000000E+00 0. -1.
         11    1    3    3    0    0 -0.43766878774E+01  0.20652338241E+01 -0.24291028120E+01  0.54148987301E+01  0.51100000000E-03 0. -1.
        -11    1    3    3    0    0 -0.56025432636E+00 -0.22298279919E+01  0.81726352569E+01  0.84898754459E+01  0.51100000000E-03 0.  1.
        -12    1    3    3    0    0  0.55133673412E+01  0.23477588442E+02  0.27563188130E+02  0.36624086588E+02  0.00000000000E+00 0.  1.
</event>
<event>
 7    1  0.5329250E-013  0.5052886E+02  0.7816164E-02  0.1300439E+00
        -11   -1    0    0    0    0  0.00000000000E+00  0.00000000000E+00  0.45593999997E+02  0.45594000000E+02  0.51100000000E-03 0.  1.
         11   -1    0    0    0    0 -0.00000000000E+00 -0.00000000000E+00 -0.45593999997E+02  0.45594000000E+02  0.51100000000E-03 0. -1.
    9900012    2    1    2    0    0 -0.21304965515E+02  0.28942468842E+02  0.19015728251E+02  0.50528856143E+02  0.29999988732E+02 0.  0.
         12    1    1    2    0    0  0.21304965515E+02 -0.28942468842E+02 -0.19015728251E+02  0.40659143857E+02  0.00000000000E+00 0. -1.
         11    1    3    3    0    0 -0.13019232658E+02  0.32382965426E+01  0.79235662496E+01  0.15581074606E+02  0.51100000000E-03 0.  1.
        -11    1    3    3    0    0 -0.34262463712E+01  0.57138766382E+01 -0.54038308134E+01  0.85783995100E+01  0.51100000000E-03 0. -1.
        -12    1    3    3    0    0 -0.48594864854E+01  0.19990295661E+02  0.16495992815E+02  0.26369382027E+02  0.00000000000E+00 0.  1.
</event>
<event>
 7    1  0.5329250E-013  0.5052886E+02  0.7816164E-02  0.1300439E+00
        -11   -1    0    0    0    0  0.00000000000E+00  0.00000000000E+00  0.45593999997E+02  0.45594000000E+02  0.51100000000E-03 0.  1.
         11   -1    0    0    0    0 -0.00000000000E+00 -0.00000000000E+00 -0.45593999997E+02  0.45594000000E+02  0.51100000000E-03 0. -1.
    9900012    2    1    2    0    0 -0.31547341294E+02 -0.86494704979E+01  0.24147827806E+02  0.50528859941E+02  0.30000000276E+02 0.  0.
         12    1    1    2    0    0  0.31547341294E+02  0.86494704979E+01 -0.24147827806E+02  0.40659140059E+02  0.00000000000E+00 0. -1.
         11    1    3    3    0    0 -0.12778237811E+00 -0.30424040441E+01 -0.11949098491E+01  0.32711405522E+01  0.51100000000E-03 0. -1.
        -11    1    3    3    0    0 -0.10331593398E+02 -0.97557582806E+01  0.20960854047E+02  0.25323389275E+02  0.51100000000E-03 0.  1.
         12    1    3    3    0    0 -0.21087965518E+02  0.41486918268E+01  0.43818836085E+01  0.21934330113E+02  0.00000000000E+00 0. -1.
</event>
<event>
 7    1  0.5329250E-013  0.5052883E+02  0.7816164E-02  0.1300439E+00
        -11   -1    0    0    0    0  0.00000000000E+00  0.00000000000E+00  0.45593999997E+02  0.45594000000E+02  0.51100000000E-03 0.  1.
         11   -1    0    0    0    0 -0.00000000000E+00 -0.00000000000E+00 -0.45593999997E+02  0.45594000000E+02  0.51100000000E-03 0. -1.
    9900012    2    1    2    0    0  0.15821432195E+02 -0.13968654358E+02  0.34752372407E+02  0.50528826260E+02  0.29999897900E+02 0.  0.
         12    1    1    2    0    0 -0.15821432195E+02  0.13968654358E+02 -0.34752372407E+02  0.40659173740E+02  0.00000000000E+00 0. -1.
         11    1    3    3    0    0  0.66357699148E+01  0.66726572363E+00  0.11805183963E+02  0.13558799894E+02  0.51100000000E-03 0. -1.
        -11    1    3    3    0    0  0.13060856574E+02 -0.99095937287E+00  0.17307918806E+02  0.21705575979E+02  0.51100000000E-03 0.  1.
         12    1    3    3    0    0 -0.38751942940E+01 -0.13644960709E+02  0.56392696386E+01  0.15264450387E+02  0.00000000000E+00 0. -1.
</event>
<event>
 7    1  0.5329250E-013  0.5052886E+02  0.7816164E-02  0.1300439E+00
        -11   -1    0    0    0    0  0.00000000000E+00  0.00000000000E+00  0.45593999997E+02  0.45594000000E+02  0.51100000000E-03 0.  1.
         11   -1    0    0    0    0 -0.00000000000E+00 -0.00000000000E+00 -0.45593999997E+02  0.45594000000E+02  0.51100000000E-03 0. -1.
    9900012    2    1    2    0    0 -0.33057076020E+02 -0.98673514492E+01  0.21518158342E+02  0.50528855419E+02  0.29999986532E+02 0.  0.
         12    1    1    2    0    0  0.33057076020E+02  0.98673514492E+01 -0.21518158342E+02  0.40659144581E+02  0.00000000000E+00 0. -1.
         11    1    3    3    0    0 -0.21742834200E+01 -0.26245604566E+01 -0.18601620126E+00  0.34132723696E+01  0.51100000000E-03 0. -1.
        -11    1    3    3    0    0 -0.19393625176E+02 -0.68168894811E+01  0.27424803619E+02  0.34273933732E+02  0.51100000000E-03 0.  1.
         12    1    3    3    0    0 -0.11489167424E+02 -0.42590151145E+00 -0.57206290751E+01  0.12841649318E+02  0.00000000000E+00 0. -1.
</event>
<event>
 7    1  0.5329250E-013  0.5052886E+02  0.7816164E-02  0.1300439E+00
        -11   -1    0    0    0    0  0.00000000000E+00  0.00000000000E+00  0.45593999997E+02  0.45594000000E+02  0.51100000000E-03 0. -1.
         11   -1    0    0    0    0 -0.00000000000E+00 -0.00000000000E+00 -0.45593999997E+02  0.45594000000E+02  0.51100000000E-03 0.  1.
    9900012    2    1    2    0    0  0.12981804197E+02  0.23083651680E+02 -0.30850992345E+02  0.50528856579E+02  0.29999990056E+02 0.  0.
         12    1    1    2    0    0 -0.12981804197E+02 -0.23083651680E+02  0.30850992345E+02  0.40659143421E+02  0.00000000000E+00 0. -1.
         11    1    3    3    0    0  0.57278188627E+01  0.37744104242E+01  0.18671551181E+01  0.71091737544E+01  0.51100000000E-03 0. -1.
        -11    1    3    3    0    0  0.13425945890E+02  0.16600124690E+02 -0.21284581033E+02  0.30147198092E+02  0.51100000000E-03 0.  1.
         12    1    3    3    0    0 -0.61719605557E+01  0.27091165659E+01 -0.11433566430E+02  0.13272484733E+02  0.00000000000E+00 0. -1.
</event>
<event>
 7    1  0.5329250E-013  0.5052886E+02  0.7816164E-02  0.1300439E+00
        -11   -1    0    0    0    0  0.00000000000E+00  0.00000000000E+00  0.45593999997E+02  0.45594000000E+02  0.51100000000E-03 0.  1.
         11   -1    0    0    0    0 -0.00000000000E+00 -0.00000000000E+00 -0.45593999997E+02  0.45594000000E+02  0.51100000000E-03 0. -1.
    9900012    2    1    2    0    0 -0.16242901770E+00  0.18090200602E+02  0.36412692264E+02  0.50528857130E+02  0.29999991733E+02 0.  0.
         12    1    1    2    0    0  0.16242901770E+00 -0.18090200602E+02 -0.36412692264E+02  0.40659142870E+02  0.00000000000E+00 0. -1.
         11    1    3    3    0    0  0.14530461486E+01  0.84210496218E+01 -0.24514047643E+00  0.85490066064E+01  0.51100000000E-03 0. -1.
        -11    1    3    3    0    0  0.77136875524E+01  0.12847620913E+01  0.16076592472E+02  0.17877595337E+02  0.51100000000E-03 0.  1.
        -12    1    3    3    0    0 -0.93291627187E+01  0.83843888892E+01  0.20581240269E+02  0.24102255186E+02  0.00000000000E+00 0.  1.
</event>
<event>
 7    1  0.5329250E-013  0.5052886E+02  0.7816164E-02  0.1300439E+00
        -11   -1    0    0    0    0  0.00000000000E+00  0.00000000000E+00  0.45593999997E+02  0.45594000000E+02  0.51100000000E-03 0.  1.
         11   -1    0    0    0    0 -0.00000000000E+00 -0.00000000000E+00 -0.45593999997E+02  0.45594000000E+02  0.51100000000E-03 0. -1.
    9900012    2    1    2    0    0 -0.33816001476E+02  0.11233821610E+02 -0.19581752501E+02  0.50528859148E+02  0.29999997866E+02 0.  0.
         12    1    1    2    0    0  0.33816001476E+02 -0.11233821610E+02  0.19581752501E+02  0.40659140852E+02  0.00000000000E+00 0. -1.
         11    1    3    3    0    0 -0.11732256542E+02 -0.61709859289E+01 -0.11432076975E+02  0.17504836335E+02  0.51100000000E-03 0. -1.
        -11    1    3    3    0    0  0.64165884754E+00  0.69617175012E+01 -0.16542445928E+01  0.71842718543E+01  0.51100000000E-03 0.  1.
        -12    1    3    3    0    0 -0.22725403782E+02  0.10443090037E+02 -0.64954309333E+01  0.25839750959E+02  0.00000000000E+00 0.  1.
</event>
<event>
 7    1  0.5329250E-013  0.5052886E+02  0.7816164E-02  0.1300439E+00
        -11   -1    0    0    0    0  0.00000000000E+00  0.00000000000E+00  0.45593999997E+02  0.45594000000E+02  0.51100000000E-03 0.  1.
         11   -1    0    0    0    0 -0.00000000000E+00 -0.00000000000E+00 -0.45593999997E+02  0.45594000000E+02  0.51100000000E-03 0. -1.
    9900012    2    1    2    0    0 -0.12568586090E+02 -0.81400312781E+01  0.37801275395E+02  0.50528857277E+02  0.29999992179E+02 0.  0.
         12    1    1    2    0    0  0.12568586090E+02  0.81400312781E+01 -0.37801275395E+02  0.40659142723E+02  0.00000000000E+00 0. -1.
         11    1    3    3    0    0 -0.51767841084E+01  0.36783533750E+01  0.22907395889E+02  0.23771372782E+02  0.51100000000E-03 0.  1.
        -11    1    3    3    0    0 -0.91277471164E+01 -0.59780008236E+01  0.17094032036E+02  0.20279501788E+02  0.51100000000E-03 0. -1.
        -12    1    3    3    0    0  0.17359451345E+01 -0.58403838296E+01 -0.22001525307E+01  0.64779827064E+01  0.00000000000E+00 0.  1.
</event>
<event>
 7    1  0.5329250E-013  0.5052886E+02  0.7816164E-02  0.1300439E+00
        -11   -1    0    0    0    0  0.00000000000E+00  0.00000000000E+00  0.45593999997E+02  0.45594000000E+02  0.51100000000E-03 0.  1.
         11   -1    0    0    0    0 -0.00000000000E+00 -0.00000000000E+00 -0.45593999997E+02  0.45594000000E+02  0.51100000000E-03 0. -1.
    9900012    2    1    2    0    0 -0.23823491583E+01 -0.38117886733E+02  0.13946939462E+02  0.50528855925E+02  0.29999988070E+02 0.  0.
         12    1    1    2    0    0  0.23823491583E+01  0.38117886733E+02 -0.13946939462E+02  0.40659144075E+02  0.00000000000E+00 0. -1.
         11    1    3    3    0    0  0.62603653310E+01 -0.11101514674E+02 -0.30102361660E+01  0.13095698690E+02  0.51100000000E-03 0. -1.
        -11    1    3    3    0    0  0.74356872139E+00  0.22210708599E+01  0.27097303585E+01  0.35817159414E+01  0.51100000000E-03 0.  1.
        -12    1    3    3    0    0 -0.93862832107E+01 -0.29237442919E+02  0.14247445270E+02  0.33851441294E+02  0.00000000000E+00 0.  1.
</event>
<event>
 7    1  0.5329250E-013  0.5052885E+02  0.7816164E-02  0.1300439E+00
        -11   -1    0    0    0    0  0.00000000000E+00  0.00000000000E+00  0.45593999997E+02  0.45594000000E+02  0.51100000000E-03 0. -1.
         11   -1    0    0    0    0 -0.00000000000E+00 -0.00000000000E+00 -0.45593999997E+02  0.45594000000E+02  0.51100000000E-03 0.  1.
    9900012    2    1    2    0    0 -0.23921567854E+02  0.11289666008E+02 -0.30878280119E+02  0.50528854039E+02  0.29999982338E+02 0.  0.
         12    1    1    2    0    0  0.23921567854E+02 -0.11289666008E+02  0.30878280119E+02  0.40659145961E+02  0.00000000000E+00 0. -1.
         11    1    3    3    0    0 -0.20855804843E+02  0.96363002925E+01 -0.88229219795E+01  0.24610299298E+02  0.51100000000E-03 0. -1.
        -11    1    3    3    0    0  0.63291658273E-01  0.71340763379E+00  0.17495569273E+01  0.18904777145E+01  0.51100000000E-03 0.  1.
        -12    1    3    3    0    0 -0.31290546688E+01  0.93995808192E+00 -0.23804915066E+02  0.24028077027E+02  0.00000000000E+00 0.  1.
</event>
<event>
 7    1  0.5329250E-013  0.5052885E+02  0.7816164E-02  0.1300439E+00
        -11   -1    0    0    0    0  0.00000000000E+00  0.00000000000E+00  0.45593999997E+02  0.45594000000E+02  0.51100000000E-03 0.  1.
         11   -1    0    0    0    0 -0.00000000000E+00 -0.00000000000E+00 -0.45593999997E+02  0.45594000000E+02  0.51100000000E-03 0. -1.
    9900012    2    1    2    0    0  0.34394105358E+02  0.19141749405E+02  0.10188498640E+02  0.50528849022E+02  0.29999967088E+02 0.  0.
         12    1    1    2    0    0 -0.34394105358E+02 -0.19141749405E+02 -0.10188498640E+02  0.40659150978E+02  0.00000000000E+00 0. -1.
         11    1    3    3    0    0  0.30875211077E+02  0.21634343841E+02  0.74544989618E+01  0.38430366216E+02  0.51100000000E-03 0. -1.
        -11    1    3    3    0    0  0.27520637728E+01  0.89495123997E-01  0.67345187631E+01  0.72756860583E+01  0.51100000000E-03 0.  1.
        -12    1    3    3    0    0  0.76683050892E+00 -0.25820895601E+01 -0.40005190847E+01  0.48227967480E+01  0.00000000000E+00 0.  1.
</event>
<event>
 7    1  0.5329250E-013  0.5052885E+02  0.7816164E-02  0.1300439E+00
        -11   -1    0    0    0    0  0.00000000000E+00  0.00000000000E+00  0.45593999997E+02  0.45594000000E+02  0.51100000000E-03 0.  1.
         11   -1    0    0    0    0 -0.00000000000E+00 -0.00000000000E+00 -0.45593999997E+02  0.45594000000E+02  0.51100000000E-03 0. -1.
    9900012    2    1    2    0    0  0.99328900472E+01  0.31407942583E+02  0.23833696634E+02  0.50528852724E+02  0.29999978338E+02 0.  0.
         12    1    1    2    0    0 -0.99328900472E+01 -0.31407942583E+02 -0.23833696634E+02  0.40659147276E+02  0.00000000000E+00 0. -1.
         11    1    3    3    0    0  0.15001164927E+02  0.17572193299E+02  0.11822548249E+02  0.25953604256E+02  0.51100000000E-03 0. -1.
        -11    1    3    3    0    0  0.50397060333E+01  0.35450092274E+01  0.69509423275E+01  0.92887742370E+01  0.51100000000E-03 0.  1.
         12    1    3    3    0    0 -0.10107980913E+02  0.10290740057E+02  0.50602060580E+01  0.15286474231E+02  0.00000000000E+00 0. -1.
</event>
<event>
 7    1  0.5329250E-013  0.5052885E+02  0.7816164E-02  0.1300439E+00
        -11   -1    0    0    0    0  0.00000000000E+00  0.00000000000E+00  0.45593999997E+02  0.45594000000E+02  0.51100000000E-03 0.  1.
         11   -1    0    0    0    0 -0.00000000000E+00 -0.00000000000E+00 -0.45593999997E+02  0.45594000000E+02  0.51100000000E-03 0. -1.
    9900012    2    1    2    0    0  0.19513894852E+02  0.13602559402E+01  0.35644415091E+02  0.50528847086E+02  0.29999961201E+02 0.  0.
         12    1    1    2    0    0 -0.19513894852E+02 -0.13602559402E+01 -0.35644415091E+02  0.40659152914E+02  0.00000000000E+00 0. -1.
         11    1    3    3    0    0 -0.20266335690E+01  0.22708993823E+01  0.47229707568E+01  0.56187792854E+01  0.51100000000E-03 0. -1.
        -11    1    3    3    0    0  0.15742687013E+02 -0.12106142014E+02  0.17155799393E+02  0.26243329094E+02  0.51100000000E-03 0.  1.
         12    1    3    3    0    0  0.57978414081E+01  0.11195498572E+02  0.13765644942E+02  0.18666738707E+02  0.00000000000E+00 0. -1.
</event>
<event>
 7    1  0.5329250E-013  0.5052886E+02  0.7816164E-02  0.1300439E+00
        -11   -1    0    0    0    0  0.00000000000E+00  0.00000000000E+00  0.45593999997E+02  0.45594000000E+02  0.51100000000E-03 0.  1.
         11   -1    0    0    0    0 -0.00000000000E+00 -0.00000000000E+00 -0.45593999997E+02  0.45594000000E+02  0.51100000000E-03 0. -1.
    9900012    2    1    2    0    0  0.29692523741E+02 -0.10752666659E+02  0.25610537715E+02  0.50528862670E+02  0.30000008572E+02 0.  0.
         12    1    1    2    0    0 -0.29692523741E+02  0.10752666659E+02 -0.25610537715E+02  0.40659137330E+02  0.00000000000E+00 0. -1.
         11    1    3    3    0    0  0.68232157779E+00  0.26810287157E+01  0.52156406661E+01  0.59039296684E+01  0.51100000000E-03 0. -1.
        -11    1    3    3    0    0  0.11077066249E+02  0.60097301342E+01  0.10432689746E+02  0.16360295492E+02  0.51100000000E-03 0.  1.
         12    1    3    3    0    0  0.17933135914E+02 -0.19443425509E+02  0.99622073020E+01  0.28264637510E+02  0.00000000000E+00 0. -1.
</event>
<event>
 7    1  0.5329250E-013  0.5052886E+02  0.7816164E-02  0.1300439E+00
        -11   -1    0    0    0    0  0.00000000000E+00  0.00000000000E+00  0.45593999997E+02  0.45594000000E+02  0.51100000000E-03 0.  1.
         11   -1    0    0    0    0 -0.00000000000E+00 -0.00000000000E+00 -0.45593999997E+02  0.45594000000E+02  0.51100000000E-03 0. -1.
    9900012    2    1    2    0    0 -0.34678275794E+02 -0.20997197986E+02 -0.31145450648E+01  0.50528861713E+02  0.30000005663E+02 0.  0.
         12    1    1    2    0    0  0.34678275794E+02  0.20997197986E+02  0.31145450648E+01  0.40659138287E+02  0.00000000000E+00 0. -1.
         11    1    3    3    0    0 -0.21494773343E+02 -0.23718811227E+02 -0.11363057906E+02  0.33966547842E+02  0.51100000000E-03 0. -1.
        -11    1    3    3    0    0 -0.48032387065E+01 -0.75432514397E+00  0.10337846245E+01  0.49707966570E+01  0.51100000000E-03 0.  1.
         12    1    3    3    0    0 -0.83802637443E+01  0.34759383850E+01  0.72147282170E+01  0.11591517214E+02  0.00000000000E+00 0. -1.
</event>
<event>
 7    1  0.5329250E-013  0.5052886E+02  0.7816164E-02  0.1300439E+00
        -11   -1    0    0    0    0  0.00000000000E+00  0.00000000000E+00  0.45593999997E+02  0.45594000000E+02  0.51100000000E-03 0. -1.
         11   -1    0    0    0    0 -0.00000000000E+00 -0.00000000000E+00 -0.45593999997E+02  0.45594000000E+02  0.51100000000E-03 0.  1.
    9900012    2    1    2    0    0 -0.72057981117E+01 -0.27404691515E+02 -0.29158621451E+02  0.50528857752E+02  0.29999993622E+02 0.  0.
         12    1    1    2    0    0  0.72057981117E+01  0.27404691515E+02  0.29158621451E+02  0.40659142248E+02  0.00000000000E+00 0. -1.
         11    1    3    3    0    0 -0.98036278359E+01 -0.12528051462E+02  0.91706091876E+00  0.15934371439E+02  0.51100000000E-03 0. -1.
        -11    1    3    3    0    0  0.39286324682E+01 -0.26015176897E+01 -0.93370036918E+01  0.10458569958E+02  0.51100000000E-03 0.  1.
        -12    1    3    3    0    0 -0.13308027440E+01 -0.12275122364E+02 -0.20738678678E+02  0.24135916355E+02  0.00000000000E+00 0.  1.
</event>
<event>
 7    1  0.5329250E-013  0.5052881E+02  0.7816164E-02  0.1300439E+00
        -11   -1    0    0    0    0  0.00000000000E+00  0.00000000000E+00  0.45593999997E+02  0.45594000000E+02  0.51100000000E-03 0.  1.
         11   -1    0    0    0    0 -0.00000000000E+00 -0.00000000000E+00 -0.45593999997E+02  0.45594000000E+02  0.51100000000E-03 0. -1.
    9900012    2    1    2    0    0  0.14226269236E+02  0.20674524429E+02  0.31989790109E+02  0.50528814470E+02  0.29999862064E+02 0.  0.
         12    1    1    2    0    0 -0.14226269236E+02 -0.20674524429E+02 -0.31989790109E+02  0.40659185530E+02  0.00000000000E+00 0. -1.
         11    1    3    3    0    0  0.48099837591E+01 -0.14665100533E+01 -0.23841675196E+01  0.55651460468E+01  0.51100000000E-03 0. -1.
        -11    1    3    3    0    0  0.63937709839E+01  0.11377603013E+02  0.58025387453E+01  0.14282843340E+02  0.51100000000E-03 0.  1.
         12    1    3    3    0    0  0.30225144932E+01  0.10763431469E+02  0.28571418883E+02  0.30680825084E+02  0.00000000000E+00 0. -1.
</event>
<event>
 7    1  0.5329250E-013  0.5052888E+02  0.7816164E-02  0.1300439E+00
        -11   -1    0    0    0    0  0.00000000000E+00  0.00000000000E+00  0.45593999997E+02  0.45594000000E+02  0.51100000000E-03 0.  1.
         11   -1    0    0    0    0 -0.00000000000E+00 -0.00000000000E+00 -0.45593999997E+02  0.45594000000E+02  0.51100000000E-03 0. -1.
    9900012    2    1    2    0    0 -0.37412174345E+02  0.14136191400E+02  0.73254156607E+01  0.50528875426E+02  0.30000047344E+02 0.  0.
         12    1    1    2    0    0  0.37412174345E+02 -0.14136191400E+02 -0.73254156607E+01  0.40659124574E+02  0.00000000000E+00 0. -1.
         11    1    3    3    0    0 -0.74450995642E+01  0.10720078776E+02 -0.63778024244E+01  0.14526732617E+02  0.51100000000E-03 0. -1.
        -11    1    3    3    0    0 -0.14551012990E+02  0.17779767976E+01 -0.92352326500E+00  0.14688297247E+02  0.51100000000E-03 0.  1.
        -12    1    3    3    0    0 -0.15416061791E+02  0.16381358265E+01  0.14626741350E+02  0.21313845562E+02  0.00000000000E+00 0.  1.
</event>
<event>
 7    1  0.5329250E-013  0.5052886E+02  0.7816164E-02  0.1300439E+00
        -11   -1    0    0    0    0  0.00000000000E+00  0.00000000000E+00  0.45593999997E+02  0.45594000000E+02  0.51100000000E-03 0. -1.
         11   -1    0    0    0    0 -0.00000000000E+00 -0.00000000000E+00 -0.45593999997E+02  0.45594000000E+02  0.51100000000E-03 0.  1.
    9900012    2    1    2    0    0 -0.38235545396E+02 -0.11638882805E+02 -0.74662610880E+01  0.50528861060E+02  0.30000003679E+02 0.  0.
         12    1    1    2    0    0  0.38235545396E+02  0.11638882805E+02  0.74662610880E+01  0.40659138940E+02  0.00000000000E+00 0. -1.
         11    1    3    3    0    0 -0.22659126612E+01 -0.18171290523E+01 -0.27621871265E+01  0.40082410311E+01  0.51100000000E-03 0. -1.
        -11    1    3    3    0    0 -0.36010812085E+02 -0.14816643354E+02 -0.89610866303E+01  0.39957634830E+02  0.51100000000E-03 0.  1.
         12    1    3    3    0    0  0.41179350405E-01  0.49948896011E+01  0.42570126687E+01  0.65629851994E+01  0.00000000000E+00 0. -1.
</event>
<event>
 7    1  0.5329250E-013  0.5052887E+02  0.7816164E-02  0.1300439E+00
        -11   -1    0    0    0    0  0.00000000000E+00  0.00000000000E+00  0.45593999997E+02  0.45594000000E+02  0.51100000000E-03 0.  1.
         11   -1    0    0    0    0 -0.00000000000E+00 -0.00000000000E+00 -0.45593999997E+02  0.45594000000E+02  0.51100000000E-03 0. -1.
    9900012    2    1    2    0    0  0.28740241421E+01  0.84811458823E+01  0.39660750641E+02  0.50528868287E+02  0.30000025647E+02 0.  0.
         12    1    1    2    0    0 -0.28740241421E+01 -0.84811458823E+01 -0.39660750641E+02  0.40659131713E+02  0.00000000000E+00 0. -1.
         11    1    3    3    0    0  0.65276382739E+00 -0.74062368632E+01  0.24551553015E+01  0.78298296855E+01  0.51100000000E-03 0. -1.
        -11    1    3    3    0    0  0.40558467782E+01  0.29821527057E+00  0.14755737971E+02  0.15305901763E+02  0.51100000000E-03 0.  1.
        -12    1    3    3    0    0 -0.18345864635E+01  0.15589167475E+02  0.22449857368E+02  0.27393136839E+02  0.00000000000E+00 0.  1.
</event>
<event>
 7    1  0.5329250E-013  0.5052886E+02  0.7816164E-02  0.1300439E+00
        -11   -1    0    0    0    0  0.00000000000E+00  0.00000000000E+00  0.45593999997E+02  0.45594000000E+02  0.51100000000E-03 0. -1.
         11   -1    0    0    0    0 -0.00000000000E+00 -0.00000000000E+00 -0.45593999997E+02  0.45594000000E+02  0.51100000000E-03 0.  1.
    9900012    2    1    2    0    0  0.29569697789E+02 -0.23301018774E+02 -0.15357761803E+02  0.50528863870E+02  0.30000012219E+02 0.  0.
         12    1    1    2    0    0 -0.29569697789E+02  0.23301018774E+02  0.15357761803E+02  0.40659136130E+02  0.00000000000E+00 0. -1.
         11    1    3    3    0    0  0.27288851502E+00 -0.45062807158E+00 -0.64561990223E+01  0.64776569743E+01  0.51100000000E-03 0. -1.
        -11    1    3    3    0    0  0.60194836688E+01 -0.70468630408E+01  0.71082933118E+01  0.11679909949E+02  0.51100000000E-03 0.  1.
        -12    1    3    3    0    0  0.23277325605E+02 -0.15803527662E+02 -0.16009856093E+02  0.32371296946E+02  0.00000000000E+00 0.  1.
</event>
<event>
 7    1  0.5329250E-013  0.5052886E+02  0.7816164E-02  0.1300439E+00
        -11   -1    0    0    0    0  0.00000000000E+00  0.00000000000E+00  0.45593999997E+02  0.45594000000E+02  0.51100000000E-03 0.  1.
         11   -1    0    0    0    0 -0.00000000000E+00 -0.00000000000E+00 -0.45593999997E+02  0.45594000000E+02  0.51100000000E-03 0. -1.
    9900012    2    1    2    0    0 -0.20561789756E+02  0.32096710444E+02 -0.14148483417E+02  0.50528860777E+02  0.30000002819E+02 0.  0.
         12    1    1    2    0    0  0.20561789756E+02 -0.32096710444E+02  0.14148483417E+02  0.40659139223E+02  0.00000000000E+00 0. -1.
         11    1    3    3    0    0 -0.13527019611E+02  0.27338764290E+02 -0.20758779533E+02  0.36896005481E+02  0.51100000000E-03 0.  1.
        -11    1    3    3    0    0 -0.65002743499E+01  0.70241180082E+01  0.49628951367E+01  0.10780636754E+02  0.51100000000E-03 0. -1.
        -12    1    3    3    0    0 -0.53449579503E+00 -0.22661718543E+01  0.16474009796E+01  0.28522185428E+01  0.00000000000E+00 0.  1.
</event>
<event>
 7    1  0.5329250E-013  0.5052887E+02  0.7816164E-02  0.1300439E+00
        -11   -1    0    0    0    0  0.00000000000E+00  0.00000000000E+00  0.45593999997E+02  0.45594000000E+02  0.51100000000E-03 0.  1.
         11   -1    0    0    0    0 -0.00000000000E+00 -0.00000000000E+00 -0.45593999997E+02  0.45594000000E+02  0.51100000000E-03 0. -1.
    9900012    2    1    2    0    0 -0.59111237688E+01  0.39381830701E+02  0.82033267046E+01  0.50528873810E+02  0.30000042432E+02 0.  0.
         12    1    1    2    0    0  0.59111237688E+01 -0.39381830701E+02 -0.82033267046E+01  0.40659126190E+02  0.00000000000E+00 0. -1.
         11    1    3    3    0    0 -0.28637228068E+01  0.15752438204E+02 -0.46062191720E+01  0.16660056213E+02  0.51100000000E-03 0. -1.
        -11    1    3    3    0    0 -0.15498741901E+01 -0.25515712416E+01 -0.21492473475E+01  0.36785717647E+01  0.51100000000E-03 0.  1.
        -12    1    3    3    0    0 -0.14975267718E+01  0.26180963738E+02  0.14958793224E+02  0.30190245832E+02  0.00000000000E+00 0.  1.
</event>
<event>
 7    1  0.5329250E-013  0.5052885E+02  0.7816164E-02  0.1300439E+00
        -11   -1    0    0    0    0  0.00000000000E+00  0.00000000000E+00  0.45593999997E+02  0.45594000000E+02  0.51100000000E-03 0.  1.
         11   -1    0    0    0    0 -0.00000000000E+00 -0.00000000000E+00 -0.45593999997E+02  0.45594000000E+02  0.51100000000E-03 0. -1.
    9900012    2    1    2    0    0  0.92709193156E+01  0.10515898606E+01  0.39574111330E+02  0.50528854981E+02  0.29999985199E+02 0.  0.
         12    1    1    2    0    0 -0.92709193156E+01 -0.10515898606E+01 -0.39574111330E+02  0.40659145019E+02  0.00000000000E+00 0. -1.
         11    1    3    3    0    0  0.14193910139E+02  0.48800454262E+01  0.31915181078E+02  0.35268409546E+02  0.51100000000E-03 0. -1.
        -11    1    3    3    0    0  0.36332707291E+01 -0.48313072921E+00  0.69074393246E+00  0.37297719680E+01  0.51100000000E-03 0.  1.
         12    1    3    3    0    0 -0.85562615525E+01 -0.33453248364E+01  0.69681863188E+01  0.11530673466E+02  0.00000000000E+00 0. -1.
</event>
<event>
 7    1  0.5329250E-013  0.5052886E+02  0.7816164E-02  0.1300439E+00
        -11   -1    0    0    0    0  0.00000000000E+00  0.00000000000E+00  0.45593999997E+02  0.45594000000E+02  0.51100000000E-03 0. -1.
         11   -1    0    0    0    0 -0.00000000000E+00 -0.00000000000E+00 -0.45593999997E+02  0.45594000000E+02  0.51100000000E-03 0.  1.
    9900012    2    1    2    0    0  0.18710897562E+02  0.35018355713E+02  0.87625650706E+01  0.50528862392E+02  0.30000007727E+02 0.  0.
         12    1    1    2    0    0 -0.18710897562E+02 -0.35018355713E+02 -0.87625650706E+01  0.40659137608E+02  0.00000000000E+00 0. -1.
         11    1    3    3    0    0  0.13936810993E+01  0.45105867776E+01 -0.48036430247E+01  0.67351857179E+01  0.51100000000E-03 0. -1.
        -11    1    3    3    0    0  0.45661401794E+01  0.27874402586E+02  0.65179917575E+01  0.28988207473E+02  0.51100000000E-03 0.  1.
         12    1    3    3    0    0  0.12751076284E+02  0.26333663486E+01  0.70482163377E+01  0.14805469201E+02  0.00000000000E+00 0. -1.
</event>
<event>
 7    1  0.5457632E-013  0.5052884E+02  0.7816164E-02  0.1300439E+00
        -11   -1    0    0    0    0  0.00000000000E+00  0.00000000000E+00  0.45593999997E+02  0.45594000000E+02  0.51100000000E-03 0.  1.
         11   -1    0    0    0    0 -0.00000000000E+00 -0.00000000000E+00 -0.45593999997E+02  0.45594000000E+02  0.51100000000E-03 0. -1.
    9900012    2    1    2    0    0  0.36053295761E+02 -0.17708772350E+02 -0.63029188763E+01  0.50528836952E+02  0.29999930400E+02 0.  0.
         12    1    1    2    0    0 -0.36053295761E+02  0.17708772350E+02  0.63029188763E+01  0.40659163048E+02  0.00000000000E+00 0. -1.
         11    1    3    3    0    0  0.28561288256E+01  0.47799634783E+01  0.78965237139E+00  0.56239731375E+01  0.51100000000E-03 0. -1.
        -11    1    3    3    0    0  0.19751714119E+02 -0.22537720953E+01 -0.51292834593E+01  0.20530933938E+02  0.51100000000E-03 0.  1.
         12    1    3    3    0    0  0.13445452817E+02 -0.20234963733E+02 -0.19632877883E+01  0.24373929877E+02  0.00000000000E+00 0. -1.
</event>
<event>
 7    1  0.5329250E-013  0.5052884E+02  0.7816164E-02  0.1300439E+00
        -11   -1    0    0    0    0  0.00000000000E+00  0.00000000000E+00  0.45593999997E+02  0.45594000000E+02  0.51100000000E-03 0.  1.
         11   -1    0    0    0    0 -0.00000000000E+00 -0.00000000000E+00 -0.45593999997E+02  0.45594000000E+02  0.51100000000E-03 0. -1.
    9900012    2    1    2    0    0 -0.17400648391E+02 -0.28137219312E+02  0.23636440628E+02  0.50528843582E+02  0.29999950552E+02 0.  0.
         12    1    1    2    0    0  0.17400648391E+02  0.28137219312E+02 -0.23636440628E+02  0.40659156418E+02  0.00000000000E+00 0. -1.
         11    1    3    3    0    0 -0.10169966303E+02  0.15331180023E+01  0.67884085850E+01  0.12323195884E+02  0.51100000000E-03 0. -1.
        -11    1    3    3    0    0 -0.13561398426E+01 -0.67929217751E+01 -0.28105481029E+01  0.74754319217E+01  0.51100000000E-03 0.  1.
        -12    1    3    3    0    0 -0.58745422461E+01 -0.22877415539E+02  0.19658580146E+02  0.30730215777E+02  0.00000000000E+00 0.  1.
</event>
<event>
 7    1  0.5329250E-013  0.5052886E+02  0.7816164E-02  0.1300439E+00
        -11   -1    0    0    0    0  0.00000000000E+00  0.00000000000E+00  0.45593999997E+02  0.45594000000E+02  0.51100000000E-03 0.  1.
         11   -1    0    0    0    0 -0.00000000000E+00 -0.00000000000E+00 -0.45593999997E+02  0.45594000000E+02  0.51100000000E-03 0. -1.
    9900012    2    1    2    0    0  0.12829734456E+02  0.36362197233E+02 -0.12897823376E+02  0.50528864228E+02  0.30000013308E+02 0.  0.
         12    1    1    2    0    0 -0.12829734456E+02 -0.36362197233E+02  0.12897823376E+02  0.40659135772E+02  0.00000000000E+00 0. -1.
         11    1    3    3    0    0  0.34516321906E+01  0.83036570444E+01 -0.12646367657E+02  0.15517573917E+02  0.51100000000E-03 0. -1.
        -11    1    3    3    0    0  0.38567569874E+01  0.27533933167E+02 -0.43152376747E+01  0.28135623799E+02  0.51100000000E-03 0.  1.
         12    1    3    3    0    0  0.55213452784E+01  0.52460702238E+00  0.40637819557E+01  0.68756665128E+01  0.00000000000E+00 0. -1.
</event>
<event>
 7    1  0.5329250E-013  0.5052886E+02  0.7816164E-02  0.1300439E+00
        -11   -1    0    0    0    0  0.00000000000E+00  0.00000000000E+00  0.45593999997E+02  0.45594000000E+02  0.51100000000E-03 0. -1.
         11   -1    0    0    0    0 -0.00000000000E+00 -0.00000000000E+00 -0.45593999997E+02  0.45594000000E+02  0.51100000000E-03 0.  1.
    9900012    2    1    2    0    0  0.19988956782E+02 -0.28310365226E+02 -0.21263360683E+02  0.50528859822E+02  0.29999999916E+02 0.  0.
         12    1    1    2    0    0 -0.19988956782E+02  0.28310365226E+02  0.21263360683E+02  0.40659140178E+02  0.00000000000E+00 0. -1.
         11    1    3    3    0    0  0.91000408741E+01 -0.21941631342E+01  0.24505597185E+01  0.96762771232E+01  0.51100000000E-03 0. -1.
        -11    1    3    3    0    0 -0.46274093010E+01 -0.44930277360E+01 -0.64975759286E+01  0.91552557738E+01  0.51100000000E-03 0.  1.
        -12    1    3    3    0    0  0.15516325209E+02 -0.21623174356E+02 -0.17216344473E+02  0.31697326925E+02  0.00000000000E+00 0.  1.
</event>
<event>
 7    1  0.5329250E-013  0.5052886E+02  0.7816164E-02  0.1300439E+00
        -11   -1    0    0    0    0  0.00000000000E+00  0.00000000000E+00  0.45593999997E+02  0.45594000000E+02  0.51100000000E-03 0.  1.
         11   -1    0    0    0    0 -0.00000000000E+00 -0.00000000000E+00 -0.45593999997E+02  0.45594000000E+02  0.51100000000E-03 0. -1.
    9900012    2    1    2    0    0  0.19556742959E+02 -0.35270905346E+02  0.51636051326E+01  0.50528858629E+02  0.29999996288E+02 0.  0.
         12    1    1    2    0    0 -0.19556742959E+02  0.35270905346E+02 -0.51636051326E+01  0.40659141371E+02  0.00000000000E+00 0. -1.
         11    1    3    3    0    0  0.90422213489E+01 -0.16524797288E+02 -0.73317151928E+01  0.20213479173E+02  0.51100000000E-03 0. -1.
        -11    1    3    3    0    0  0.13598036754E+02 -0.10154203858E+02  0.31674989682E+01  0.17264052524E+02  0.51100000000E-03 0.  1.
        -12    1    3    3    0    0 -0.30835151448E+01 -0.85919041995E+01  0.93278213572E+01  0.13051326932E+02  0.00000000000E+00 0.  1.
</event>
<event>
 7    1  0.5329250E-013  0.5052885E+02  0.7816164E-02  0.1300439E+00
        -11   -1    0    0    0    0  0.00000000000E+00  0.00000000000E+00  0.45593999997E+02  0.45594000000E+02  0.51100000000E-03 0.  1.
         11   -1    0    0    0    0 -0.00000000000E+00 -0.00000000000E+00 -0.45593999997E+02  0.45594000000E+02  0.51100000000E-03 0. -1.
    9900012    2    1    2    0    0 -0.39760216814E+01 -0.22489733433E+02  0.33638806752E+02  0.50528853698E+02  0.29999981300E+02 0.  0.
         12    1    1    2    0    0  0.39760216814E+01  0.22489733433E+02 -0.33638806752E+02  0.40659146302E+02  0.00000000000E+00 0. -1.
         11    1    3    3    0    0 -0.25521816189E+00 -0.10309622334E+02  0.32571871384E+02  0.34165483382E+02  0.51100000000E-03 0. -1.
        -11    1    3    3    0    0 -0.40313647399E+01 -0.52855328305E+01  0.50922016320E+01  0.83737253770E+01  0.51100000000E-03 0.  1.
         12    1    3    3    0    0  0.31056122036E+00 -0.68945782679E+01 -0.40252662635E+01  0.79896449393E+01  0.00000000000E+00 0. -1.
</event>
<event>
 7    1  0.5329250E-013  0.5052886E+02  0.7816164E-02  0.1300439E+00
        -11   -1    0    0    0    0  0.00000000000E+00  0.00000000000E+00  0.45593999997E+02  0.45594000000E+02  0.51100000000E-03 0.  1.
         11   -1    0    0    0    0 -0.00000000000E+00 -0.00000000000E+00 -0.45593999997E+02  0.45594000000E+02  0.51100000000E-03 0. -1.
    9900012    2    1    2    0    0  0.37978085608E+02  0.14428519918E+02  0.16275285722E+01  0.50528855607E+02  0.29999987105E+02 0.  0.
         12    1    1    2    0    0 -0.37978085608E+02 -0.14428519918E+02 -0.16275285722E+01  0.40659144393E+02  0.00000000000E+00 0. -1.
         11    1    3    3    0    0  0.94030526127E+01  0.12223888150E+02  0.10756312527E+01  0.15459554418E+02  0.51100000000E-03 0. -1.
        -11    1    3    3    0    0  0.22243085926E+02  0.55553601822E+01  0.84244414177E+01  0.24425153259E+02  0.51100000000E-03 0.  1.
         12    1    3    3    0    0  0.63319470698E+01 -0.33507284144E+01 -0.78725440983E+01  0.10644147931E+02  0.00000000000E+00 0. -1.
</event>
<event>
 7    1  0.5329250E-013  0.5052886E+02  0.7816164E-02  0.1300439E+00
        -11   -1    0    0    0    0  0.00000000000E+00  0.00000000000E+00  0.45593999997E+02  0.45594000000E+02  0.51100000000E-03 0.  1.
         11   -1    0    0    0    0 -0.00000000000E+00 -0.00000000000E+00 -0.45593999997E+02  0.45594000000E+02  0.51100000000E-03 0. -1.
    9900012    2    1    2    0    0 -0.16807882882E+02 -0.15364946668E+02  0.33683519424E+02  0.50528855962E+02  0.29999988183E+02 0.  0.
         12    1    1    2    0    0  0.16807882882E+02  0.15364946668E+02 -0.33683519424E+02  0.40659144038E+02  0.00000000000E+00 0. -1.
         11    1    3    3    0    0 -0.35399687697E+00  0.66947074751E+01  0.14881070587E+02  0.16321479223E+02  0.51100000000E-03 0. -1.
        -11    1    3    3    0    0  0.25028154317E-01 -0.43034269951E+01  0.21466366190E+01  0.48091744973E+01  0.51100000000E-03 0.  1.
        -12    1    3    3    0    0 -0.16478914159E+02 -0.17756227148E+02  0.16655812218E+02  0.29398202242E+02  0.00000000000E+00 0.  1.
</event>
<event>
 7    1  0.5329250E-013  0.5052885E+02  0.7816164E-02  0.1300439E+00
        -11   -1    0    0    0    0  0.00000000000E+00  0.00000000000E+00  0.45593999997E+02  0.45594000000E+02  0.51100000000E-03 0. -1.
         11   -1    0    0    0    0 -0.00000000000E+00 -0.00000000000E+00 -0.45593999997E+02  0.45594000000E+02  0.51100000000E-03 0.  1.
    9900012    2    1    2    0    0 -0.18723269261E+02  0.34452848362E+02 -0.10752079708E+02  0.50528846171E+02  0.29999958420E+02 0.  0.
         12    1    1    2    0    0  0.18723269261E+02 -0.34452848362E+02  0.10752079708E+02  0.40659153829E+02  0.00000000000E+00 0. -1.
         11    1    3    3    0    0  0.87827775724E+00  0.10206588925E+02  0.28285217359E+01  0.10627622724E+02  0.51100000000E-03 0. -1.
        -11    1    3    3    0    0 -0.15041534193E+02  0.20293878588E+02 -0.24254519657E+00  0.25261593130E+02  0.51100000000E-03 0.  1.
        -12    1    3    3    0    0 -0.45600128257E+01  0.39523808490E+01 -0.13338056248E+02  0.14639630317E+02  0.00000000000E+00 0.  1.
</event>
<event>
 7    1  0.5329250E-013  0.5052886E+02  0.7816164E-02  0.1300439E+00
        -11   -1    0    0    0    0  0.00000000000E+00  0.00000000000E+00  0.45593999997E+02  0.45594000000E+02  0.51100000000E-03 0.  1.
         11   -1    0    0    0    0 -0.00000000000E+00 -0.00000000000E+00 -0.45593999997E+02  0.45594000000E+02  0.51100000000E-03 0. -1.
    9900012    2    1    2    0    0 -0.34409753022E+02 -0.19346665618E+02  0.97386580058E+01  0.50528855477E+02  0.29999986709E+02 0.  0.
         12    1    1    2    0    0  0.34409753022E+02  0.19346665618E+02 -0.97386580058E+01  0.40659144523E+02  0.00000000000E+00 0. -1.
         11    1    3    3    0    0  0.44496547269E+01  0.64122871678E+00  0.51843449987E+00  0.45254144614E+01  0.51100000000E-03 0. -1.
        -11    1    3    3    0    0 -0.60235848772E+01 -0.54088193894E+01  0.57074342191E+01  0.99052363721E+01  0.51100000000E-03 0.  1.
         12    1    3    3    0    0 -0.32835822872E+02 -0.14579074945E+02  0.35127892868E+01  0.36098204644E+02  0.00000000000E+00 0. -1.
</event>
<event>
 7    1  0.5329250E-013  0.5052885E+02  0.7816164E-02  0.1300439E+00
        -11   -1    0    0    0    0  0.00000000000E+00  0.00000000000E+00  0.45593999997E+02  0.45594000000E+02  0.51100000000E-03 0.  1.
         11   -1    0    0    0    0 -0.00000000000E+00 -0.00000000000E+00 -0.45593999997E+02  0.45594000000E+02  0.51100000000E-03 0. -1.
    9900012    2    1    2    0    0  0.37794740349E+02  0.12592118005E+02  0.81340429982E+01  0.50528849869E+02  0.29999969662E+02 0.  0.
         12    1    1    2    0    0 -0.37794740349E+02 -0.12592118005E+02 -0.81340429982E+01  0.40659150131E+02  0.00000000000E+00 0. -1.
         11    1    3    3    0    0  0.12886654588E+02  0.46836827501E+01  0.36377226684E+01  0.14185759657E+02  0.51100000000E-03 0.  1.
        -11    1    3    3    0    0 -0.33631946926E+01  0.69882257604E+01  0.44479024927E+00  0.77681539922E+01  0.51100000000E-03 0. -1.
         12    1    3    3    0    0  0.28271280453E+02  0.92020949414E+00  0.40515300805E+01  0.28574936220E+02  0.00000000000E+00 0. -1.
</event>
<event>
 7    1  0.5329250E-013  0.5052884E+02  0.7816164E-02  0.1300439E+00
        -11   -1    0    0    0    0  0.00000000000E+00  0.00000000000E+00  0.45593999997E+02  0.45594000000E+02  0.51100000000E-03 0. -1.
         11   -1    0    0    0    0 -0.00000000000E+00 -0.00000000000E+00 -0.45593999997E+02  0.45594000000E+02  0.51100000000E-03 0.  1.
    9900012    2    1    2    0    0  0.30671793482E+02  0.25153521438E+02 -0.89279975914E+01  0.50528835017E+02  0.29999924517E+02 0.  0.
         12    1    1    2    0    0 -0.30671793482E+02 -0.25153521438E+02  0.89279975914E+01  0.40659164983E+02  0.00000000000E+00 0. -1.
         11    1    3    3    0    0  0.46051211584E+01  0.42895972030E+01 -0.21468991998E+01  0.66495835571E+01  0.51100000000E-03 0. -1.
        -11    1    3    3    0    0  0.17605156227E+02  0.27081548936E+02 -0.80874015755E+01  0.33298016202E+02  0.51100000000E-03 0.  1.
         12    1    3    3    0    0  0.84615160965E+01 -0.62176247002E+01  0.13063031839E+01  0.10581235257E+02  0.00000000000E+00 0. -1.
</event>
<event>
 7    1  0.5329250E-013  0.5052886E+02  0.7816164E-02  0.1300439E+00
        -11   -1    0    0    0    0  0.00000000000E+00  0.00000000000E+00  0.45593999997E+02  0.45594000000E+02  0.51100000000E-03 0.  1.
         11   -1    0    0    0    0 -0.00000000000E+00 -0.00000000000E+00 -0.45593999997E+02  0.45594000000E+02  0.51100000000E-03 0. -1.
    9900012    2    1    2    0    0  0.37519170997E+02 -0.13062131838E+02  0.86520851694E+01  0.50528855171E+02  0.29999985778E+02 0.  0.
         12    1    1    2    0    0 -0.37519170997E+02  0.13062131838E+02 -0.86520851694E+01  0.40659144829E+02  0.00000000000E+00 0. -1.
         11    1    3    3    0    0 -0.18489760536E+01  0.88066345458E+00 -0.23306978516E+01  0.31026494007E+01  0.51100000000E-03 0. -1.
        -11    1    3    3    0    0  0.12390097997E+02  0.35678268701E+01  0.78878792238E+01  0.15114977865E+02  0.51100000000E-03 0.  1.
        -12    1    3    3    0    0  0.26978049053E+02 -0.17510622162E+02  0.30949037972E+01  0.32311227905E+02  0.00000000000E+00 0.  1.
</event>
<event>
 7    1  0.5329250E-013  0.5052886E+02  0.7816164E-02  0.1300439E+00
        -11   -1    0    0    0    0  0.00000000000E+00  0.00000000000E+00  0.45593999997E+02  0.45594000000E+02  0.51100000000E-03 0.  1.
         11   -1    0    0    0    0 -0.00000000000E+00 -0.00000000000E+00 -0.45593999997E+02  0.45594000000E+02  0.51100000000E-03 0. -1.
    9900012    2    1    2    0    0 -0.12676794449E+01 -0.60887074937E+01  0.40180672676E+02  0.50528858017E+02  0.29999994429E+02 0.  0.
         12    1    1    2    0    0  0.12676794449E+01  0.60887074937E+01 -0.40180672676E+02  0.40659141983E+02  0.00000000000E+00 0. -1.
         11    1    3    3    0    0  0.20545058882E+01 -0.59195087879E+01  0.19427640666E+01  0.65601761573E+01  0.51100000000E-03 0. -1.
        -11    1    3    3    0    0  0.14119663248E+01  0.51313085171E+01  0.25661789107E+00  0.53282106756E+01  0.51100000000E-03 0.  1.
        -12    1    3    3    0    0 -0.47341516579E+01 -0.53005072229E+01  0.37981290718E+02  0.38640471184E+02  0.00000000000E+00 0.  1.
</event>
<event>
 7    1  0.5329250E-013  0.5052885E+02  0.7816164E-02  0.1300439E+00
        -11   -1    0    0    0    0  0.00000000000E+00  0.00000000000E+00  0.45593999997E+02  0.45594000000E+02  0.51100000000E-03 0.  1.
         11   -1    0    0    0    0 -0.00000000000E+00 -0.00000000000E+00 -0.45593999997E+02  0.45594000000E+02  0.51100000000E-03 0. -1.
    9900012    2    1    2    0    0  0.13840774712E+02  0.12269093531E+02  0.36208678289E+02  0.50528854852E+02  0.29999984810E+02 0.  0.
         12    1    1    2    0    0 -0.13840774712E+02 -0.12269093531E+02 -0.36208678289E+02  0.40659145148E+02  0.00000000000E+00 0. -1.
         11    1    3    3    0    0 -0.33153140650E+01 -0.20118075733E+01  0.14855331561E+00  0.38808176214E+01  0.51100000000E-03 0. -1.
        -11    1    3    3    0    0  0.13093038378E+02 -0.15638142042E+01  0.14768736703E+02  0.19798705838E+02  0.51100000000E-03 0.  1.
        -12    1    3    3    0    0  0.40630503995E+01  0.15844715308E+02  0.21291388271E+02  0.26849331393E+02  0.00000000000E+00 0.  1.
</event>
<event>
 7    1  0.5329250E-013  0.5052885E+02  0.7816164E-02  0.1300439E+00
        -11   -1    0    0    0    0  0.00000000000E+00  0.00000000000E+00  0.45593999997E+02  0.45594000000E+02  0.51100000000E-03 0.  1.
         11   -1    0    0    0    0 -0.00000000000E+00 -0.00000000000E+00 -0.45593999997E+02  0.45594000000E+02  0.51100000000E-03 0. -1.
    9900012    2    1    2    0    0 -0.39281887947E+01  0.16583804839E+02  0.36914947077E+02  0.50528848904E+02  0.29999966728E+02 0.  0.
         12    1    1    2    0    0  0.39281887947E+01 -0.16583804839E+02 -0.36914947077E+02  0.40659151096E+02  0.00000000000E+00 0. -1.
         11    1    3    3    0    0 -0.52708547623E+01  0.17622190942E+02  0.13982376838E+02  0.23104769764E+02  0.51100000000E-03 0. -1.
        -11    1    3    3    0    0 -0.43268142008E+01  0.40035515670E+01  0.16347316425E+02  0.17377701253E+02  0.51100000000E-03 0.  1.
         12    1    3    3    0    0  0.56694801684E+01 -0.50419376706E+01  0.65852538138E+01  0.10046377887E+02  0.00000000000E+00 0. -1.
</event>
<event>
 7    1  0.5329250E-013  0.5052884E+02  0.7816164E-02  0.1300439E+00
        -11   -1    0    0    0    0  0.00000000000E+00  0.00000000000E+00  0.45593999997E+02  0.45594000000E+02  0.51100000000E-03 0.  1.
         11   -1    0    0    0    0 -0.00000000000E+00 -0.00000000000E+00 -0.45593999997E+02  0.45594000000E+02  0.51100000000E-03 0. -1.
    9900012    2    1    2    0    0 -0.33734621452E+02  0.13735659557E+02  0.18068608537E+02  0.50528835689E+02  0.29999926561E+02 0.  0.
         12    1    1    2    0    0  0.33734621452E+02 -0.13735659557E+02 -0.18068608537E+02  0.40659164311E+02  0.00000000000E+00 0. -1.
         11    1    3    3    0    0  0.38578441046E+01 -0.53945492196E+00 -0.30918958674E-01  0.38955011220E+01  0.51100000000E-03 0. -1.
        -11    1    3    3    0    0 -0.13784327043E+02 -0.22332203236E+01  0.68580708793E+01  0.15557251733E+02  0.51100000000E-03 0.  1.
        -12    1    3    3    0    0 -0.23808138514E+02  0.16508334802E+02  0.11241456617E+02  0.31076082834E+02  0.00000000000E+00 0.  1.
</event>
<event>
 7    1  0.5329250E-013  0.5052887E+02  0.7816164E-02  0.1300439E+00
        -11   -1    0    0    0    0  0.00000000000E+00  0.00000000000E+00  0.45593999997E+02  0.45594000000E+02  0.51100000000E-03 0. -1.
         11   -1    0    0    0    0 -0.00000000000E+00 -0.00000000000E+00 -0.45593999997E+02  0.45594000000E+02  0.51100000000E-03 0.  1.
    9900012    2    1    2    0    0  0.23040862320E+02 -0.28905421500E+02 -0.16933987062E+02  0.50528872533E+02  0.30000038551E+02 0.  0.
         12    1    1    2    0    0 -0.23040862320E+02  0.28905421500E+02  0.16933987062E+02  0.40659127467E+02  0.00000000000E+00 0. -1.
         11    1    3    3    0    0  0.26162477746E+01 -0.16252267298E+02 -0.18493303809E+02  0.24758498153E+02  0.51100000000E-03 0.  1.
        -11    1    3    3    0    0  0.13207781263E+01 -0.39442862567E+00  0.27121954638E+01  0.30423729710E+01  0.51100000000E-03 0. -1.
        -12    1    3    3    0    0  0.19103836419E+02 -0.12258725577E+02 -0.11528787164E+01  0.22728001409E+02  0.00000000000E+00 0.  1.
</event>
<event>
 7    1  0.5329250E-013  0.5052886E+02  0.7816164E-02  0.1300439E+00
        -11   -1    0    0    0    0  0.00000000000E+00  0.00000000000E+00  0.45593999997E+02  0.45594000000E+02  0.51100000000E-03 0.  1.
         11   -1    0    0    0    0 -0.00000000000E+00 -0.00000000000E+00 -0.45593999997E+02  0.45594000000E+02  0.51100000000E-03 0. -1.
    9900012    2    1    2    0    0  0.58163110654E+01  0.39517844759E+02 -0.75944732971E+01  0.50528861379E+02  0.30000004646E+02 0.  0.
         12    1    1    2    0    0 -0.58163110654E+01 -0.39517844759E+02  0.75944732971E+01  0.40659138621E+02  0.00000000000E+00 0. -1.
         11    1    3    3    0    0  0.69719379879E+01  0.60038422802E+01  0.48989905815E+01  0.10423730158E+02  0.51100000000E-03 0. -1.
        -11    1    3    3    0    0 -0.55943002442E+01  0.62303488596E+01  0.23937473946E+01  0.87088155902E+01  0.51100000000E-03 0.  1.
        -12    1    3    3    0    0  0.44386733216E+01  0.27283653619E+02 -0.14887211273E+02  0.31396315630E+02  0.00000000000E+00 0.  1.
</event>
<event>
 7    1  0.5329250E-013  0.5052887E+02  0.7816164E-02  0.1300439E+00
        -11   -1    0    0    0    0  0.00000000000E+00  0.00000000000E+00  0.45593999997E+02  0.45594000000E+02  0.51100000000E-03 0.  1.
         11   -1    0    0    0    0 -0.00000000000E+00 -0.00000000000E+00 -0.45593999997E+02  0.45594000000E+02  0.51100000000E-03 0. -1.
    9900012    2    1    2    0    0 -0.23645586347E+02 -0.32237485686E+02  0.74024334028E+01  0.50528865020E+02  0.30000015714E+02 0.  0.
         12    1    1    2    0    0  0.23645586347E+02  0.32237485686E+02 -0.74024334028E+01  0.40659134980E+02  0.00000000000E+00 0. -1.
         11    1    3    3    0    0  0.14970752333E+01  0.75887077873E+00  0.18849080356E+01  0.25238854326E+01  0.51100000000E-03 0. -1.
        -11    1    3    3    0    0 -0.14165760061E+02 -0.32567848784E+02 -0.42007655909E+00  0.35517742004E+02  0.51100000000E-03 0.  1.
         12    1    3    3    0    0 -0.10976901520E+02 -0.42850768081E+00  0.59376019263E+01  0.12487237583E+02  0.00000000000E+00 0. -1.
</event>
<event>
 7    1  0.5329250E-013  0.5052886E+02  0.7816164E-02  0.1300439E+00
        -11   -1    0    0    0    0  0.00000000000E+00  0.00000000000E+00  0.45593999997E+02  0.45594000000E+02  0.51100000000E-03 0. -1.
         11   -1    0    0    0    0 -0.00000000000E+00 -0.00000000000E+00 -0.45593999997E+02  0.45594000000E+02  0.51100000000E-03 0.  1.
    9900012    2    1    2    0    0 -0.32252110542E+02  0.18971834322E+02 -0.15907117560E+02  0.50528861777E+02  0.30000005857E+02 0.  0.
         12    1    1    2    0    0  0.32252110542E+02 -0.18971834322E+02  0.15907117560E+02  0.40659138223E+02  0.00000000000E+00 0. -1.
         11    1    3    3    0    0 -0.35480029445E+01  0.25873386163E+01 -0.50563839674E+01  0.66969892561E+01  0.51100000000E-03 0. -1.
        -11    1    3    3    0    0 -0.27398774727E+02  0.31753185826E+01 -0.15529271040E+01  0.27625840937E+02  0.51100000000E-03 0.  1.
         12    1    3    3    0    0 -0.13053328706E+01  0.13209177123E+02 -0.92978064890E+01  0.16206031583E+02  0.00000000000E+00 0. -1.
</event>
<event>
 7    1  0.5329250E-013  0.5052887E+02  0.7816164E-02  0.1300439E+00
        -11   -1    0    0    0    0  0.00000000000E+00  0.00000000000E+00  0.45593999997E+02  0.45594000000E+02  0.51100000000E-03 0.  1.
         11   -1    0    0    0    0 -0.00000000000E+00 -0.00000000000E+00 -0.45593999997E+02  0.45594000000E+02  0.51100000000E-03 0. -1.
    9900012    2    1    2    0    0 -0.27684501939E+02  0.15048769641E+02  0.25695681252E+02  0.50528866336E+02  0.30000019715E+02 0.  0.
         12    1    1    2    0    0  0.27684501939E+02 -0.15048769641E+02 -0.25695681252E+02  0.40659133664E+02  0.00000000000E+00 0. -1.
         11    1    3    3    0    0 -0.13788537533E+02  0.11444596442E+02  0.17489303129E+02  0.25039534325E+02  0.51100000000E-03 0. -1.
        -11    1    3    3    0    0  0.25116405351E+01  0.17781976095E+01  0.84350134710E+01  0.89788516768E+01  0.51100000000E-03 0.  1.
         12    1    3    3    0    0 -0.16407604940E+02  0.18259755893E+01 -0.22863534763E+00  0.16510480334E+02  0.00000000000E+00 0. -1.
</event>
<event>
 7    1  0.5329250E-013  0.5052887E+02  0.7816164E-02  0.1300439E+00
        -11   -1    0    0    0    0  0.00000000000E+00  0.00000000000E+00  0.45593999997E+02  0.45594000000E+02  0.51100000000E-03 0.  1.
         11   -1    0    0    0    0 -0.00000000000E+00 -0.00000000000E+00 -0.45593999997E+02  0.45594000000E+02  0.51100000000E-03 0. -1.
    9900012    2    1    2    0    0  0.31633216284E+02 -0.14856948360E+02  0.20779206234E+02  0.50528871890E+02  0.30000036596E+02 0.  0.
         12    1    1    2    0    0 -0.31633216284E+02  0.14856948360E+02 -0.20779206234E+02  0.40659128110E+02  0.00000000000E+00 0. -1.
         11    1    3    3    0    0  0.22256354411E+02 -0.14028143216E+02  0.94033446924E+01  0.27938450305E+02  0.51100000000E-03 0. -1.
        -11    1    3    3    0    0  0.35895222050E+01 -0.85638039285E+01  0.82936642633E+01  0.12450231908E+02  0.51100000000E-03 0.  1.
        -12    1    3    3    0    0  0.57873396670E+01  0.77349987848E+01  0.30821972778E+01  0.10140189677E+02  0.00000000000E+00 0.  1.
</event>
<event>
 7    1  0.5329250E-013  0.5052886E+02  0.7816164E-02  0.1300439E+00
        -11   -1    0    0    0    0  0.00000000000E+00  0.00000000000E+00  0.45593999997E+02  0.45594000000E+02  0.51100000000E-03 0. -1.
         11   -1    0    0    0    0 -0.00000000000E+00 -0.00000000000E+00 -0.45593999997E+02  0.45594000000E+02  0.51100000000E-03 0.  1.
    9900012    2    1    2    0    0  0.99158709920E+01 -0.17438535460E+02 -0.35365788735E+02  0.50528855526E+02  0.29999986857E+02 0.  0.
         12    1    1    2    0    0 -0.99158709920E+01  0.17438535460E+02  0.35365788735E+02  0.40659144474E+02  0.00000000000E+00 0. -1.
         11    1    3    3    0    0 -0.64537640119E+01 -0.31670245471E+01 -0.93400174170E+01  0.11786307310E+02  0.51100000000E-03 0. -1.
        -11    1    3    3    0    0  0.57083419951E+01  0.42400391184E+01 -0.87092955578E+01  0.11243439395E+02  0.51100000000E-03 0.  1.
         12    1    3    3    0    0  0.10661293009E+02 -0.18511550031E+02 -0.17316475760E+02  0.27499108820E+02  0.00000000000E+00 0. -1.
</event>
<event>
 7    1  0.5329250E-013  0.5052886E+02  0.7816164E-02  0.1300439E+00
        -11   -1    0    0    0    0  0.00000000000E+00  0.00000000000E+00  0.45593999997E+02  0.45594000000E+02  0.51100000000E-03 0.  1.
         11   -1    0    0    0    0 -0.00000000000E+00 -0.00000000000E+00 -0.45593999997E+02  0.45594000000E+02  0.51100000000E-03 0. -1.
    9900012    2    1    2    0    0 -0.37200476539E+02  0.13626541834E+02  0.91437232766E+01  0.50528858686E+02  0.29999996461E+02 0.  0.
         12    1    1    2    0    0  0.37200476539E+02 -0.13626541834E+02 -0.91437232766E+01  0.40659141314E+02  0.00000000000E+00 0. -1.
         11    1    3    3    0    0  0.24540167771E+00 -0.65878122831E+00  0.13649350166E+01  0.15353379272E+01  0.51100000000E-03 0. -1.
        -11    1    3    3    0    0 -0.26498211042E+02  0.21545684866E+02  0.10185098818E+02  0.35638574087E+02  0.51100000000E-03 0.  1.
        -12    1    3    3    0    0 -0.10947667175E+02 -0.72603618040E+01 -0.24063105584E+01  0.13354946671E+02  0.00000000000E+00 0.  1.
</event>
<event>
 7    1  0.5329250E-013  0.5052886E+02  0.7816164E-02  0.1300439E+00
        -11   -1    0    0    0    0  0.00000000000E+00  0.00000000000E+00  0.45593999997E+02  0.45594000000E+02  0.51100000000E-03 0. -1.
         11   -1    0    0    0    0 -0.00000000000E+00 -0.00000000000E+00 -0.45593999997E+02  0.45594000000E+02  0.51100000000E-03 0.  1.
    9900012    2    1    2    0    0  0.36765038656E+02  0.77120937458E+01  0.15557031309E+02  0.50528859816E+02  0.29999999897E+02 0.  0.
         12    1    1    2    0    0 -0.36765038656E+02 -0.77120937458E+01 -0.15557031309E+02  0.40659140184E+02  0.00000000000E+00 0. -1.
         11    1    3    3    0    0  0.23225606339E+02  0.72101850800E+01  0.23825709810E+01  0.24435470191E+02  0.51100000000E-03 0.  1.
        -11    1    3    3    0    0  0.15046106205E+02 -0.56008260705E+01  0.79272665273E+01  0.17905198112E+02  0.51100000000E-03 0. -1.
         12    1    3    3    0    0 -0.15066738878E+01  0.61027347363E+01  0.52471938009E+01  0.81881915128E+01  0.00000000000E+00 0. -1.
</event>
<event>
 7    1  0.5329250E-013  0.5052886E+02  0.7816164E-02  0.1300439E+00
        -11   -1    0    0    0    0  0.00000000000E+00  0.00000000000E+00  0.45593999997E+02  0.45594000000E+02  0.51100000000E-03 0.  1.
         11   -1    0    0    0    0 -0.00000000000E+00 -0.00000000000E+00 -0.45593999997E+02  0.45594000000E+02  0.51100000000E-03 0. -1.
    9900012    2    1    2    0    0 -0.12008338924E+02 -0.28222990241E+02  0.26691345873E+02  0.50528864171E+02  0.30000013134E+02 0.  0.
         12    1    1    2    0    0  0.12008338924E+02  0.28222990241E+02 -0.26691345873E+02  0.40659135829E+02  0.00000000000E+00 0. -1.
         11    1    3    3    0    0 -0.18646171287E+01 -0.10596352207E+02  0.54255206150E+01  0.12049719969E+02  0.51100000000E-03 0. -1.
        -11    1    3    3    0    0  0.62027712705E+01 -0.13352604402E+02  0.13126282288E+02  0.19724748482E+02  0.51100000000E-03 0.  1.
        -12    1    3    3    0    0 -0.16346493065E+02 -0.42740336324E+01  0.81395429708E+01  0.18754395720E+02  0.00000000000E+00 0.  1.
</event>
<event>
 7    1  0.5329250E-013  0.5052886E+02  0.7816164E-02  0.1300439E+00
        -11   -1    0    0    0    0  0.00000000000E+00  0.00000000000E+00  0.45593999997E+02  0.45594000000E+02  0.51100000000E-03 0. -1.
         11   -1    0    0    0    0 -0.00000000000E+00 -0.00000000000E+00 -0.45593999997E+02  0.45594000000E+02  0.51100000000E-03 0.  1.
    9900012    2    1    2    0    0  0.26052180681E+02 -0.30644104303E+02  0.59488144663E+01  0.50528860310E+02  0.30000001399E+02 0.  0.
         12    1    1    2    0    0 -0.26052180681E+02  0.30644104303E+02 -0.59488144663E+01  0.40659139690E+02  0.00000000000E+00 0. -1.
         11    1    3    3    0    0  0.32469394248E+01 -0.15100112242E+02  0.95996071611E+00  0.15475061557E+02  0.51100000000E-03 0. -1.
        -11    1    3    3    0    0 -0.27140970657E+01  0.22845427171E+01  0.15966439893E+00  0.35511901230E+01  0.51100000000E-03 0.  1.
        -12    1    3    3    0    0  0.25519338322E+02 -0.17828534778E+02  0.48291893513E+01  0.31502608630E+02  0.00000000000E+00 0.  1.
</event>
<event>
 7    1  0.5329250E-013  0.5052886E+02  0.7816164E-02  0.1300439E+00
        -11   -1    0    0    0    0  0.00000000000E+00  0.00000000000E+00  0.45593999997E+02  0.45594000000E+02  0.51100000000E-03 0.  1.
         11   -1    0    0    0    0 -0.00000000000E+00 -0.00000000000E+00 -0.45593999997E+02  0.45594000000E+02  0.51100000000E-03 0. -1.
    9900012    2    1    2    0    0 -0.25823773611E+02  0.29714225169E+02  0.10166759679E+02  0.50528862487E+02  0.30000008017E+02 0.  0.
         12    1    1    2    0    0  0.25823773611E+02 -0.29714225169E+02 -0.10166759679E+02  0.40659137513E+02  0.00000000000E+00 0. -1.
         11    1    3    3    0    0  0.28723419702E+01  0.12478986387E+02  0.35017272915E+01  0.13275448916E+02  0.51100000000E-03 0. -1.
        -11    1    3    3    0    0 -0.11185507730E+02  0.11910633451E+02  0.92395932117E+01  0.18770957764E+02  0.51100000000E-03 0.  1.
         12    1    3    3    0    0 -0.17510607851E+02  0.53246053308E+01 -0.25745608244E+01  0.18482455807E+02  0.00000000000E+00 0. -1.
</event>
<event>
 7    1  0.5329250E-013  0.5052885E+02  0.7816164E-02  0.1300439E+00
        -11   -1    0    0    0    0  0.00000000000E+00  0.00000000000E+00  0.45593999997E+02  0.45594000000E+02  0.51100000000E-03 0. -1.
         11   -1    0    0    0    0 -0.00000000000E+00 -0.00000000000E+00 -0.45593999997E+02  0.45594000000E+02  0.51100000000E-03 0.  1.
    9900012    2    1    2    0    0  0.25422125631E+02  0.18236084955E+02 -0.25967804619E+02  0.50528854130E+02  0.29999982615E+02 0.  0.
         12    1    1    2    0    0 -0.25422125631E+02 -0.18236084955E+02  0.25967804619E+02  0.40659145870E+02  0.00000000000E+00 0. -1.
         11    1    3    3    0    0  0.18929188243E+02  0.16128782194E+02 -0.14574504257E+02  0.28824780263E+02  0.51100000000E-03 0. -1.
        -11    1    3    3    0    0  0.51079521873E+01  0.89526428484E+01 -0.10412812297E+02  0.14651540865E+02  0.51100000000E-03 0.  1.
         12    1    3    3    0    0  0.13849852007E+01 -0.68453400870E+01 -0.98048806604E+00  0.70525330031E+01  0.00000000000E+00 0. -1.
</event>
<event>
 7    1  0.5329250E-013  0.5052884E+02  0.7816164E-02  0.1300439E+00
        -11   -1    0    0    0    0  0.00000000000E+00  0.00000000000E+00  0.45593999997E+02  0.45594000000E+02  0.51100000000E-03 0.  1.
         11   -1    0    0    0    0 -0.00000000000E+00 -0.00000000000E+00 -0.45593999997E+02  0.45594000000E+02  0.51100000000E-03 0. -1.
    9900012    2    1    2    0    0  0.15301296679E+01  0.96001461118E+01  0.39479913573E+02  0.50528835254E+02  0.29999925237E+02 0.  0.
         12    1    1    2    0    0 -0.15301296679E+01 -0.96001461118E+01 -0.39479913573E+02  0.40659164746E+02  0.00000000000E+00 0. -1.
         11    1    3    3    0    0 -0.42205829101E+01  0.67096502350E+01  0.25269701687E+02  0.26483778997E+02  0.51100000000E-03 0. -1.
        -11    1    3    3    0    0  0.86124465008E+01 -0.14851718050E+01  0.16235340268E+02  0.18438173551E+02  0.51100000000E-03 0.  1.
         12    1    3    3    0    0 -0.28617339228E+01  0.43756676818E+01 -0.20251283824E+01  0.56068827054E+01  0.00000000000E+00 0. -1.
</event>
<event>
 7    1  0.5329250E-013  0.5052886E+02  0.7816164E-02  0.1300439E+00
        -11   -1    0    0    0    0  0.00000000000E+00  0.00000000000E+00  0.45593999997E+02  0.45594000000E+02  0.51100000000E-03 0.  1.
         11   -1    0    0    0    0 -0.00000000000E+00 -0.00000000000E+00 -0.45593999997E+02  0.45594000000E+02  0.51100000000E-03 0. -1.
    9900012    2    1    2    0    0 -0.23539353142E+02  0.61885137332E+01  0.32569417142E+02  0.50528858573E+02  0.29999996118E+02 0.  0.
         12    1    1    2    0    0  0.23539353142E+02 -0.61885137332E+01 -0.32569417142E+02  0.40659141427E+02  0.00000000000E+00 0. -1.
         11    1    3    3    0    0 -0.10658123247E+02  0.60448242179E+01  0.38913280339E+01  0.12856046247E+02  0.51100000000E-03 0. -1.
        -11    1    3    3    0    0  0.57325258431E+00  0.45706569878E+01  0.21123609183E+02  0.21620045999E+02  0.51100000000E-03 0.  1.
         12    1    3    3    0    0 -0.13454482480E+02 -0.44269674724E+01  0.75544799255E+01  0.16052766327E+02  0.00000000000E+00 0. -1.
</event>
<event>
 7    1  0.5329250E-013  0.5052883E+02  0.7816164E-02  0.1300439E+00
        -11   -1    0    0    0    0  0.00000000000E+00  0.00000000000E+00  0.45593999997E+02  0.45594000000E+02  0.51100000000E-03 0.  1.
         11   -1    0    0    0    0 -0.00000000000E+00 -0.00000000000E+00 -0.45593999997E+02  0.45594000000E+02  0.51100000000E-03 0. -1.
    9900012    2    1    2    0    0  0.16414842830E+02  0.63532722164E+01  0.36651829782E+02  0.50528834251E+02  0.29999922191E+02 0.  0.
         12    1    1    2    0    0 -0.16414842830E+02 -0.63532722164E+01 -0.36651829782E+02  0.40659165749E+02  0.00000000000E+00 0. -1.
         11    1    3    3    0    0  0.29275344216E+01 -0.14684893864E+01  0.19499229459E+01  0.38117080980E+01  0.51100000000E-03 0. -1.
        -11    1    3    3    0    0  0.66712679355E+01  0.17897301074E+02  0.20552224630E+02  0.28057318815E+02  0.51100000000E-03 0.  1.
        -12    1    3    3    0    0  0.68160404725E+01 -0.10075539471E+02  0.14149682206E+02  0.18659807338E+02  0.00000000000E+00 0.  1.
</event>
<event>
 7    1  0.5329250E-013  0.5052885E+02  0.7816164E-02  0.1300439E+00
        -11   -1    0    0    0    0  0.00000000000E+00  0.00000000000E+00  0.45593999997E+02  0.45594000000E+02  0.51100000000E-03 0.  1.
         11   -1    0    0    0    0 -0.00000000000E+00 -0.00000000000E+00 -0.45593999997E+02  0.45594000000E+02  0.51100000000E-03 0. -1.
    9900012    2    1    2    0    0  0.52620581072E+01 -0.37696312564E+02  0.14299123082E+02  0.50528853952E+02  0.29999982071E+02 0.  0.
         12    1    1    2    0    0 -0.52620581072E+01  0.37696312564E+02 -0.14299123082E+02  0.40659146048E+02  0.00000000000E+00 0. -1.
         11    1    3    3    0    0  0.38697897740E+01 -0.27196361193E+02  0.13047017467E+00  0.27470608981E+02  0.51100000000E-03 0. -1.
        -11    1    3    3    0    0  0.78166535837E+01 -0.56657899380E+01  0.50285902879E+01  0.10885217931E+02  0.51100000000E-03 0.  1.
         12    1    3    3    0    0 -0.64243852505E+01 -0.48341614331E+01  0.91400626198E+01  0.12173027039E+02  0.00000000000E+00 0. -1.
</event>
<event>
 7    1  0.5329250E-013  0.5052885E+02  0.7816164E-02  0.1300439E+00
        -11   -1    0    0    0    0  0.00000000000E+00  0.00000000000E+00  0.45593999997E+02  0.45594000000E+02  0.51100000000E-03 0.  1.
         11   -1    0    0    0    0 -0.00000000000E+00 -0.00000000000E+00 -0.45593999997E+02  0.45594000000E+02  0.51100000000E-03 0. -1.
    9900012    2    1    2    0    0 -0.27735382734E+02 -0.25378817247E+02  0.15486454024E+02  0.50528854922E+02  0.29999985022E+02 0.  0.
         12    1    1    2    0    0  0.27735382734E+02  0.25378817247E+02 -0.15486454024E+02  0.40659145078E+02  0.00000000000E+00 0. -1.
         11    1    3    3    0    0  0.42892524299E+01  0.26181498755E+01  0.15694663317E+01  0.52645626604E+01  0.51100000000E-03 0. -1.
        -11    1    3    3    0    0 -0.10734417762E+02 -0.13361463430E+02  0.40704467320E+01  0.17616042874E+02  0.51100000000E-03 0.  1.
        -12    1    3    3    0    0 -0.21290217402E+02 -0.14635503692E+02  0.98465409600E+01  0.27648249388E+02  0.00000000000E+00 0.  1.
</event>
<event>
 7    1  0.5329250E-013  0.5052886E+02  0.7816164E-02  0.1300439E+00
        -11   -1    0    0    0    0  0.00000000000E+00  0.00000000000E+00  0.45593999997E+02  0.45594000000E+02  0.51100000000E-03 0.  1.
         11   -1    0    0    0    0 -0.00000000000E+00 -0.00000000000E+00 -0.45593999997E+02  0.45594000000E+02  0.51100000000E-03 0. -1.
    9900012    2    1    2    0    0 -0.39176641565E+02 -0.32227911238E+00  0.10874387186E+02  0.50528863206E+02  0.30000010202E+02 0.  0.
         12    1    1    2    0    0  0.39176641565E+02  0.32227911238E+00 -0.10874387186E+02  0.40659136794E+02  0.00000000000E+00 0. -1.
         11    1    3    3    0    0  0.18921732440E+00 -0.65471807654E+01  0.71280947751E+01  0.96804501215E+01  0.51100000000E-03 0. -1.
        -11    1    3    3    0    0 -0.81086649688E+01  0.27687853646E+01  0.38668741891E+01  0.94004965946E+01  0.51100000000E-03 0.  1.
        -12    1    3    3    0    0 -0.31257193921E+02  0.34561162884E+01 -0.12058177864E+00  0.31447916490E+02  0.00000000000E+00 0.  1.
</event>
<event>
 7    1  0.5329250E-013  0.5052886E+02  0.7816164E-02  0.1300439E+00
        -11   -1    0    0    0    0  0.00000000000E+00  0.00000000000E+00  0.45593999997E+02  0.45594000000E+02  0.51100000000E-03 0. -1.
         11   -1    0    0    0    0 -0.00000000000E+00 -0.00000000000E+00 -0.45593999997E+02  0.45594000000E+02  0.51100000000E-03 0.  1.
    9900012    2    1    2    0    0  0.16655879337E+02  0.58351662995E+01 -0.36629195849E+02  0.50528862395E+02  0.30000007736E+02 0.  0.
         12    1    1    2    0    0 -0.16655879337E+02 -0.58351662995E+01  0.36629195849E+02  0.40659137605E+02  0.00000000000E+00 0. -1.
         11    1    3    3    0    0  0.13059992057E+02  0.43193809181E+01 -0.62815385296E+01  0.15122108669E+02  0.51100000000E-03 0. -1.
        -11    1    3    3    0    0  0.36568967429E+01 -0.17549963600E+01 -0.31632964390E+02  0.31891963601E+02  0.51100000000E-03 0.  1.
         12    1    3    3    0    0 -0.61009462265E-01  0.32707817415E+01  0.12853070704E+01  0.35147901246E+01  0.00000000000E+00 0. -1.
</event>
<event>
 7    1  0.5329250E-013  0.5052887E+02  0.7816164E-02  0.1300439E+00
        -11   -1    0    0    0    0  0.00000000000E+00  0.00000000000E+00  0.45593999997E+02  0.45594000000E+02  0.51100000000E-03 0. -1.
         11   -1    0    0    0    0 -0.00000000000E+00 -0.00000000000E+00 -0.45593999997E+02  0.45594000000E+02  0.51100000000E-03 0.  1.
    9900012    2    1    2    0    0 -0.12550799198E+02  0.10705434674E+02 -0.37162294071E+02  0.50528868274E+02  0.30000025607E+02 0.  0.
         12    1    1    2    0    0  0.12550799198E+02 -0.10705434674E+02  0.37162294071E+02  0.40659131726E+02  0.00000000000E+00 0. -1.
         11    1    3    3    0    0 -0.43132028558E+01 -0.57062351973E+01 -0.84800288563E+01  0.11093950093E+02  0.51100000000E-03 0. -1.
        -11    1    3    3    0    0  0.46712316196E-01 -0.38979670100E+01 -0.83507704951E+00  0.39866881984E+01  0.51100000000E-03 0.  1.
        -12    1    3    3    0    0 -0.82843086584E+01  0.20309636882E+02 -0.27847188165E+02  0.35448229983E+02  0.00000000000E+00 0.  1.
</event>
<event>
 7    1  0.5329250E-013  0.5052894E+02  0.7816164E-02  0.1300438E+00
        -11   -1    0    0    0    0  0.00000000000E+00  0.00000000000E+00  0.45593999997E+02  0.45594000000E+02  0.51100000000E-03 0.  1.
         11   -1    0    0    0    0 -0.00000000000E+00 -0.00000000000E+00 -0.45593999997E+02  0.45594000000E+02  0.51100000000E-03 0. -1.
    9900012    2    1    2    0    0 -0.18699070460E+02 -0.13917369642E+01  0.36077231369E+02  0.50528944538E+02  0.30000257416E+02 0.  0.
         12    1    1    2    0    0  0.18699070460E+02  0.13917369642E+01 -0.36077231369E+02  0.40659055462E+02  0.00000000000E+00 0. -1.
         11    1    3    3    0    0 -0.20488962688E+02 -0.23771816442E+01  0.23238930582E+02  0.31072439226E+02  0.51100000000E-03 0. -1.
        -11    1    3    3    0    0 -0.44442938479E+01  0.49140593791E+01  0.32960863985E+01  0.74002644004E+01  0.51100000000E-03 0.  1.
         12    1    3    3    0    0  0.62341860762E+01 -0.39286146991E+01  0.95422143884E+01  0.12056240912E+02  0.00000000000E+00 0. -1.
</event>
<event>
 7    1  0.5329250E-013  0.5052886E+02  0.7816164E-02  0.1300439E+00
        -11   -1    0    0    0    0  0.00000000000E+00  0.00000000000E+00  0.45593999997E+02  0.45594000000E+02  0.51100000000E-03 0. -1.
         11   -1    0    0    0    0 -0.00000000000E+00 -0.00000000000E+00 -0.45593999997E+02  0.45594000000E+02  0.51100000000E-03 0.  1.
    9900012    2    1    2    0    0 -0.22528258573E+02 -0.31006124219E+02  0.13574356119E+02  0.50528864280E+02  0.30000013465E+02 0.  0.
         12    1    1    2    0    0  0.22528258573E+02  0.31006124219E+02 -0.13574356119E+02  0.40659135720E+02  0.00000000000E+00 0. -1.
         11    1    3    3    0    0 -0.12156809963E+02 -0.75118072373E+01  0.57367491843E+01  0.15398882034E+02  0.51100000000E-03 0. -1.
        -11    1    3    3    0    0 -0.12019742031E+02 -0.14880460676E+02 -0.48241684928E+01  0.19727516578E+02  0.51100000000E-03 0.  1.
        -12    1    3    3    0    0  0.16482934208E+01 -0.86138563063E+01  0.12661775428E+02  0.15402465668E+02  0.00000000000E+00 0.  1.
</event>
<event>
 7    1  0.5329250E-013  0.5052886E+02  0.7816164E-02  0.1300439E+00
        -11   -1    0    0    0    0  0.00000000000E+00  0.00000000000E+00  0.45593999997E+02  0.45594000000E+02  0.51100000000E-03 0.  1.
         11   -1    0    0    0    0 -0.00000000000E+00 -0.00000000000E+00 -0.45593999997E+02  0.45594000000E+02  0.51100000000E-03 0. -1.
    9900012    2    1    2    0    0 -0.26164969208E+01 -0.39712566245E+02  0.83205642333E+01  0.50528858801E+02  0.29999996810E+02 0.  0.
         12    1    1    2    0    0  0.26164969208E+01  0.39712566245E+02 -0.83205642333E+01  0.40659141199E+02  0.00000000000E+00 0. -1.
         11    1    3    3    0    0 -0.60962778238E+01 -0.99143196450E+01 -0.92366011303E+01  0.14858436594E+02  0.51100000000E-03 0. -1.
        -11    1    3    3    0    0  0.32550858967E+01 -0.78301068230E+01  0.18925034451E+01  0.86883673153E+01  0.51100000000E-03 0.  1.
        -12    1    3    3    0    0  0.22469500626E+00 -0.21968139777E+02  0.15664661919E+02  0.26982054891E+02  0.00000000000E+00 0.  1.
</event>
<event>
 7    1  0.5329250E-013  0.5052886E+02  0.7816164E-02  0.1300439E+00
        -11   -1    0    0    0    0  0.00000000000E+00  0.00000000000E+00  0.45593999997E+02  0.45594000000E+02  0.51100000000E-03 0.  1.
         11   -1    0    0    0    0 -0.00000000000E+00 -0.00000000000E+00 -0.45593999997E+02  0.45594000000E+02  0.51100000000E-03 0. -1.
    9900012    2    1    2    0    0 -0.96922231251E+01  0.28377546326E+02  0.27457996223E+02  0.50528857349E+02  0.29999992397E+02 0.  0.
         12    1    1    2    0    0  0.96922231251E+01 -0.28377546326E+02 -0.27457996223E+02  0.40659142651E+02  0.00000000000E+00 0. -1.
         11    1    3    3    0    0 -0.27022459742E+01 -0.12973096399E+01  0.14079032991E+02  0.14394593284E+02  0.51100000000E-03 0. -1.
        -11    1    3    3    0    0 -0.90351086588E+00  0.10575293329E+02  0.12030202992E+02  0.16043034163E+02  0.51100000000E-03 0.  1.
         12    1    3    3    0    0 -0.60864662850E+01  0.19099562636E+02  0.13487602402E+01  0.20091229901E+02  0.00000000000E+00 0. -1.
</event>
<event>
 7    1  0.5329250E-013  0.5052886E+02  0.7816164E-02  0.1300439E+00
        -11   -1    0    0    0    0  0.00000000000E+00  0.00000000000E+00  0.45593999997E+02  0.45594000000E+02  0.51100000000E-03 0.  1.
         11   -1    0    0    0    0 -0.00000000000E+00 -0.00000000000E+00 -0.45593999997E+02  0.45594000000E+02  0.51100000000E-03 0. -1.
    9900012    2    1    2    0    0 -0.29372587034E+02 -0.10651119042E+02  0.26018655989E+02  0.50528860002E+02  0.30000000462E+02 0.  0.
         12    1    1    2    0    0  0.29372587034E+02  0.10651119042E+02 -0.26018655989E+02  0.40659139998E+02  0.00000000000E+00 0. -1.
         11    1    3    3    0    0 -0.27078402113E+02 -0.79741352198E+01  0.25885593596E+02  0.38300008481E+02  0.51100000000E-03 0. -1.
        -11    1    3    3    0    0  0.39566352379E+00  0.14195647394E+01  0.50656302814E+01  0.52756349459E+01  0.51100000000E-03 0.  1.
         12    1    3    3    0    0 -0.26898484444E+01 -0.40965485613E+01 -0.49325678888E+01  0.69532165755E+01  0.00000000000E+00 0. -1.
</event>
<event>
 7    1  0.5329250E-013  0.5052884E+02  0.7816164E-02  0.1300439E+00
        -11   -1    0    0    0    0  0.00000000000E+00  0.00000000000E+00  0.45593999997E+02  0.45594000000E+02  0.51100000000E-03 0. -1.
         11   -1    0    0    0    0 -0.00000000000E+00 -0.00000000000E+00 -0.45593999997E+02  0.45594000000E+02  0.51100000000E-03 0.  1.
    9900012    2    1    2    0    0 -0.32125697831E+02 -0.10111920325E+02 -0.22778411883E+02  0.50528838158E+02  0.29999934065E+02 0.  0.
         12    1    1    2    0    0  0.32125697831E+02  0.10111920325E+02  0.22778411883E+02  0.40659161842E+02  0.00000000000E+00 0. -1.
         11    1    3    3    0    0 -0.23631325380E+01 -0.51016696403E+01 -0.17892641092E+01  0.59002453190E+01  0.51100000000E-03 0. -1.
        -11    1    3    3    0    0 -0.25133816166E+02  0.57507739862E+01 -0.76894570161E+01  0.26905535972E+02  0.51100000000E-03 0.  1.
         12    1    3    3    0    0 -0.46287491270E+01 -0.10761024671E+02 -0.13299690758E+02  0.17723056867E+02  0.00000000000E+00 0. -1.
</event>
<event>
 7    1  0.5329250E-013  0.5052886E+02  0.7816164E-02  0.1300439E+00
        -11   -1    0    0    0    0  0.00000000000E+00  0.00000000000E+00  0.45593999997E+02  0.45594000000E+02  0.51100000000E-03 0.  1.
         11   -1    0    0    0    0 -0.00000000000E+00 -0.00000000000E+00 -0.45593999997E+02  0.45594000000E+02  0.51100000000E-03 0. -1.
    9900012    2    1    2    0    0  0.10511426831E+02  0.30334908180E+02  0.24949324839E+02  0.50528861319E+02  0.30000004466E+02 0.  0.
         12    1    1    2    0    0 -0.10511426831E+02 -0.30334908180E+02 -0.24949324839E+02  0.40659138681E+02  0.00000000000E+00 0. -1.
         11    1    3    3    0    0 -0.43119664984E+01 -0.17413321133E+00  0.61601729503E+01  0.75213767688E+01  0.51100000000E-03 0. -1.
        -11    1    3    3    0    0  0.38478126652E+01  0.56242429506E+01 -0.36657831574E+01  0.77379414247E+01  0.51100000000E-03 0.  1.
        -12    1    3    3    0    0  0.10975580665E+02  0.24884798441E+02  0.22454935046E+02  0.35269543126E+02  0.00000000000E+00 0.  1.
</event>
<event>
 7    1  0.5329250E-013  0.5052885E+02  0.7816164E-02  0.1300439E+00
        -11   -1    0    0    0    0  0.00000000000E+00  0.00000000000E+00  0.45593999997E+02  0.45594000000E+02  0.51100000000E-03 0.  1.
         11   -1    0    0    0    0 -0.00000000000E+00 -0.00000000000E+00 -0.45593999997E+02  0.45594000000E+02  0.51100000000E-03 0. -1.
    9900012    2    1    2    0    0 -0.46110424379E+01 -0.35584629966E+02  0.19121676545E+02  0.50528854460E+02  0.29999983617E+02 0.  0.
         12    1    1    2    0    0  0.46110424379E+01  0.35584629966E+02 -0.19121676545E+02  0.40659145540E+02  0.00000000000E+00 0. -1.
         11    1    3    3    0    0  0.39484254163E+01 -0.73709725652E+01  0.11826408401E+02  0.14483964780E+02  0.51100000000E-03 0. -1.
        -11    1    3    3    0    0  0.48760152730E+01 -0.10709269988E+02  0.75433205997E+01  0.13977327160E+02  0.51100000000E-03 0.  1.
         12    1    3    3    0    0 -0.13435483127E+02 -0.17504387413E+02 -0.24805245585E+00  0.22067562520E+02  0.00000000000E+00 0. -1.
</event>
<event>
 7    1  0.5329250E-013  0.5052889E+02  0.7816164E-02  0.1300439E+00
        -11   -1    0    0    0    0  0.00000000000E+00  0.00000000000E+00  0.45593999997E+02  0.45594000000E+02  0.51100000000E-03 0. -1.
         11   -1    0    0    0    0 -0.00000000000E+00 -0.00000000000E+00 -0.45593999997E+02  0.45594000000E+02  0.51100000000E-03 0.  1.
    9900012    2    1    2    0    0  0.34845428845E+02 -0.13401528210E+02  0.16104604947E+02  0.50528890685E+02  0.30000093726E+02 0.  0.
         12    1    1    2    0    0 -0.34845428845E+02  0.13401528210E+02 -0.16104604947E+02  0.40659109315E+02  0.00000000000E+00 0. -1.
         11    1    3    3    0    0  0.22538526905E+02 -0.27861411282E+01  0.10898089488E+02  0.25189603653E+02  0.51100000000E-03 0. -1.
        -11    1    3    3    0    0  0.12957287963E+02  0.75276106806E+00  0.51192122759E+01  0.13952214705E+02  0.51100000000E-03 0.  1.
         12    1    3    3    0    0 -0.65038602297E+00 -0.11368148150E+02  0.87303183581E-01  0.11387072327E+02  0.00000000000E+00 0. -1.
</event>
<event>
 7    1  0.5329250E-013  0.5052892E+02  0.7816164E-02  0.1300439E+00
        -11   -1    0    0    0    0  0.00000000000E+00  0.00000000000E+00  0.45593999997E+02  0.45594000000E+02  0.51100000000E-03 0. -1.
         11   -1    0    0    0    0 -0.00000000000E+00 -0.00000000000E+00 -0.45593999997E+02  0.45594000000E+02  0.51100000000E-03 0.  1.
    9900012    2    1    2    0    0  0.22561020087E+02 -0.33252743582E+02 -0.61981095973E+01  0.50528915583E+02  0.30000169404E+02 0.  0.
         12    1    1    2    0    0 -0.22561020087E+02  0.33252743582E+02  0.61981095973E+01  0.40659084417E+02  0.00000000000E+00 0. -1.
         11    1    3    3    0    0  0.47225404305E+01 -0.65838681095E+01 -0.18855437768E+01  0.83189532392E+01  0.51100000000E-03 0.  1.
        -11    1    3    3    0    0 -0.65282032337E+01 -0.13713704370E+01  0.78965006619E+00  0.67172644599E+01  0.51100000000E-03 0. -1.
        -12    1    3    3    0    0  0.24366682890E+02 -0.25297505035E+02 -0.51022158867E+01  0.35492697883E+02  0.00000000000E+00 0.  1.
</event>
<event>
 7    1  0.5329250E-013  0.5052886E+02  0.7816164E-02  0.1300439E+00
        -11   -1    0    0    0    0  0.00000000000E+00  0.00000000000E+00  0.45593999997E+02  0.45594000000E+02  0.51100000000E-03 0. -1.
         11   -1    0    0    0    0 -0.00000000000E+00 -0.00000000000E+00 -0.45593999997E+02  0.45594000000E+02  0.51100000000E-03 0.  1.
    9900012    2    1    2    0    0  0.33567555396E+02  0.57526304205E+01 -0.22210186423E+02  0.50528856958E+02  0.29999991209E+02 0.  0.
         12    1    1    2    0    0 -0.33567555396E+02 -0.57526304205E+01  0.22210186423E+02  0.40659143042E+02  0.00000000000E+00 0. -1.
         11    1    3    3    0    0  0.26483574343E+02 -0.11309538658E+01 -0.21804916203E+02  0.34323652741E+02  0.51100000000E-03 0.  1.
        -11    1    3    3    0    0  0.91708511968E+01  0.75320817032E+01 -0.35397610225E+01  0.12384129958E+02  0.51100000000E-03 0. -1.
        -12    1    3    3    0    0 -0.20868701442E+01 -0.64849741685E+00  0.31344908025E+01  0.38210742586E+01  0.00000000000E+00 0.  1.
</event>
<event>
 7    1  0.5329250E-013  0.5052886E+02  0.7816164E-02  0.1300439E+00
        -11   -1    0    0    0    0  0.00000000000E+00  0.00000000000E+00  0.45593999997E+02  0.45594000000E+02  0.51100000000E-03 0.  1.
         11   -1    0    0    0    0 -0.00000000000E+00 -0.00000000000E+00 -0.45593999997E+02  0.45594000000E+02  0.51100000000E-03 0. -1.
    9900012    2    1    2    0    0  0.22471543924E+02  0.32613084546E+02 -0.91968460125E+01  0.50528861464E+02  0.30000004906E+02 0.  0.
         12    1    1    2    0    0 -0.22471543924E+02 -0.32613084546E+02  0.91968460125E+01  0.40659138536E+02  0.00000000000E+00 0. -1.
         11    1    3    3    0    0  0.16376309587E+02  0.86564107688E+01 -0.67949049799E+01  0.19730374985E+02  0.51100000000E-03 0. -1.
        -11    1    3    3    0    0  0.10611702586E+02  0.23736690170E+02 -0.32328547483E+01  0.26200954984E+02  0.51100000000E-03 0.  1.
        -12    1    3    3    0    0 -0.45164682501E+01  0.21998360690E+00  0.83091371572E+00  0.45975314947E+01  0.00000000000E+00 0.  1.
</event>
<event>
 7    1  0.5329250E-013  0.5052885E+02  0.7816164E-02  0.1300439E+00
        -11   -1    0    0    0    0  0.00000000000E+00  0.00000000000E+00  0.45593999997E+02  0.45594000000E+02  0.51100000000E-03 0. -1.
         11   -1    0    0    0    0 -0.00000000000E+00 -0.00000000000E+00 -0.45593999997E+02  0.45594000000E+02  0.51100000000E-03 0.  1.
    9900012    2    1    2    0    0  0.30011341536E+02  0.18058762168E+02 -0.20648646481E+02  0.50528854493E+02  0.29999983718E+02 0.  0.
         12    1    1    2    0    0 -0.30011341536E+02 -0.18058762168E+02  0.20648646481E+02  0.40659145507E+02  0.00000000000E+00 0. -1.
         11    1    3    3    0    0  0.19947454539E+01  0.84217426343E+01 -0.60078236920E+01  0.10535592257E+02  0.51100000000E-03 0.  1.
        -11    1    3    3    0    0  0.22018972630E+02  0.11754812696E+02 -0.10437056599E+01  0.24981995496E+02  0.51100000000E-03 0. -1.
         12    1    3    3    0    0  0.59976234524E+01 -0.21177931613E+01 -0.13597117129E+02  0.15011266741E+02  0.00000000000E+00 0. -1.
</event>
<event>
 7    1  0.5329250E-013  0.5052886E+02  0.7816164E-02  0.1300439E+00
        -11   -1    0    0    0    0  0.00000000000E+00  0.00000000000E+00  0.45593999997E+02  0.45594000000E+02  0.51100000000E-03 0. -1.
         11   -1    0    0    0    0 -0.00000000000E+00 -0.00000000000E+00 -0.45593999997E+02  0.45594000000E+02  0.51100000000E-03 0.  1.
    9900012    2    1    2    0    0 -0.33234852125E+02  0.20563072992E+01 -0.23331995368E+02  0.50528858306E+02  0.29999995307E+02 0.  0.
         12    1    1    2    0    0  0.33234852125E+02 -0.20563072992E+01  0.23331995368E+02  0.40659141694E+02  0.00000000000E+00 0. -1.
         11    1    3    3    0    0 -0.18677967943E+02  0.44568532256E+01 -0.97186284954E+01  0.21521658097E+02  0.51100000000E-03 0.  1.
        -11    1    3    3    0    0 -0.17791337358E+02 -0.70747237335E+01 -0.72455734736E+01  0.20471485928E+02  0.51100000000E-03 0. -1.
        -12    1    3    3    0    0  0.32344531757E+01  0.46741778071E+01 -0.63677933986E+01  0.85357142809E+01  0.00000000000E+00 0.  1.
</event>
<event>
 7    1  0.5329250E-013  0.5052885E+02  0.7816164E-02  0.1300439E+00
        -11   -1    0    0    0    0  0.00000000000E+00  0.00000000000E+00  0.45593999997E+02  0.45594000000E+02  0.51100000000E-03 0.  1.
         11   -1    0    0    0    0 -0.00000000000E+00 -0.00000000000E+00 -0.45593999997E+02  0.45594000000E+02  0.51100000000E-03 0. -1.
    9900012    2    1    2    0    0  0.51239242403E+01  0.53134809071E+01  0.39983484095E+02  0.50528847532E+02  0.29999962560E+02 0.  0.
         12    1    1    2    0    0 -0.51239242403E+01 -0.53134809071E+01 -0.39983484095E+02  0.40659152468E+02  0.00000000000E+00 0. -1.
         11    1    3    3    0    0 -0.57069077019E+01 -0.22881992164E+01 -0.10695889402E+00  0.61494789728E+01  0.51100000000E-03 0. -1.
        -11    1    3    3    0    0  0.43246180648E+01 -0.30103533950E+01  0.54970862557E+01  0.76146245169E+01  0.51100000000E-03 0.  1.
         12    1    3    3    0    0  0.65062138773E+01  0.10612033518E+02  0.34593356734E+02  0.36764744043E+02  0.00000000000E+00 0. -1.
</event>
<event>
 7    1  0.5329250E-013  0.5052887E+02  0.7816164E-02  0.1300439E+00
        -11   -1    0    0    0    0  0.00000000000E+00  0.00000000000E+00  0.45593999997E+02  0.45594000000E+02  0.51100000000E-03 0.  1.
         11   -1    0    0    0    0 -0.00000000000E+00 -0.00000000000E+00 -0.45593999997E+02  0.45594000000E+02  0.51100000000E-03 0. -1.
    9900012    2    1    2    0    0 -0.18233337423E+01  0.32649899129E+02  0.24162458461E+02  0.50528869931E+02  0.30000030643E+02 0.  0.
         12    1    1    2    0    0  0.18233337423E+01 -0.32649899129E+02 -0.24162458461E+02  0.40659130069E+02  0.00000000000E+00 0. -1.
         11    1    3    3    0    0 -0.28459919608E+01  0.16379923890E+02  0.77282500116E+00  0.16643281997E+02  0.51100000000E-03 0. -1.
        -11    1    3    3    0    0 -0.74122230030E+01  0.43333432498E+01  0.36641893050E+01  0.93351591894E+01  0.51100000000E-03 0.  1.
         12    1    3    3    0    0  0.84348812215E+01  0.11936631989E+02  0.19725444155E+02  0.24550428745E+02  0.00000000000E+00 0. -1.
</event>
<event>
 7    1  0.5329250E-013  0.5052887E+02  0.7816164E-02  0.1300439E+00
        -11   -1    0    0    0    0  0.00000000000E+00  0.00000000000E+00  0.45593999997E+02  0.45594000000E+02  0.51100000000E-03 0.  1.
         11   -1    0    0    0    0 -0.00000000000E+00 -0.00000000000E+00 -0.45593999997E+02  0.45594000000E+02  0.51100000000E-03 0. -1.
    9900012    2    1    2    0    0  0.37818288022E+02  0.13737261227E+02  0.58506049293E+01  0.50528870238E+02  0.30000031576E+02 0.  0.
         12    1    1    2    0    0 -0.37818288022E+02 -0.13737261227E+02 -0.58506049293E+01  0.40659129762E+02  0.00000000000E+00 0. -1.
         11    1    3    3    0    0  0.26226477684E+02  0.76759545963E+01 -0.40310079820E+01  0.27622408227E+02  0.51100000000E-03 0. -1.
        -11    1    3    3    0    0  0.10088517854E+02  0.11236497375E+02  0.59285946302E+01  0.16222986787E+02  0.51100000000E-03 0.  1.
        -12    1    3    3    0    0  0.15032924851E+01 -0.51751907446E+01  0.39530182811E+01  0.66834752240E+01  0.00000000000E+00 0.  1.
</event>
<event>
 7    1  0.5329250E-013  0.5052886E+02  0.7816164E-02  0.1300439E+00
        -11   -1    0    0    0    0  0.00000000000E+00  0.00000000000E+00  0.45593999997E+02  0.45594000000E+02  0.51100000000E-03 0. -1.
         11   -1    0    0    0    0 -0.00000000000E+00 -0.00000000000E+00 -0.45593999997E+02  0.45594000000E+02  0.51100000000E-03 0.  1.
    9900012    2    1    2    0    0  0.23370338795E+02 -0.32179417488E+02  0.84544816383E+01  0.50528857054E+02  0.29999991502E+02 0.  0.
         12    1    1    2    0    0 -0.23370338795E+02  0.32179417488E+02 -0.84544816383E+01  0.40659142946E+02  0.00000000000E+00 0. -1.
         11    1    3    3    0    0  0.10766210780E+02 -0.13723311542E+01  0.13275173976E+01  0.10934207335E+02  0.51100000000E-03 0. -1.
        -11    1    3    3    0    0  0.14349561330E+02 -0.89782662183E+01  0.46666500397E+01  0.17558382542E+02  0.51100000000E-03 0.  1.
        -12    1    3    3    0    0 -0.17454333145E+01 -0.21828820116E+02  0.24603142010E+01  0.22036267176E+02  0.00000000000E+00 0.  1.
</event>
<event>
 7    1  0.7344890E-013  0.5052885E+02  0.7816164E-02  0.1300439E+00
        -11   -1    0    0    0    0  0.00000000000E+00  0.00000000000E+00  0.45593999997E+02  0.45594000000E+02  0.51100000000E-03 0. -1.
         11   -1    0    0    0    0 -0.00000000000E+00 -0.00000000000E+00 -0.45593999997E+02  0.45594000000E+02  0.51100000000E-03 0.  1.
    9900012    2    1    2    0    0  0.17829334858E+02  0.15170289312E+02 -0.33243705233E+02  0.50528846087E+02  0.29999958166E+02 0.  0.
         12    1    1    2    0    0 -0.17829334858E+02 -0.15170289312E+02  0.33243705233E+02  0.40659153913E+02  0.00000000000E+00 0. -1.
         11    1    3    3    0    0 -0.67298533599E+00  0.63147184344E+01  0.17591531613E+01  0.65896280831E+01  0.51100000000E-03 0. -1.
        -11    1    3    3    0    0  0.90588268657E+01  0.13280042360E+02 -0.19817419958E+02  0.25517680210E+02  0.51100000000E-03 0.  1.
        -12    1    3    3    0    0  0.94434933286E+01 -0.44244714829E+01 -0.15185438437E+02  0.18421537793E+02  0.00000000000E+00 0.  1.
</event>
<event>
 7    1  0.5329250E-013  0.5052886E+02  0.7816164E-02  0.1300439E+00
        -11   -1    0    0    0    0  0.00000000000E+00  0.00000000000E+00  0.45593999997E+02  0.45594000000E+02  0.51100000000E-03 0. -1.
         11   -1    0    0    0    0 -0.00000000000E+00 -0.00000000000E+00 -0.45593999997E+02  0.45594000000E+02  0.51100000000E-03 0.  1.
    9900012    2    1    2    0    0 -0.24872138664E+02  0.19964073570E+02 -0.25218612862E+02  0.50528856503E+02  0.29999989827E+02 0.  0.
         12    1    1    2    0    0  0.24872138664E+02 -0.19964073570E+02  0.25218612862E+02  0.40659143497E+02  0.00000000000E+00 0. -1.
         11    1    3    3    0    0 -0.50615278183E+00 -0.18368625198E+01  0.24993485896E+01  0.31427691911E+01  0.51100000000E-03 0. -1.
        -11    1    3    3    0    0 -0.17448100975E+02  0.16377926166E+02 -0.29931162139E+02  0.38321627841E+02  0.51100000000E-03 0.  1.
         12    1    3    3    0    0 -0.69178849070E+01  0.54230099234E+01  0.22132006877E+01  0.90644594709E+01  0.00000000000E+00 0. -1.
</event>
<event>
 7    1  0.5329250E-013  0.5052884E+02  0.7816164E-02  0.1300439E+00
        -11   -1    0    0    0    0  0.00000000000E+00  0.00000000000E+00  0.45593999997E+02  0.45594000000E+02  0.51100000000E-03 0.  1.
         11   -1    0    0    0    0 -0.00000000000E+00 -0.00000000000E+00 -0.45593999997E+02  0.45594000000E+02  0.51100000000E-03 0. -1.
    9900012    2    1    2    0    0 -0.30074043239E+01  0.24996305632E+02  0.31926594787E+02  0.50528840753E+02  0.29999941952E+02 0.  0.
         12    1    1    2    0    0  0.30074043239E+01 -0.24996305632E+02 -0.31926594787E+02  0.40659159247E+02  0.00000000000E+00 0. -1.
         11    1    3    3    0    0 -0.42951277650E+01  0.24042384927E+01 -0.14673178766E+01  0.51362931439E+01  0.51100000000E-03 0. -1.
        -11    1    3    3    0    0  0.22106586154E+01  0.21809808521E+02  0.14108506355E+02  0.26069229200E+02  0.51100000000E-03 0.  1.
         12    1    3    3    0    0 -0.92293517431E+00  0.78225861874E+00  0.19285406308E+02  0.19323318409E+02  0.00000000000E+00 0. -1.
</event>
<event>
 7    1  0.5329250E-013  0.5052885E+02  0.7816164E-02  0.1300439E+00
        -11   -1    0    0    0    0  0.00000000000E+00  0.00000000000E+00  0.45593999997E+02  0.45594000000E+02  0.51100000000E-03 0. -1.
         11   -1    0    0    0    0 -0.00000000000E+00 -0.00000000000E+00 -0.45593999997E+02  0.45594000000E+02  0.51100000000E-03 0.  1.
    9900012    2    1    2    0    0 -0.79496124707E+01  0.96575682407E+01 -0.38687223326E+02  0.50528853287E+02  0.29999980050E+02 0.  0.
         12    1    1    2    0    0  0.79496124707E+01 -0.96575682407E+01  0.38687223326E+02  0.40659146713E+02  0.00000000000E+00 0. -1.
         11    1    3    3    0    0 -0.52252254304E+01  0.27123123686E+01 -0.25128226739E+01  0.64010856294E+01  0.51100000000E-03 0. -1.
        -11    1    3    3    0    0 -0.11446741807E+02  0.89524692578E+01 -0.29753099238E+02  0.33112256316E+02  0.51100000000E-03 0.  1.
         12    1    3    3    0    0  0.87223547666E+01 -0.20072133857E+01 -0.64213014142E+01  0.11015511341E+02  0.00000000000E+00 0. -1.
</event>
<event>
 7    1  0.5329250E-013  0.5052886E+02  0.7816164E-02  0.1300439E+00
        -11   -1    0    0    0    0  0.00000000000E+00  0.00000000000E+00  0.45593999997E+02  0.45594000000E+02  0.51100000000E-03 0.  1.
         11   -1    0    0    0    0 -0.00000000000E+00 -0.00000000000E+00 -0.45593999997E+02  0.45594000000E+02  0.51100000000E-03 0. -1.
    9900012    2    1    2    0    0  0.24568877217E+02  0.49770626367E+00  0.32392723975E+02  0.50528855816E+02  0.29999987739E+02 0.  0.
         12    1    1    2    0    0 -0.24568877217E+02 -0.49770626367E+00 -0.32392723975E+02  0.40659144184E+02  0.00000000000E+00 0. -1.
         11    1    3    3    0    0  0.72765892410E+01  0.24356781779E+01  0.56565967939E+01  0.95330145661E+01  0.51100000000E-03 0. -1.
        -11    1    3    3    0    0  0.19939852648E+02 -0.11684906379E+01  0.71478769135E+01  0.21214505383E+02  0.51100000000E-03 0.  1.
         12    1    3    3    0    0 -0.26475646725E+01 -0.76948127635E+00  0.19588250268E+02  0.19781335867E+02  0.00000000000E+00 0. -1.
</event>
<event>
 7    1  0.5329250E-013  0.5052887E+02  0.7816164E-02  0.1300439E+00
        -11   -1    0    0    0    0  0.00000000000E+00  0.00000000000E+00  0.45593999997E+02  0.45594000000E+02  0.51100000000E-03 0.  1.
         11   -1    0    0    0    0 -0.00000000000E+00 -0.00000000000E+00 -0.45593999997E+02  0.45594000000E+02  0.51100000000E-03 0. -1.
    9900012    2    1    2    0    0 -0.17962103695E+02  0.36320870703E+02  0.33647723465E+01  0.50528874201E+02  0.30000043622E+02 0.  0.
         12    1    1    2    0    0  0.17962103695E+02 -0.36320870703E+02 -0.33647723465E+01  0.40659125799E+02  0.00000000000E+00 0. -1.
         11    1    3    3    0    0 -0.36764791604E+01  0.25310676851E+02  0.19981802908E+01  0.25654231355E+02  0.51100000000E-03 0. -1.
        -11    1    3    3    0    0 -0.14938884960E+02  0.10474327803E+02 -0.46263286192E+01  0.18822453175E+02  0.51100000000E-03 0.  1.
         12    1    3    3    0    0  0.65326042531E+00  0.53586604906E+00  0.59929206748E+01  0.60521896716E+01  0.00000000000E+00 0. -1.
</event>
<event>
 7    1  0.5329250E-013  0.5052894E+02  0.7816164E-02  0.1300439E+00
        -11   -1    0    0    0    0  0.00000000000E+00  0.00000000000E+00  0.45593999997E+02  0.45594000000E+02  0.51100000000E-03 0.  1.
         11   -1    0    0    0    0 -0.00000000000E+00 -0.00000000000E+00 -0.45593999997E+02  0.45594000000E+02  0.51100000000E-03 0. -1.
    9900012    2    1    2    0    0  0.22410844337E+02 -0.14099623296E+02  0.30856340141E+02  0.50528941380E+02  0.30000247817E+02 0.  0.
         12    1    1    2    0    0 -0.22410844337E+02  0.14099623296E+02 -0.30856340141E+02  0.40659058620E+02  0.00000000000E+00 0. -1.
         11    1    3    3    0    0  0.94908050043E+01  0.34636585811E+01  0.67604247252E+01  0.12156300964E+02  0.51100000000E-03 0. -1.
        -11    1    3    3    0    0  0.14261257156E+02 -0.56716602939E+01  0.21001879511E+02  0.26012115051E+02  0.51100000000E-03 0.  1.
        -12    1    3    3    0    0 -0.13412178237E+01 -0.11891621583E+02  0.30940359051E+01  0.12360525365E+02  0.00000000000E+00 0.  1.
</event>
<event>
 7    1  0.5329250E-013  0.5052885E+02  0.7816164E-02  0.1300439E+00
        -11   -1    0    0    0    0  0.00000000000E+00  0.00000000000E+00  0.45593999997E+02  0.45594000000E+02  0.51100000000E-03 0.  1.
         11   -1    0    0    0    0 -0.00000000000E+00 -0.00000000000E+00 -0.45593999997E+02  0.45594000000E+02  0.51100000000E-03 0. -1.
    9900012    2    1    2    0    0  0.16228841697E+02  0.33419625645E+02  0.16520272630E+02  0.50528854794E+02  0.29999984633E+02 0.  0.
         12    1    1    2    0    0 -0.16228841697E+02 -0.33419625645E+02 -0.16520272630E+02  0.40659145206E+02  0.00000000000E+00 0. -1.
         11    1    3    3    0    0  0.25664564939E+01 -0.33973765141E+01 -0.24448330750E+01  0.49097937980E+01  0.51100000000E-03 0. -1.
        -11    1    3    3    0    0  0.59121599515E+00  0.15660160222E+02  0.26968645651E+01  0.15901673914E+02  0.51100000000E-03 0.  1.
        -12    1    3    3    0    0  0.13071169208E+02  0.21156841938E+02  0.16268241140E+02  0.29717387083E+02  0.00000000000E+00 0.  1.
</event>
<event>
 7    1  0.5329250E-013  0.5052886E+02  0.7816164E-02  0.1300439E+00
        -11   -1    0    0    0    0  0.00000000000E+00  0.00000000000E+00  0.45593999997E+02  0.45594000000E+02  0.51100000000E-03 0. -1.
         11   -1    0    0    0    0 -0.00000000000E+00 -0.00000000000E+00 -0.45593999997E+02  0.45594000000E+02  0.51100000000E-03 0.  1.
    9900012    2    1    2    0    0  0.17188556022E+02 -0.15477408408E+00 -0.36846916098E+02  0.50528860326E+02  0.30000001447E+02 0.  0.
         12    1    1    2    0    0 -0.17188556022E+02  0.15477408408E+00  0.36846916098E+02  0.40659139674E+02  0.00000000000E+00 0. -1.
         11    1    3    3    0    0  0.12020873300E+02  0.10269487099E+02 -0.10423180614E+02  0.18936907206E+02  0.51100000000E-03 0.  1.
        -11    1    3    3    0    0  0.18722882548E+01 -0.86928266139E+01 -0.57580576031E+01  0.10593673842E+02  0.51100000000E-03 0. -1.
        -12    1    3    3    0    0  0.32953944671E+01 -0.17314345692E+01 -0.20665677880E+02  0.20998279278E+02  0.00000000000E+00 0.  1.
</event>
<event>
 7    1  0.5329250E-013  0.5052886E+02  0.7816164E-02  0.1300439E+00
        -11   -1    0    0    0    0  0.00000000000E+00  0.00000000000E+00  0.45593999997E+02  0.45594000000E+02  0.51100000000E-03 0. -1.
         11   -1    0    0    0    0 -0.00000000000E+00 -0.00000000000E+00 -0.45593999997E+02  0.45594000000E+02  0.51100000000E-03 0.  1.
    9900012    2    1    2    0    0 -0.16711242966E+02 -0.33599549559E+02 -0.15651529808E+02  0.50528858871E+02  0.29999997023E+02 0.  0.
         12    1    1    2    0    0  0.16711242966E+02  0.33599549559E+02  0.15651529808E+02  0.40659141129E+02  0.00000000000E+00 0. -1.
         11    1    3    3    0    0 -0.40226533683E+01 -0.12097176689E+02 -0.12811453169E+02  0.18073648124E+02  0.51100000000E-03 0. -1.
        -11    1    3    3    0    0  0.53321283955E+01 -0.60509872453E+01 -0.32966040443E+01  0.87128432991E+01  0.51100000000E-03 0.  1.
        -12    1    3    3    0    0 -0.18020717993E+02 -0.15451385625E+02  0.45652740551E+00  0.23742367447E+02  0.00000000000E+00 0.  1.
</event>
<event>
 7    1  0.5329250E-013  0.5052886E+02  0.7816164E-02  0.1300439E+00
        -11   -1    0    0    0    0  0.00000000000E+00  0.00000000000E+00  0.45593999997E+02  0.45594000000E+02  0.51100000000E-03 0.  1.
         11   -1    0    0    0    0 -0.00000000000E+00 -0.00000000000E+00 -0.45593999997E+02  0.45594000000E+02  0.51100000000E-03 0. -1.
    9900012    2    1    2    0    0 -0.12073193787E+02 -0.34912745446E+02  0.16985396297E+02  0.50528862157E+02  0.30000007012E+02 0.  0.
         12    1    1    2    0    0  0.12073193787E+02  0.34912745446E+02 -0.16985396297E+02  0.40659137843E+02  0.00000000000E+00 0. -1.
         11    1    3    3    0    0  0.52729895241E+01 -0.24081660745E+01  0.46865461042E+01  0.74543542318E+01  0.51100000000E-03 0. -1.
        -11    1    3    3    0    0 -0.13448322080E+02 -0.21985497221E+02  0.17039386992E+02  0.30895957084E+02  0.51100000000E-03 0.  1.
         12    1    3    3    0    0 -0.38978612311E+01 -0.10519082150E+02 -0.47405367987E+01  0.12178550841E+02  0.00000000000E+00 0. -1.
</event>
<event>
 7    1  0.5329250E-013  0.5052886E+02  0.7816164E-02  0.1300439E+00
        -11   -1    0    0    0    0  0.00000000000E+00  0.00000000000E+00  0.45593999997E+02  0.45594000000E+02  0.51100000000E-03 0.  1.
         11   -1    0    0    0    0 -0.00000000000E+00 -0.00000000000E+00 -0.45593999997E+02  0.45594000000E+02  0.51100000000E-03 0. -1.
    9900012    2    1    2    0    0  0.39801964598E+02 -0.71689438617E+01  0.41923482965E+01  0.50528856794E+02  0.29999990712E+02 0.  0.
         12    1    1    2    0    0 -0.39801964598E+02  0.71689438617E+01 -0.41923482965E+01  0.40659143206E+02  0.00000000000E+00 0. -1.
         11    1    3    3    0    0  0.58330749511E+01  0.67697688886E+01  0.22513561449E+01  0.92153751385E+01  0.51100000000E-03 0. -1.
        -11    1    3    3    0    0  0.29209374683E+02 -0.55100083232E+01 -0.39442924217E+01  0.29985083026E+02  0.51100000000E-03 0.  1.
         12    1    3    3    0    0  0.47595149643E+01 -0.84287044271E+01  0.58852845733E+01  0.11328398630E+02  0.00000000000E+00 0. -1.
</event>
<event>
 7    1  0.5329250E-013  0.5052885E+02  0.7816164E-02  0.1300439E+00
        -11   -1    0    0    0    0  0.00000000000E+00  0.00000000000E+00  0.45593999997E+02  0.45594000000E+02  0.51100000000E-03 0.  1.
         11   -1    0    0    0    0 -0.00000000000E+00 -0.00000000000E+00 -0.45593999997E+02  0.45594000000E+02  0.51100000000E-03 0. -1.
    9900012    2    1    2    0    0  0.96635134350E+01 -0.71310497137E+01  0.38844961730E+02  0.50528850799E+02  0.29999972489E+02 0.  0.
         12    1    1    2    0    0 -0.96635134350E+01  0.71310497137E+01 -0.38844961730E+02  0.40659149201E+02  0.00000000000E+00 0. -1.
         11    1    3    3    0    0  0.10530364283E+02 -0.63242971925E+01  0.38531958880E+01  0.12873710643E+02  0.51100000000E-03 0. -1.
        -11    1    3    3    0    0 -0.16789271538E+01  0.29198331643E+01  0.10908722376E+01  0.35403706861E+01  0.51100000000E-03 0.  1.
         12    1    3    3    0    0  0.81207630585E+00 -0.37265856855E+01  0.33900893605E+02  0.34114769470E+02  0.00000000000E+00 0. -1.
</event>
<event>
 7    1  0.5329250E-013  0.5052889E+02  0.7816164E-02  0.1300439E+00
        -11   -1    0    0    0    0  0.00000000000E+00  0.00000000000E+00  0.45593999997E+02  0.45594000000E+02  0.51100000000E-03 0. -1.
         11   -1    0    0    0    0 -0.00000000000E+00 -0.00000000000E+00 -0.45593999997E+02  0.45594000000E+02  0.51100000000E-03 0.  1.
    9900012    2    1    2    0    0 -0.20142104168E+02  0.96209254228E+01 -0.33983773167E+02  0.50528887799E+02  0.30000084954E+02 0.  0.
         12    1    1    2    0    0  0.20142104168E+02 -0.96209254228E+01  0.33983773167E+02  0.40659112201E+02  0.00000000000E+00 0. -1.
         11    1    3    3    0    0  0.19670619729E+01  0.11354303079E+01  0.31494159538E+00  0.22929725814E+01  0.51100000000E-03 0. -1.
        -11    1    3    3    0    0 -0.16303185779E+02  0.11685064315E+02 -0.88251261750E+01  0.21913864261E+02  0.51100000000E-03 0.  1.
         12    1    3    3    0    0 -0.58059803610E+01 -0.31995691997E+01 -0.25473588588E+02  0.26322050956E+02  0.00000000000E+00 0. -1.
</event>
<event>
 7    1  0.5329250E-013  0.5052886E+02  0.7816164E-02  0.1300439E+00
        -11   -1    0    0    0    0  0.00000000000E+00  0.00000000000E+00  0.45593999997E+02  0.45594000000E+02  0.51100000000E-03 0.  1.
         11   -1    0    0    0    0 -0.00000000000E+00 -0.00000000000E+00 -0.45593999997E+02  0.45594000000E+02  0.51100000000E-03 0. -1.
    9900012    2    1    2    0    0 -0.54454452383E+01 -0.60427233191E+01  0.39837143641E+02  0.50528863358E+02  0.30000010664E+02 0.  0.
         12    1    1    2    0    0  0.54454452383E+01  0.60427233191E+01 -0.39837143641E+02  0.40659136642E+02  0.00000000000E+00 0. -1.
         11    1    3    3    0    0 -0.64576743357E+01 -0.89954785129E+01  0.87470617025E+01  0.14111388315E+02  0.51100000000E-03 0. -1.
        -11    1    3    3    0    0 -0.42646505398E+00  0.70064662389E+01  0.24175408319E+01  0.74240787667E+01  0.51100000000E-03 0.  1.
         12    1    3    3    0    0  0.14386941515E+01 -0.40537110452E+01  0.28672541107E+02  0.28993396276E+02  0.00000000000E+00 0. -1.
</event>
<event>
 7    1  0.5329250E-013  0.5052886E+02  0.7816164E-02  0.1300439E+00
        -11   -1    0    0    0    0  0.00000000000E+00  0.00000000000E+00  0.45593999997E+02  0.45594000000E+02  0.51100000000E-03 0.  1.
         11   -1    0    0    0    0 -0.00000000000E+00 -0.00000000000E+00 -0.45593999997E+02  0.45594000000E+02  0.51100000000E-03 0. -1.
    9900012    2    1    2    0    0  0.69061040912E+01  0.38765204404E+02 -0.10135577429E+02  0.50528864790E+02  0.30000015016E+02 0.  0.
         12    1    1    2    0    0 -0.69061040912E+01 -0.38765204404E+02  0.10135577429E+02  0.40659135210E+02  0.00000000000E+00 0. -1.
         11    1    3    3    0    0 -0.51682559775E+00  0.91360419968E+01  0.61530671369E+00  0.91713125930E+01  0.51100000000E-03 0. -1.
        -11    1    3    3    0    0  0.17068972565E+02  0.20201294342E+02 -0.72292598578E+01  0.27417226626E+02  0.51100000000E-03 0.  1.
         12    1    3    3    0    0 -0.96460428761E+01  0.94278680655E+01 -0.35216242850E+01  0.13940325571E+02  0.00000000000E+00 0. -1.
</event>
<event>
 7    1  0.5329250E-013  0.5052884E+02  0.7816164E-02  0.1300439E+00
        -11   -1    0    0    0    0  0.00000000000E+00  0.00000000000E+00  0.45593999997E+02  0.45594000000E+02  0.51100000000E-03 0.  1.
         11   -1    0    0    0    0 -0.00000000000E+00 -0.00000000000E+00 -0.45593999997E+02  0.45594000000E+02  0.51100000000E-03 0. -1.
    9900012    2    1    2    0    0 -0.29141999555E+02 -0.27109137759E+02 -0.83069682076E+01  0.50528841021E+02  0.29999942767E+02 0.  0.
         12    1    1    2    0    0  0.29141999555E+02  0.27109137759E+02  0.83069682076E+01  0.40659158979E+02  0.00000000000E+00 0. -1.
         11    1    3    3    0    0 -0.10187843555E+02  0.97395825749E+00 -0.30877976689E+01  0.10689960041E+02  0.51100000000E-03 0. -1.
        -11    1    3    3    0    0 -0.90803532856E+01 -0.72337719262E+00 -0.57046030639E+01  0.10747957328E+02  0.51100000000E-03 0.  1.
         12    1    3    3    0    0 -0.98738027147E+01 -0.27359718823E+02  0.48543252519E+00  0.29090923651E+02  0.00000000000E+00 0. -1.
</event>
<event>
 7    1  0.5329250E-013  0.5052886E+02  0.7816164E-02  0.1300439E+00
        -11   -1    0    0    0    0  0.00000000000E+00  0.00000000000E+00  0.45593999997E+02  0.45594000000E+02  0.51100000000E-03 0. -1.
         11   -1    0    0    0    0 -0.00000000000E+00 -0.00000000000E+00 -0.45593999997E+02  0.45594000000E+02  0.51100000000E-03 0.  1.
    9900012    2    1    2    0    0 -0.33960344763E+02  0.13810541377E+02 -0.17582079315E+02  0.50528861020E+02  0.30000003557E+02 0.  0.
         12    1    1    2    0    0  0.33960344763E+02 -0.13810541377E+02  0.17582079315E+02  0.40659138980E+02  0.00000000000E+00 0. -1.
         11    1    3    3    0    0 -0.28653011045E+01  0.11529082137E+02 -0.50608886194E+01  0.12912872617E+02  0.51100000000E-03 0. -1.
        -11    1    3    3    0    0 -0.14092037432E+02  0.57473435555E+01 -0.13348654322E+02  0.20243617498E+02  0.51100000000E-03 0.  1.
        -12    1    3    3    0    0 -0.17003006226E+02 -0.34658843158E+01  0.82746362594E+00  0.17372370905E+02  0.00000000000E+00 0.  1.
</event>
<event>
 7    1  0.5329250E-013  0.5052887E+02  0.7816164E-02  0.1300439E+00
        -11   -1    0    0    0    0  0.00000000000E+00  0.00000000000E+00  0.45593999997E+02  0.45594000000E+02  0.51100000000E-03 0.  1.
         11   -1    0    0    0    0 -0.00000000000E+00 -0.00000000000E+00 -0.45593999997E+02  0.45594000000E+02  0.51100000000E-03 0. -1.
    9900012    2    1    2    0    0 -0.27150754828E+02 -0.40622193067E+01  0.29991662480E+02  0.50528869024E+02  0.30000027885E+02 0.  0.
         12    1    1    2    0    0  0.27150754828E+02  0.40622193067E+01 -0.29991662480E+02  0.40659130976E+02  0.00000000000E+00 0. -1.
         11    1    3    3    0    0 -0.14396887578E+02 -0.38531484445E+00 -0.11391871221E+01  0.14447026926E+02  0.51100000000E-03 0. -1.
        -11    1    3    3    0    0  0.19501134509E+00 -0.41276214438E+01  0.29871064941E+01  0.50988325797E+01  0.51100000000E-03 0.  1.
        -12    1    3    3    0    0 -0.12948878596E+02  0.45071698156E+00  0.28143743108E+02  0.30983009518E+02  0.00000000000E+00 0.  1.
</event>
<event>
 7    1  0.5329250E-013  0.5052885E+02  0.7816164E-02  0.1300439E+00
        -11   -1    0    0    0    0  0.00000000000E+00  0.00000000000E+00  0.45593999997E+02  0.45594000000E+02  0.51100000000E-03 0. -1.
         11   -1    0    0    0    0 -0.00000000000E+00 -0.00000000000E+00 -0.45593999997E+02  0.45594000000E+02  0.51100000000E-03 0.  1.
    9900012    2    1    2    0    0 -0.18619646993E+02 -0.14868747754E+02 -0.32945339553E+02  0.50528852048E+02  0.29999976285E+02 0.  0.
         12    1    1    2    0    0  0.18619646993E+02  0.14868747754E+02  0.32945339553E+02  0.40659147952E+02  0.00000000000E+00 0. -1.
         11    1    3    3    0    0 -0.10631817505E+02  0.83306742918E+00 -0.12052688700E+01  0.10732297895E+02  0.51100000000E-03 0. -1.
        -11    1    3    3    0    0 -0.11191855013E+02 -0.82175885084E+01 -0.11668382362E+02  0.18136634934E+02  0.51100000000E-03 0.  1.
         12    1    3    3    0    0  0.32040255254E+01 -0.74842266747E+01 -0.20071688321E+02  0.21659919218E+02  0.00000000000E+00 0. -1.
</event>
<event>
 7    1  0.5329250E-013  0.5052888E+02  0.7816164E-02  0.1300439E+00
        -11   -1    0    0    0    0  0.00000000000E+00  0.00000000000E+00  0.45593999997E+02  0.45594000000E+02  0.51100000000E-03 0. -1.
         11   -1    0    0    0    0 -0.00000000000E+00 -0.00000000000E+00 -0.45593999997E+02  0.45594000000E+02  0.51100000000E-03 0.  1.
    9900012    2    1    2    0    0 -0.37760138482E+02  0.59384253690E+01 -0.13858958690E+02  0.50528884294E+02  0.30000074300E+02 0.  0.
         12    1    1    2    0    0  0.37760138482E+02 -0.59384253690E+01  0.13858958690E+02  0.40659115706E+02  0.00000000000E+00 0. -1.
         11    1    3    3    0    0 -0.58099410272E+01 -0.33969245552E+01 -0.53306690485E+00  0.67511978019E+01  0.51100000000E-03 0. -1.
        -11    1    3    3    0    0 -0.25219248753E+02  0.77800034366E+01  0.24995302164E+01  0.26510122835E+02  0.51100000000E-03 0.  1.
        -12    1    3    3    0    0 -0.67309487010E+01  0.15553464876E+01 -0.15825422002E+02  0.17267563657E+02  0.00000000000E+00 0.  1.
</event>
<event>
 7    1  0.5329250E-013  0.5052886E+02  0.7816164E-02  0.1300439E+00
        -11   -1    0    0    0    0  0.00000000000E+00  0.00000000000E+00  0.45593999997E+02  0.45594000000E+02  0.51100000000E-03 0.  1.
         11   -1    0    0    0    0 -0.00000000000E+00 -0.00000000000E+00 -0.45593999997E+02  0.45594000000E+02  0.51100000000E-03 0. -1.
    9900012    2    1    2    0    0  0.15201641729E+02  0.22064731289E+02  0.30581422143E+02  0.50528860087E+02  0.30000000721E+02 0.  0.
         12    1    1    2    0    0 -0.15201641729E+02 -0.22064731289E+02 -0.30581422143E+02  0.40659139913E+02  0.00000000000E+00 0. -1.
         11    1    3    3    0    0  0.30551844600E+01 -0.18618558333E+01  0.13342724512E+01  0.38185000280E+01  0.51100000000E-03 0. -1.
        -11    1    3    3    0    0  0.19661982323E+02  0.19307241621E+02  0.21170706161E+02  0.34749991762E+02  0.51100000000E-03 0.  1.
         12    1    3    3    0    0 -0.75155250530E+01  0.46193455010E+01  0.80764435313E+01  0.11960368297E+02  0.00000000000E+00 0. -1.
</event>
<event>
 7    1  0.5329250E-013  0.5052890E+02  0.7816164E-02  0.1300439E+00
        -11   -1    0    0    0    0  0.00000000000E+00  0.00000000000E+00  0.45593999997E+02  0.45594000000E+02  0.51100000000E-03 0.  1.
         11   -1    0    0    0    0 -0.00000000000E+00 -0.00000000000E+00 -0.45593999997E+02  0.45594000000E+02  0.51100000000E-03 0. -1.
    9900012    2    1    2    0    0  0.38390049131E+02  0.13389628248E+02 -0.28990885739E+00  0.50528904289E+02  0.30000135076E+02 0.  0.
         12    1    1    2    0    0 -0.38390049131E+02 -0.13389628248E+02  0.28990885739E+00  0.40659095711E+02  0.00000000000E+00 0. -1.
         11    1    3    3    0    0  0.63042861369E+01 -0.58157057772E+01  0.17757233936E+01  0.87589754660E+01  0.51100000000E-03 0. -1.
        -11    1    3    3    0    0  0.33082932895E+02  0.17187182191E+02 -0.54785617043E+01  0.37681485098E+02  0.51100000000E-03 0.  1.
         12    1    3    3    0    0 -0.99716990042E+00  0.20181518343E+01  0.34129294534E+01  0.40884437247E+01  0.00000000000E+00 0. -1.
</event>
<event>
 7    1  0.5329250E-013  0.5052884E+02  0.7816164E-02  0.1300439E+00
        -11   -1    0    0    0    0  0.00000000000E+00  0.00000000000E+00  0.45593999997E+02  0.45594000000E+02  0.51100000000E-03 0.  1.
         11   -1    0    0    0    0 -0.00000000000E+00 -0.00000000000E+00 -0.45593999997E+02  0.45594000000E+02  0.51100000000E-03 0. -1.
    9900012    2    1    2    0    0  0.17789885688E+01  0.40613245510E+02  0.75271930060E+00  0.50528842391E+02  0.29999946931E+02 0.  0.
         12    1    1    2    0    0 -0.17789885688E+01 -0.40613245510E+02 -0.75271930060E+00  0.40659157609E+02  0.00000000000E+00 0. -1.
         11    1    3    3    0    0 -0.24147655987E+01  0.25504803916E+01 -0.71497664914E+01  0.79658774951E+01  0.51100000000E-03 0. -1.
        -11    1    3    3    0    0  0.40108193358E+01  0.63642585975E+01  0.78379269129E+01  0.10863864772E+02  0.51100000000E-03 0.  1.
         12    1    3    3    0    0  0.18293483171E+00  0.31698506520E+02  0.64558879049E-01  0.31699100123E+02  0.00000000000E+00 0. -1.
</event>
<event>
 7    1  0.5329250E-013  0.5052886E+02  0.7816164E-02  0.1300439E+00
        -11   -1    0    0    0    0  0.00000000000E+00  0.00000000000E+00  0.45593999997E+02  0.45594000000E+02  0.51100000000E-03 0. -1.
         11   -1    0    0    0    0 -0.00000000000E+00 -0.00000000000E+00 -0.45593999997E+02  0.45594000000E+02  0.51100000000E-03 0.  1.
    9900012    2    1    2    0    0  0.94812240373E+01  0.10653513606E+02 -0.38075909498E+02  0.50528857787E+02  0.29999993729E+02 0.  0.
         12    1    1    2    0    0 -0.94812240373E+01 -0.10653513606E+02  0.38075909498E+02  0.40659142213E+02  0.00000000000E+00 0. -1.
         11    1    3    3    0    0  0.13203720869E+02  0.70523027263E+01 -0.15592912204E+02  0.21615090326E+02  0.51100000000E-03 0. -1.
        -11    1    3    3    0    0  0.16029683867E+01  0.33686580410E+01  0.17362511255E+01  0.41148429955E+01  0.51100000000E-03 0.  1.
         12    1    3    3    0    0 -0.53254652188E+01  0.23255283910E+00 -0.24219248420E+02  0.24798924465E+02  0.00000000000E+00 0. -1.
</event>
<event>
 7    1  0.5329250E-013  0.5052882E+02  0.7816164E-02  0.1300439E+00
        -11   -1    0    0    0    0  0.00000000000E+00  0.00000000000E+00  0.45593999997E+02  0.45594000000E+02  0.51100000000E-03 0.  1.
         11   -1    0    0    0    0 -0.00000000000E+00 -0.00000000000E+00 -0.45593999997E+02  0.45594000000E+02  0.51100000000E-03 0. -1.
    9900012    2    1    2    0    0  0.24171789927E+02 -0.32312855506E+02 -0.49772248026E+01  0.50528821135E+02  0.29999882322E+02 0.  0.
         12    1    1    2    0    0 -0.24171789927E+02  0.32312855506E+02  0.49772248026E+01  0.40659178865E+02  0.00000000000E+00 0. -1.
         11    1    3    3    0    0 -0.21558956946E+01 -0.11843844886E+02 -0.21507796401E+01  0.12229080147E+02  0.51100000000E-03 0. -1.
        -11    1    3    3    0    0 -0.24566378543E+01 -0.36676015205E+01  0.15630535011E+01  0.46828951482E+01  0.51100000000E-03 0.  1.
        -12    1    3    3    0    0  0.28784323476E+02 -0.16801409100E+02 -0.43894986636E+01  0.33616845840E+02  0.00000000000E+00 0.  1.
</event>
<event>
 7    1  0.5329250E-013  0.5052885E+02  0.7816164E-02  0.1300439E+00
        -11   -1    0    0    0    0  0.00000000000E+00  0.00000000000E+00  0.45593999997E+02  0.45594000000E+02  0.51100000000E-03 0.  1.
         11   -1    0    0    0    0 -0.00000000000E+00 -0.00000000000E+00 -0.45593999997E+02  0.45594000000E+02  0.51100000000E-03 0. -1.
    9900012    2    1    2    0    0  0.24708938833E+02 -0.30534925859E+02  0.10500145322E+02  0.50528850879E+02  0.29999972732E+02 0.  0.
         12    1    1    2    0    0 -0.24708938833E+02  0.30534925859E+02 -0.10500145322E+02  0.40659149121E+02  0.00000000000E+00 0. -1.
         11    1    3    3    0    0 -0.30872528780E+01 -0.16397726801E+01 -0.24509323713E+00  0.35042910455E+01  0.51100000000E-03 0. -1.
        -11    1    3    3    0    0  0.15008845628E+02 -0.13896103964E+01  0.64269805196E+01  0.16386047205E+02  0.51100000000E-03 0.  1.
         12    1    3    3    0    0  0.12787346083E+02 -0.27505542783E+02  0.43182580393E+01  0.30638512629E+02  0.00000000000E+00 0. -1.
</event>
<event>
 7    1  0.5329250E-013  0.5052886E+02  0.7816164E-02  0.1300439E+00
        -11   -1    0    0    0    0  0.00000000000E+00  0.00000000000E+00  0.45593999997E+02  0.45594000000E+02  0.51100000000E-03 0. -1.
         11   -1    0    0    0    0 -0.00000000000E+00 -0.00000000000E+00 -0.45593999997E+02  0.45594000000E+02  0.51100000000E-03 0.  1.
    9900012    2    1    2    0    0  0.21608404272E+02 -0.31524421491E+02 -0.13872750329E+02  0.50528862193E+02  0.30000007122E+02 0.  0.
         12    1    1    2    0    0 -0.21608404272E+02  0.31524421491E+02  0.13872750329E+02  0.40659137807E+02  0.00000000000E+00 0. -1.
         11    1    3    3    0    0 -0.60818904966E+00 -0.20546525821E+02 -0.65067568275E+01  0.21560786208E+02  0.51100000000E-03 0. -1.
        -11    1    3    3    0    0  0.81266128385E+01 -0.98570528459E+01 -0.75366667252E+01  0.14832554487E+02  0.51100000000E-03 0.  1.
        -12    1    3    3    0    0  0.14089980483E+02 -0.11208428239E+01  0.17067322382E+00  0.14135521497E+02  0.00000000000E+00 0.  1.
</event>
<event>
 7    1  0.5329250E-013  0.5052886E+02  0.7816164E-02  0.1300439E+00
        -11   -1    0    0    0    0  0.00000000000E+00  0.00000000000E+00  0.45593999997E+02  0.45594000000E+02  0.51100000000E-03 0. -1.
         11   -1    0    0    0    0 -0.00000000000E+00 -0.00000000000E+00 -0.45593999997E+02  0.45594000000E+02  0.51100000000E-03 0.  1.
    9900012    2    1    2    0    0 -0.24116610275E+02 -0.21899219964E+02 -0.24330611118E+02  0.50528863713E+02  0.30000011742E+02 0.  0.
         12    1    1    2    0    0  0.24116610275E+02  0.21899219964E+02  0.24330611118E+02  0.40659136287E+02  0.00000000000E+00 0. -1.
         11    1    3    3    0    0 -0.11463238928E+02  0.12325579797E+01 -0.17132912148E+01  0.11655917508E+02  0.51100000000E-03 0. -1.
        -11    1    3    3    0    0 -0.10193888376E+02 -0.35354233171E+01 -0.13034570128E+02  0.16920833223E+02  0.51100000000E-03 0.  1.
         12    1    3    3    0    0 -0.24594829703E+01 -0.19596354627E+02 -0.95827497752E+01  0.21952112983E+02  0.00000000000E+00 0. -1.
</event>
<event>
 7    1  0.5329250E-013  0.5052887E+02  0.7816164E-02  0.1300439E+00
        -11   -1    0    0    0    0  0.00000000000E+00  0.00000000000E+00  0.45593999997E+02  0.45594000000E+02  0.51100000000E-03 0.  1.
         11   -1    0    0    0    0 -0.00000000000E+00 -0.00000000000E+00 -0.45593999997E+02  0.45594000000E+02  0.51100000000E-03 0. -1.
    9900012    2    1    2    0    0 -0.37559422408E+02  0.26968529666E+00 -0.15568611966E+02  0.50528872853E+02  0.30000039525E+02 0.  0.
         12    1    1    2    0    0  0.37559422408E+02 -0.26968529666E+00  0.15568611966E+02  0.40659127147E+02  0.00000000000E+00 0. -1.
         11    1    3    3    0    0 -0.73375481546E+01 -0.29097583184E+01 -0.14592735656E+02  0.16590787823E+02  0.51100000000E-03 0. -1.
        -11    1    3    3    0    0 -0.16690937214E+02 -0.42620538176E+01 -0.50797472813E+01  0.17959853021E+02  0.51100000000E-03 0.  1.
        -12    1    3    3    0    0 -0.13530937039E+02  0.74414974326E+01  0.41038709719E+01  0.15978232010E+02  0.00000000000E+00 0.  1.
</event>
<event>
 7    1  0.5329250E-013  0.5052885E+02  0.7816164E-02  0.1300439E+00
        -11   -1    0    0    0    0  0.00000000000E+00  0.00000000000E+00  0.45593999997E+02  0.45594000000E+02  0.51100000000E-03 0.  1.
         11   -1    0    0    0    0 -0.00000000000E+00 -0.00000000000E+00 -0.45593999997E+02  0.45594000000E+02  0.51100000000E-03 0. -1.
    9900012    2    1    2    0    0  0.13517215847E+02  0.37902413831E+02 -0.58188108275E+01  0.50528847796E+02  0.29999963362E+02 0.  0.
         12    1    1    2    0    0 -0.13517215847E+02 -0.37902413831E+02  0.58188108275E+01  0.40659152204E+02  0.00000000000E+00 0. -1.
         11    1    3    3    0    0 -0.25377229863E+01  0.65247289479E+01 -0.10629290614E+02  0.12727684197E+02  0.51100000000E-03 0. -1.
        -11    1    3    3    0    0  0.72767119570E+01  0.40498779299E+01 -0.13713461640E+01  0.84399430517E+01  0.51100000000E-03 0.  1.
        -12    1    3    3    0    0  0.87782268759E+01  0.27327806953E+02  0.61818259505E+01  0.29361220548E+02  0.00000000000E+00 0.  1.
</event>
<event>
 7    1  0.5329250E-013  0.5052886E+02  0.7816164E-02  0.1300439E+00
        -11   -1    0    0    0    0  0.00000000000E+00  0.00000000000E+00  0.45593999997E+02  0.45594000000E+02  0.51100000000E-03 0. -1.
         11   -1    0    0    0    0 -0.00000000000E+00 -0.00000000000E+00 -0.45593999997E+02  0.45594000000E+02  0.51100000000E-03 0.  1.
    9900012    2    1    2    0    0  0.16523866736E+02 -0.12412935600E+02 -0.35014950340E+02  0.50528857247E+02  0.29999992088E+02 0.  0.
         12    1    1    2    0    0 -0.16523866736E+02  0.12412935600E+02  0.35014950340E+02  0.40659142753E+02  0.00000000000E+00 0. -1.
         11    1    3    3    0    0 -0.60529826387E+01  0.69868806666E+00 -0.81887412132E+01  0.10206970498E+02  0.51100000000E-03 0. -1.
        -11    1    3    3    0    0  0.12205374720E+02 -0.85472048340E+01 -0.24619593250E+02  0.28777599875E+02  0.51100000000E-03 0.  1.
        -12    1    3    3    0    0  0.10371474654E+02 -0.45644188323E+01 -0.22066158766E+01  0.11544286873E+02  0.00000000000E+00 0.  1.
</event>
<event>
 7    1  0.5329250E-013  0.5052887E+02  0.7816164E-02  0.1300439E+00
        -11   -1    0    0    0    0  0.00000000000E+00  0.00000000000E+00  0.45593999997E+02  0.45594000000E+02  0.51100000000E-03 0.  1.
         11   -1    0    0    0    0 -0.00000000000E+00 -0.00000000000E+00 -0.45593999997E+02  0.45594000000E+02  0.51100000000E-03 0. -1.
    9900012    2    1    2    0    0  0.25632406162E+02  0.10426083218E+02  0.29789961378E+02  0.50528865038E+02  0.30000015771E+02 0.  0.
         12    1    1    2    0    0 -0.25632406162E+02 -0.10426083218E+02 -0.29789961378E+02  0.40659134962E+02  0.00000000000E+00 0. -1.
         11    1    3    3    0    0  0.63952674927E+01  0.45930185056E+01  0.19408278868E+02  0.20944606804E+02  0.51100000000E-03 0. -1.
        -11    1    3    3    0    0 -0.36710674769E+01  0.13005910000E+01 -0.29746632302E+00  0.39059902514E+01  0.51100000000E-03 0.  1.
        -12    1    3    3    0    0  0.22908206146E+02  0.45324737126E+01  0.10679148832E+02  0.25678267983E+02  0.00000000000E+00 0.  1.
</event>
<event>
 7    1  0.5329250E-013  0.5052888E+02  0.7816164E-02  0.1300439E+00
        -11   -1    0    0    0    0  0.00000000000E+00  0.00000000000E+00  0.45593999997E+02  0.45594000000E+02  0.51100000000E-03 0.  1.
         11   -1    0    0    0    0 -0.00000000000E+00 -0.00000000000E+00 -0.45593999997E+02  0.45594000000E+02  0.51100000000E-03 0. -1.
    9900012    2    1    2    0    0 -0.60490424872E+00  0.34293674360E+02  0.21834417091E+02  0.50528883187E+02  0.30000070936E+02 0.  0.
         12    1    1    2    0    0  0.60490424872E+00 -0.34293674360E+02 -0.21834417091E+02  0.40659116813E+02  0.00000000000E+00 0. -1.
         11    1    3    3    0    0  0.27024544374E+01  0.29250189143E+02  0.48991141736E+01  0.29780499405E+02  0.51100000000E-03 0. -1.
        -11    1    3    3    0    0  0.18320905749E+01  0.63658303496E+01  0.83978884177E+01  0.10696021786E+02  0.51100000000E-03 0.  1.
         12    1    3    3    0    0 -0.51394492610E+01 -0.13223451319E+01  0.85374145000E+01  0.10052361996E+02  0.00000000000E+00 0. -1.
</event>
<event>
 7    1  0.5329250E-013  0.5052888E+02  0.7816164E-02  0.1300439E+00
        -11   -1    0    0    0    0  0.00000000000E+00  0.00000000000E+00  0.45593999997E+02  0.45594000000E+02  0.51100000000E-03 0.  1.
         11   -1    0    0    0    0 -0.00000000000E+00 -0.00000000000E+00 -0.45593999997E+02  0.45594000000E+02  0.51100000000E-03 0. -1.
    9900012    2    1    2    0    0  0.13916564899E+02 -0.38197237164E+02  0.68164803618E+00  0.50528876183E+02  0.30000049645E+02 0.  0.
         12    1    1    2    0    0 -0.13916564899E+02  0.38197237164E+02 -0.68164803618E+00  0.40659123817E+02  0.00000000000E+00 0. -1.
         11    1    3    3    0    0 -0.38098925929E+01 -0.85821089362E+01 -0.38725028396E+01  0.10156975626E+02  0.51100000000E-03 0. -1.
        -11    1    3    3    0    0  0.10218168537E+02 -0.82643517993E+00 -0.13809405327E+00  0.10252464757E+02  0.51100000000E-03 0.  1.
         12    1    3    3    0    0  0.75082889549E+01 -0.28788693048E+02  0.46922449291E+01  0.30119435800E+02  0.00000000000E+00 0. -1.
</event>
<event>
 7    1  0.5329250E-013  0.5052887E+02  0.7816164E-02  0.1300439E+00
        -11   -1    0    0    0    0  0.00000000000E+00  0.00000000000E+00  0.45593999997E+02  0.45594000000E+02  0.51100000000E-03 0.  1.
         11   -1    0    0    0    0 -0.00000000000E+00 -0.00000000000E+00 -0.45593999997E+02  0.45594000000E+02  0.51100000000E-03 0. -1.
    9900012    2    1    2    0    0  0.95378344685E+01 -0.28925505543E+02  0.26935293066E+02  0.50528866096E+02  0.30000018985E+02 0.  0.
         12    1    1    2    0    0 -0.95378344685E+01  0.28925505543E+02 -0.26935293066E+02  0.40659133904E+02  0.00000000000E+00 0. -1.
         11    1    3    3    0    0  0.48304480139E+01 -0.11561016828E+02  0.63955803454E+01  0.14067472635E+02  0.51100000000E-03 0. -1.
        -11    1    3    3    0    0 -0.91587242346E+01 -0.11168567736E+02  0.67317608880E+01  0.15935361301E+02  0.51100000000E-03 0.  1.
         12    1    3    3    0    0  0.13866110689E+02 -0.61959209791E+01  0.13807951833E+02  0.20526032160E+02  0.00000000000E+00 0. -1.
</event>
<event>
 7    1  0.5329250E-013  0.5052889E+02  0.7816164E-02  0.1300439E+00
        -11   -1    0    0    0    0  0.00000000000E+00  0.00000000000E+00  0.45593999997E+02  0.45594000000E+02  0.51100000000E-03 0.  1.
         11   -1    0    0    0    0 -0.00000000000E+00 -0.00000000000E+00 -0.45593999997E+02  0.45594000000E+02  0.51100000000E-03 0. -1.
    9900012    2    1    2    0    0  0.23303046924E+02  0.23375049127E+02  0.23743182008E+02  0.50528885284E+02  0.30000077309E+02 0.  0.
         12    1    1    2    0    0 -0.23303046924E+02 -0.23375049127E+02 -0.23743182008E+02  0.40659114716E+02  0.00000000000E+00 0. -1.
         11    1    3    3    0    0  0.22177513305E+01  0.79882890179E+01 -0.23633540905E+01  0.86207090901E+01  0.51100000000E-03 0. -1.
        -11    1    3    3    0    0  0.16521730314E+02  0.11365635823E+02  0.60450102961E+01  0.20944865718E+02  0.51100000000E-03 0.  1.
        -12    1    3    3    0    0  0.45635652794E+01  0.40211242870E+01  0.20061525802E+02  0.20963310476E+02  0.00000000000E+00 0.  1.
</event>
<event>
 7    1  0.5329250E-013  0.5052893E+02  0.7816164E-02  0.1300439E+00
        -11   -1    0    0    0    0  0.00000000000E+00  0.00000000000E+00  0.45593999997E+02  0.45594000000E+02  0.51100000000E-03 0. -1.
         11   -1    0    0    0    0 -0.00000000000E+00 -0.00000000000E+00 -0.45593999997E+02  0.45594000000E+02  0.51100000000E-03 0.  1.
    9900012    2    1    2    0    0 -0.39648619675E+02  0.59435415522E+01 -0.67691500036E+01  0.50528928195E+02  0.30000207740E+02 0.  0.
         12    1    1    2    0    0  0.39648619675E+02 -0.59435415522E+01  0.67691500036E+01  0.40659071805E+02  0.00000000000E+00 0. -1.
         11    1    3    3    0    0 -0.17086216944E+02  0.15231451470E+02 -0.19945413812E+01  0.22976381763E+02  0.51100000000E-03 0. -1.
        -11    1    3    3    0    0 -0.96946410803E+01 -0.50028684297E+01  0.37471870208E+01  0.11534997574E+02  0.51100000000E-03 0.  1.
        -12    1    3    3    0    0 -0.12867761650E+02 -0.42850414878E+01 -0.85217956431E+01  0.16017548858E+02  0.00000000000E+00 0.  1.
</event>
<event>
 7    1  0.5329250E-013  0.5052886E+02  0.7816164E-02  0.1300439E+00
        -11   -1    0    0    0    0  0.00000000000E+00  0.00000000000E+00  0.45593999997E+02  0.45594000000E+02  0.51100000000E-03 0.  1.
         11   -1    0    0    0    0 -0.00000000000E+00 -0.00000000000E+00 -0.45593999997E+02  0.45594000000E+02  0.51100000000E-03 0. -1.
    9900012    2    1    2    0    0  0.18632618400E+02  0.33179699012E+02  0.14321281792E+02  0.50528855800E+02  0.29999987688E+02 0.  0.
         12    1    1    2    0    0 -0.18632618400E+02 -0.33179699012E+02 -0.14321281792E+02  0.40659144200E+02  0.00000000000E+00 0. -1.
         11    1    3    3    0    0 -0.11889631825E+01  0.24816382269E+01 -0.16688437803E+01  0.32182606425E+01  0.51100000000E-03 0. -1.
        -11    1    3    3    0    0  0.18395146201E+01  0.19195418553E+02  0.17324376237E+02  0.25922614061E+02  0.51100000000E-03 0.  1.
        -12    1    3    3    0    0  0.17982066962E+02  0.11502642232E+02 -0.13342506648E+01  0.21387981097E+02  0.00000000000E+00 0.  1.
</event>
<event>
 7    1  0.5329250E-013  0.5052886E+02  0.7816164E-02  0.1300439E+00
        -11   -1    0    0    0    0  0.00000000000E+00  0.00000000000E+00  0.45593999997E+02  0.45594000000E+02  0.51100000000E-03 0.  1.
         11   -1    0    0    0    0 -0.00000000000E+00 -0.00000000000E+00 -0.45593999997E+02  0.45594000000E+02  0.51100000000E-03 0. -1.
    9900012    2    1    2    0    0 -0.19933578487E+02  0.32215807646E+02  0.14763451053E+02  0.50528864488E+02  0.30000014098E+02 0.  0.
         12    1    1    2    0    0  0.19933578487E+02 -0.32215807646E+02 -0.14763451053E+02  0.40659135512E+02  0.00000000000E+00 0. -1.
         11    1    3    3    0    0 -0.83846370639E+01  0.51490165009E+01  0.14470016648E+02  0.17498453979E+02  0.51100000000E-03 0. -1.
        -11    1    3    3    0    0 -0.12360448766E+02  0.11162287762E+02  0.28639372763E+01  0.16899097573E+02  0.51100000000E-03 0.  1.
         12    1    3    3    0    0  0.81150734336E+00  0.15904503383E+02 -0.25705028714E+01  0.16131312936E+02  0.00000000000E+00 0. -1.
</event>
<event>
 7    1  0.5329250E-013  0.5052886E+02  0.7816164E-02  0.1300439E+00
        -11   -1    0    0    0    0  0.00000000000E+00  0.00000000000E+00  0.45593999997E+02  0.45594000000E+02  0.51100000000E-03 0.  1.
         11   -1    0    0    0    0 -0.00000000000E+00 -0.00000000000E+00 -0.45593999997E+02  0.45594000000E+02  0.51100000000E-03 0. -1.
    9900012    2    1    2    0    0  0.33336522314E+02 -0.19615742170E+01  0.23194700853E+02  0.50528860301E+02  0.30000001370E+02 0.  0.
         12    1    1    2    0    0 -0.33336522314E+02  0.19615742170E+01 -0.23194700853E+02  0.40659139699E+02  0.00000000000E+00 0. -1.
         11    1    3    3    0    0  0.86856912470E+01 -0.99757543181E+01  0.38924295509E+01  0.13787962675E+02  0.51100000000E-03 0. -1.
        -11    1    3    3    0    0  0.20644549709E+02 -0.12429520262E+01  0.98123328394E+01  0.22891575709E+02  0.51100000000E-03 0.  1.
        -12    1    3    3    0    0  0.40062813586E+01  0.92571321273E+01  0.94899384629E+01  0.13849321918E+02  0.00000000000E+00 0.  1.
</event>
<event>
 7    1  0.5329250E-013  0.5052889E+02  0.7816164E-02  0.1300439E+00
        -11   -1    0    0    0    0  0.00000000000E+00  0.00000000000E+00  0.45593999997E+02  0.45594000000E+02  0.51100000000E-03 0.  1.
         11   -1    0    0    0    0 -0.00000000000E+00 -0.00000000000E+00 -0.45593999997E+02  0.45594000000E+02  0.51100000000E-03 0. -1.
    9900012    2    1    2    0    0 -0.11323745198E+02  0.19961901882E+02  0.33562749841E+02  0.50528893899E+02  0.30000103495E+02 0.  0.
         12    1    1    2    0    0  0.11323745198E+02 -0.19961901882E+02 -0.33562749841E+02  0.40659106101E+02  0.00000000000E+00 0. -1.
         11    1    3    3    0    0 -0.62337369758E+01  0.30159542671E+01  0.25798027164E+01  0.73899146911E+01  0.51100000000E-03 0. -1.
        -11    1    3    3    0    0 -0.11808856663E+02  0.18936237363E+02  0.27173889003E+02  0.35163197025E+02  0.51100000000E-03 0.  1.
         12    1    3    3    0    0  0.67188484417E+01 -0.19902897481E+01  0.38090581214E+01  0.79757821833E+01  0.00000000000E+00 0. -1.
</event>
<event>
 7    1  0.5329250E-013  0.5052886E+02  0.7816164E-02  0.1300439E+00
        -11   -1    0    0    0    0  0.00000000000E+00  0.00000000000E+00  0.45593999997E+02  0.45594000000E+02  0.51100000000E-03 0.  1.
         11   -1    0    0    0    0 -0.00000000000E+00 -0.00000000000E+00 -0.45593999997E+02  0.45594000000E+02  0.51100000000E-03 0. -1.
    9900012    2    1    2    0    0 -0.20920177333E+02 -0.15532602610E+02  0.31212984671E+02  0.50528856188E+02  0.29999988868E+02 0.  0.
         12    1    1    2    0    0  0.20920177333E+02  0.15532602610E+02 -0.31212984671E+02  0.40659143812E+02  0.00000000000E+00 0. -1.
         11    1    3    3    0    0  0.46594339277E+01 -0.24914244333E+01  0.17742939786E+01  0.55736558574E+01  0.51100000000E-03 0. -1.
        -11    1    3    3    0    0 -0.97644421915E+01 -0.62014048586E+01  0.24399606130E+02  0.27002639372E+02  0.51100000000E-03 0.  1.
        -12    1    3    3    0    0 -0.15815169069E+02 -0.68397733181E+01  0.50390845627E+01  0.17952560958E+02  0.00000000000E+00 0.  1.
</event>
<event>
 7    1  0.5329250E-013  0.5052885E+02  0.7816164E-02  0.1300439E+00
        -11   -1    0    0    0    0  0.00000000000E+00  0.00000000000E+00  0.45593999997E+02  0.45594000000E+02  0.51100000000E-03 0.  1.
         11   -1    0    0    0    0 -0.00000000000E+00 -0.00000000000E+00 -0.45593999997E+02  0.45594000000E+02  0.51100000000E-03 0. -1.
    9900012    2    1    2    0    0  0.22737764681E+01 -0.12847379939E+01  0.40575185172E+02  0.50528852654E+02  0.29999978128E+02 0.  0.
         12    1    1    2    0    0 -0.22737764681E+01  0.12847379939E+01 -0.40575185172E+02  0.40659147346E+02  0.00000000000E+00 0. -1.
         11    1    3    3    0    0  0.13008892640E+02 -0.56695257559E+01  0.30436033695E+02  0.33581646139E+02  0.51100000000E-03 0.  1.
        -11    1    3    3    0    0 -0.47169067068E+01  0.45071063917E+01  0.84876726502E+01  0.10705316632E+02  0.51100000000E-03 0. -1.
        -12    1    3    3    0    0 -0.60182094647E+01 -0.12231862968E+00  0.16514788265E+01  0.62418898839E+01  0.00000000000E+00 0.  1.
</event>
<event>
 7    1  0.5329250E-013  0.5052886E+02  0.7816164E-02  0.1300439E+00
        -11   -1    0    0    0    0  0.00000000000E+00  0.00000000000E+00  0.45593999997E+02  0.45594000000E+02  0.51100000000E-03 0.  1.
         11   -1    0    0    0    0 -0.00000000000E+00 -0.00000000000E+00 -0.45593999997E+02  0.45594000000E+02  0.51100000000E-03 0. -1.
    9900012    2    1    2    0    0 -0.23187390393E+02  0.10375574006E+02  0.31746777409E+02  0.50528862219E+02  0.30000007202E+02 0.  0.
         12    1    1    2    0    0  0.23187390393E+02 -0.10375574006E+02 -0.31746777409E+02  0.40659137781E+02  0.00000000000E+00 0. -1.
         11    1    3    3    0    0  0.54542174036E+01  0.28187164983E+01  0.90297341652E+01  0.10919237590E+02  0.51100000000E-03 0. -1.
        -11    1    3    3    0    0 -0.19149239788E+02  0.96752231562E+01  0.20414059562E+02  0.29614813112E+02  0.51100000000E-03 0.  1.
        -12    1    3    3    0    0 -0.94923680091E+01 -0.21183656481E+01  0.23029836815E+01  0.99948115178E+01  0.00000000000E+00 0.  1.
</event>
<event>
 7    1  0.5329250E-013  0.5052885E+02  0.7816164E-02  0.1300439E+00
        -11   -1    0    0    0    0  0.00000000000E+00  0.00000000000E+00  0.45593999997E+02  0.45594000000E+02  0.51100000000E-03 0.  1.
         11   -1    0    0    0    0 -0.00000000000E+00 -0.00000000000E+00 -0.45593999997E+02  0.45594000000E+02  0.51100000000E-03 0. -1.
    9900012    2    1    2    0    0  0.30272540247E+02 -0.17585797069E+02  0.20675568464E+02  0.50528854868E+02  0.29999984857E+02 0.  0.
         12    1    1    2    0    0 -0.30272540247E+02  0.17585797069E+02 -0.20675568464E+02  0.40659145132E+02  0.00000000000E+00 0. -1.
         11    1    3    3    0    0  0.26142658135E+02 -0.92676532291E+01  0.19706723063E+01  0.27806681217E+02  0.51100000000E-03 0.  1.
        -11    1    3    3    0    0 -0.18782541927E+00 -0.46838197097E+01  0.20121400412E+01  0.51011913577E+01  0.51100000000E-03 0. -1.
        -12    1    3    3    0    0  0.43177075313E+01 -0.36343241298E+01  0.16692756117E+02  0.17620982293E+02  0.00000000000E+00 0.  1.
</event>
<event>
 7    1  0.5329250E-013  0.5052887E+02  0.7816164E-02  0.1300439E+00
        -11   -1    0    0    0    0  0.00000000000E+00  0.00000000000E+00  0.45593999997E+02  0.45594000000E+02  0.51100000000E-03 0.  1.
         11   -1    0    0    0    0 -0.00000000000E+00 -0.00000000000E+00 -0.45593999997E+02  0.45594000000E+02  0.51100000000E-03 0. -1.
    9900012    2    1    2    0    0  0.28290512809E+02 -0.24760221886E+02  0.15483645253E+02  0.50528868515E+02  0.30000026337E+02 0.  0.
         12    1    1    2    0    0 -0.28290512809E+02  0.24760221886E+02 -0.15483645253E+02  0.40659131485E+02  0.00000000000E+00 0. -1.
         11    1    3    3    0    0  0.73456415818E+00 -0.18689869253E+01  0.69206720222E+01  0.72061361443E+01  0.51100000000E-03 0. -1.
        -11    1    3    3    0    0  0.18600379449E+02 -0.25197609253E+02  0.11881978699E+02  0.33497388641E+02  0.51100000000E-03 0.  1.
        -12    1    3    3    0    0  0.89555692011E+01  0.23063742919E+01 -0.33190054689E+01  0.98253437290E+01  0.00000000000E+00 0.  1.
</event>
<event>
 7    1  0.5329250E-013  0.5052886E+02  0.7816164E-02  0.1300439E+00
        -11   -1    0    0    0    0  0.00000000000E+00  0.00000000000E+00  0.45593999997E+02  0.45594000000E+02  0.51100000000E-03 0.  1.
         11   -1    0    0    0    0 -0.00000000000E+00 -0.00000000000E+00 -0.45593999997E+02  0.45594000000E+02  0.51100000000E-03 0. -1.
    9900012    2    1    2    0    0 -0.14835239718E+01  0.11120388931E+02  0.39080703608E+02  0.50528864645E+02  0.30000014574E+02 0.  0.
         12    1    1    2    0    0  0.14835239718E+01 -0.11120388931E+02 -0.39080703608E+02  0.40659135355E+02  0.00000000000E+00 0. -1.
         11    1    3    3    0    0 -0.77862146787E+01  0.24361042823E+01  0.11328097379E+02  0.13960140887E+02  0.51100000000E-03 0. -1.
        -11    1    3    3    0    0 -0.45859174735E+00  0.14475514877E+02  0.20424197569E+02  0.25037944882E+02  0.51100000000E-03 0.  1.
         12    1    3    3    0    0  0.67612824542E+01 -0.57912302279E+01  0.73284086602E+01  0.11530778875E+02  0.00000000000E+00 0. -1.
</event>
<event>
 7    1  0.5329250E-013  0.5052887E+02  0.7816164E-02  0.1300439E+00
        -11   -1    0    0    0    0  0.00000000000E+00  0.00000000000E+00  0.45593999997E+02  0.45594000000E+02  0.51100000000E-03 0.  1.
         11   -1    0    0    0    0 -0.00000000000E+00 -0.00000000000E+00 -0.45593999997E+02  0.45594000000E+02  0.51100000000E-03 0. -1.
    9900012    2    1    2    0    0 -0.31879429993E+02  0.24731091037E+02 -0.50239451184E+01  0.50528868859E+02  0.30000027385E+02 0.  0.
         12    1    1    2    0    0  0.31879429993E+02 -0.24731091037E+02  0.50239451184E+01  0.40659131141E+02  0.00000000000E+00 0. -1.
         11    1    3    3    0    0 -0.16311596154E+01  0.11760318122E+02 -0.30921564977E+01  0.12268952526E+02  0.51100000000E-03 0. -1.
        -11    1    3    3    0    0 -0.14846911578E+02  0.57924907586E+01 -0.10644059611E+02  0.19164543768E+02  0.51100000000E-03 0.  1.
        -12    1    3    3    0    0 -0.15401358800E+02  0.71782821568E+01  0.87122709899E+01  0.19095372565E+02  0.00000000000E+00 0.  1.
</event>
<event>
 7    1  0.5329250E-013  0.5052888E+02  0.7816164E-02  0.1300439E+00
        -11   -1    0    0    0    0  0.00000000000E+00  0.00000000000E+00  0.45593999997E+02  0.45594000000E+02  0.51100000000E-03 0.  1.
         11   -1    0    0    0    0 -0.00000000000E+00 -0.00000000000E+00 -0.45593999997E+02  0.45594000000E+02  0.51100000000E-03 0. -1.
    9900012    2    1    2    0    0 -0.64374407574E+01 -0.40019006191E+02  0.31941152144E+01  0.50528882055E+02  0.30000067495E+02 0.  0.
         12    1    1    2    0    0  0.64374407574E+01  0.40019006191E+02 -0.31941152144E+01  0.40659117945E+02  0.00000000000E+00 0. -1.
         11    1    3    3    0    0  0.21354106023E+01 -0.28026815120E+02 -0.80006989690E+01  0.29224536412E+02  0.51100000000E-03 0. -1.
        -11    1    3    3    0    0 -0.52245919280E+01 -0.48935681061E+01 -0.54875388007E+00  0.71794498888E+01  0.51100000000E-03 0.  1.
        -12    1    3    3    0    0 -0.33482594317E+01 -0.70986229647E+01  0.11743568063E+02  0.14124895755E+02  0.00000000000E+00 0.  1.
</event>
<event>
 7    1  0.5329250E-013  0.5052884E+02  0.7816164E-02  0.1300439E+00
        -11   -1    0    0    0    0  0.00000000000E+00  0.00000000000E+00  0.45593999997E+02  0.45594000000E+02  0.51100000000E-03 0.  1.
         11   -1    0    0    0    0 -0.00000000000E+00 -0.00000000000E+00 -0.45593999997E+02  0.45594000000E+02  0.51100000000E-03 0. -1.
    9900012    2    1    2    0    0 -0.20398097838E+02  0.10805751296E+02  0.33471196488E+02  0.50528835586E+02  0.29999926248E+02 0.  0.
         12    1    1    2    0    0  0.20398097838E+02 -0.10805751296E+02 -0.33471196488E+02  0.40659164414E+02  0.00000000000E+00 0. -1.
         11    1    3    3    0    0 -0.71521567723E+00  0.23491298696E+01  0.20684459877E+02  0.20829710158E+02  0.51100000000E-03 0. -1.
        -11    1    3    3    0    0 -0.18154615503E+02  0.35516315012E+01  0.15275476104E+02  0.23990504806E+02  0.51100000000E-03 0.  1.
        -12    1    3    3    0    0 -0.15282666571E+01  0.49049899257E+01 -0.24887394924E+01  0.57086206221E+01  0.00000000000E+00 0.  1.
</event>
<event>
 7    1  0.5329250E-013  0.5052886E+02  0.7816164E-02  0.1300439E+00
        -11   -1    0    0    0    0  0.00000000000E+00  0.00000000000E+00  0.45593999997E+02  0.45594000000E+02  0.51100000000E-03 0.  1.
         11   -1    0    0    0    0 -0.00000000000E+00 -0.00000000000E+00 -0.45593999997E+02  0.45594000000E+02  0.51100000000E-03 0. -1.
    9900012    2    1    2    0    0 -0.11541704974E+02  0.19872886503E+02  0.33541368027E+02  0.50528856615E+02  0.29999990167E+02 0.  0.
         12    1    1    2    0    0  0.11541704974E+02 -0.19872886503E+02 -0.33541368027E+02  0.40659143385E+02  0.00000000000E+00 0. -1.
         11    1    3    3    0    0  0.44772382088E+01  0.22333185823E-01  0.11826085105E+01  0.46308448366E+01  0.51100000000E-03 0. -1.
        -11    1    3    3    0    0 -0.41353597991E+01  0.13510292755E+02  0.28623122875E+02  0.31920406864E+02  0.51100000000E-03 0.  1.
         12    1    3    3    0    0 -0.11883583384E+02  0.63402605620E+01  0.37356366418E+01  0.13977604915E+02  0.00000000000E+00 0. -1.
</event>
<event>
 7    1  0.5329250E-013  0.5052887E+02  0.7816164E-02  0.1300439E+00
        -11   -1    0    0    0    0  0.00000000000E+00  0.00000000000E+00  0.45593999997E+02  0.45594000000E+02  0.51100000000E-03 0.  1.
         11   -1    0    0    0    0 -0.00000000000E+00 -0.00000000000E+00 -0.45593999997E+02  0.45594000000E+02  0.51100000000E-03 0. -1.
    9900012    2    1    2    0    0  0.38004120893E+02 -0.13572636582E+02  0.49634049102E+01  0.50528867484E+02  0.30000023205E+02 0.  0.
         12    1    1    2    0    0 -0.38004120893E+02  0.13572636582E+02 -0.49634049102E+01  0.40659132516E+02  0.00000000000E+00 0. -1.
         11    1    3    3    0    0  0.20693653028E+02 -0.14378754876E+02  0.11019757869E+02  0.27502925866E+02  0.51100000000E-03 0. -1.
        -11    1    3    3    0    0  0.10676408612E+02 -0.49004379114E+01  0.99266804389E+00  0.11789206194E+02  0.51100000000E-03 0.  1.
         12    1    3    3    0    0  0.66340592523E+01  0.57065562060E+01 -0.70490210026E+01  0.11236735424E+02  0.00000000000E+00 0. -1.
</event>
<event>
 7    1  0.5329250E-013  0.5052886E+02  0.7816164E-02  0.1300439E+00
        -11   -1    0    0    0    0  0.00000000000E+00  0.00000000000E+00  0.45593999997E+02  0.45594000000E+02  0.51100000000E-03 0.  1.
         11   -1    0    0    0    0 -0.00000000000E+00 -0.00000000000E+00 -0.45593999997E+02  0.45594000000E+02  0.51100000000E-03 0. -1.
    9900012    2    1    2    0    0 -0.10336788048E+02 -0.18970724992E+01  0.39277445624E+02  0.50528858274E+02  0.29999995208E+02 0.  0.
         12    1    1    2    0    0  0.10336788048E+02  0.18970724992E+01 -0.39277445624E+02  0.40659141726E+02  0.00000000000E+00 0. -1.
         11    1    3    3    0    0 -0.60142686734E+01  0.79216177227E+01  0.48547273144E+01  0.11067602838E+02  0.51100000000E-03 0. -1.
        -11    1    3    3    0    0 -0.76749934366E+01  0.21941721219E+00  0.21055406830E+02  0.22411689476E+02  0.51100000000E-03 0.  1.
         12    1    3    3    0    0  0.33524740624E+01 -0.10038107434E+02  0.13367311480E+02  0.17049565959E+02  0.00000000000E+00 0. -1.
</event>
<event>
 7    1  0.5329250E-013  0.5052885E+02  0.7816164E-02  0.1300439E+00
        -11   -1    0    0    0    0  0.00000000000E+00  0.00000000000E+00  0.45593999997E+02  0.45594000000E+02  0.51100000000E-03 0. -1.
         11   -1    0    0    0    0 -0.00000000000E+00 -0.00000000000E+00 -0.45593999997E+02  0.45594000000E+02  0.51100000000E-03 0.  1.
    9900012    2    1    2    0    0  0.53011926157E+01  0.26131964008E+02  0.30695020224E+02  0.50528850321E+02  0.29999971034E+02 0.  0.
         12    1    1    2    0    0 -0.53011926157E+01 -0.26131964008E+02 -0.30695020224E+02  0.40659149679E+02  0.00000000000E+00 0. -1.
         11    1    3    3    0    0  0.11017512999E+02  0.12221812735E+02  0.24595480909E+02  0.29592160797E+02  0.51100000000E-03 0. -1.
        -11    1    3    3    0    0 -0.24103715135E+01 -0.20803089459E+01  0.28809189058E+01  0.42938642440E+01  0.51100000000E-03 0.  1.
        -12    1    3    3    0    0 -0.33059488699E+01  0.15990460219E+02  0.32186204092E+01  0.16642825279E+02  0.00000000000E+00 0.  1.
</event>
<event>
 7    1  0.5329250E-013  0.5052886E+02  0.7816164E-02  0.1300439E+00
        -11   -1    0    0    0    0  0.00000000000E+00  0.00000000000E+00  0.45593999997E+02  0.45594000000E+02  0.51100000000E-03 0. -1.
         11   -1    0    0    0    0 -0.00000000000E+00 -0.00000000000E+00 -0.45593999997E+02  0.45594000000E+02  0.51100000000E-03 0.  1.
    9900012    2    1    2    0    0  0.13136719954E+02 -0.60548936540E+01 -0.37999085724E+02  0.50528860017E+02  0.30000000507E+02 0.  0.
         12    1    1    2    0    0 -0.13136719954E+02  0.60548936540E+01  0.37999085724E+02  0.40659139983E+02  0.00000000000E+00 0. -1.
         11    1    3    3    0    0  0.79342029063E+01 -0.10032338774E+01 -0.26546245214E+02  0.27724739660E+02  0.51100000000E-03 0. -1.
        -11    1    3    3    0    0  0.10619175736E+02  0.19314501425E+01 -0.52181034960E+01  0.11988577785E+02  0.51100000000E-03 0.  1.
         12    1    3    3    0    0 -0.54166586882E+01 -0.69831099191E+01 -0.62347370142E+01  0.10815542572E+02  0.00000000000E+00 0. -1.
</event>
<event>
 7    1  0.5329250E-013  0.5052886E+02  0.7816164E-02  0.1300439E+00
        -11   -1    0    0    0    0  0.00000000000E+00  0.00000000000E+00  0.45593999997E+02  0.45594000000E+02  0.51100000000E-03 0.  1.
         11   -1    0    0    0    0 -0.00000000000E+00 -0.00000000000E+00 -0.45593999997E+02  0.45594000000E+02  0.51100000000E-03 0. -1.
    9900012    2    1    2    0    0 -0.11060558176E+02 -0.38281308851E+02 -0.80852456457E+01  0.50528858941E+02  0.29999997237E+02 0.  0.
         12    1    1    2    0    0  0.11060558176E+02  0.38281308851E+02  0.80852456457E+01  0.40659141059E+02  0.00000000000E+00 0. -1.
         11    1    3    3    0    0  0.64267674905E+00  0.30867549663E+01 -0.25965896075E+01  0.40845278156E+01  0.51100000000E-03 0. -1.
        -11    1    3    3    0    0 -0.68188710982E+00 -0.17379346562E+02  0.49072622577E+01  0.18071742585E+02  0.51100000000E-03 0.  1.
         12    1    3    3    0    0 -0.11021347815E+02 -0.23988717256E+02 -0.10395918296E+02  0.28372588540E+02  0.00000000000E+00 0. -1.
</event>
<event>
 7    1  0.5329250E-013  0.5052887E+02  0.7816164E-02  0.1300439E+00
        -11   -1    0    0    0    0  0.00000000000E+00  0.00000000000E+00  0.45593999997E+02  0.45594000000E+02  0.51100000000E-03 0. -1.
         11   -1    0    0    0    0 -0.00000000000E+00 -0.00000000000E+00 -0.45593999997E+02  0.45594000000E+02  0.51100000000E-03 0.  1.
    9900012    2    1    2    0    0  0.21774718288E+02  0.33859223780E+02  0.57078474865E+01  0.50528869237E+02  0.30000028532E+02 0.  0.
         12    1    1    2    0    0 -0.21774718288E+02 -0.33859223780E+02 -0.57078474865E+01  0.40659130763E+02  0.00000000000E+00 0. -1.
         11    1    3    3    0    0 -0.40446030534E+01  0.14062571033E+02 -0.30476421519E+01  0.14946666547E+02  0.51100000000E-03 0. -1.
        -11    1    3    3    0    0  0.13515204195E+02  0.50681716962E+01 -0.12671756193E+00  0.14434790139E+02  0.51100000000E-03 0.  1.
        -12    1    3    3    0    0  0.12304117147E+02  0.14728481051E+02  0.88822072003E+01  0.21147412550E+02  0.00000000000E+00 0.  1.
</event>
<event>
 7    1  0.5329250E-013  0.5052886E+02  0.7816164E-02  0.1300439E+00
        -11   -1    0    0    0    0  0.00000000000E+00  0.00000000000E+00  0.45593999997E+02  0.45594000000E+02  0.51100000000E-03 0. -1.
         11   -1    0    0    0    0 -0.00000000000E+00 -0.00000000000E+00 -0.45593999997E+02  0.45594000000E+02  0.51100000000E-03 0.  1.
    9900012    2    1    2    0    0 -0.34322704586E+02  0.22708153450E+01  0.21678577617E+02  0.50528863512E+02  0.30000011132E+02 0.  0.
         12    1    1    2    0    0  0.34322704586E+02 -0.22708153450E+01 -0.21678577617E+02  0.40659136488E+02  0.00000000000E+00 0. -1.
         11    1    3    3    0    0 -0.61576790555E+01 -0.48934141064E+01 -0.51836163935E+00  0.78823354418E+01  0.51100000000E-03 0. -1.
        -11    1    3    3    0    0 -0.60942386158E+01 -0.54728273797E+01 -0.96493351674E+00  0.82475863613E+01  0.51100000000E-03 0.  1.
         12    1    3    3    0    0 -0.22070786915E+02  0.12637056831E+02  0.23161872773E+02  0.34398941709E+02  0.00000000000E+00 0. -1.
</event>
<event>
 7    1  0.5329250E-013  0.5052888E+02  0.7816164E-02  0.1300439E+00
        -11   -1    0    0    0    0  0.00000000000E+00  0.00000000000E+00  0.45593999997E+02  0.45594000000E+02  0.51100000000E-03 0. -1.
         11   -1    0    0    0    0 -0.00000000000E+00 -0.00000000000E+00 -0.45593999997E+02  0.45594000000E+02  0.51100000000E-03 0.  1.
    9900012    2    1    2    0    0  0.28274930729E+02  0.19199009379E+02 -0.22024759501E+02  0.50528884172E+02  0.30000073928E+02 0.  0.
         12    1    1    2    0    0 -0.28274930729E+02 -0.19199009379E+02  0.22024759501E+02  0.40659115828E+02  0.00000000000E+00 0. -1.
         11    1    3    3    0    0 -0.14964389185E+01 -0.58424669210E+00  0.21689542357E+01  0.26990806530E+01  0.51100000000E-03 0. -1.
        -11    1    3    3    0    0  0.18572686001E+02  0.16932170988E+02 -0.53045824170E+01  0.25686215652E+02  0.51100000000E-03 0.  1.
        -12    1    3    3    0    0  0.11198683646E+02  0.28510850835E+01 -0.18889131320E+02  0.22143587866E+02  0.00000000000E+00 0.  1.
</event>
<event>
 7    1  0.5329250E-013  0.5052886E+02  0.7816164E-02  0.1300439E+00
        -11   -1    0    0    0    0  0.00000000000E+00  0.00000000000E+00  0.45593999997E+02  0.45594000000E+02  0.51100000000E-03 0. -1.
         11   -1    0    0    0    0 -0.00000000000E+00 -0.00000000000E+00 -0.45593999997E+02  0.45594000000E+02  0.51100000000E-03 0.  1.
    9900012    2    1    2    0    0  0.25960205080E+02  0.12783926467E+02  0.28562293551E+02  0.50528860356E+02  0.30000001538E+02 0.  0.
         12    1    1    2    0    0 -0.25960205080E+02 -0.12783926467E+02 -0.28562293551E+02  0.40659139644E+02  0.00000000000E+00 0. -1.
         11    1    3    3    0    0  0.22665399882E+02  0.86777231759E+01  0.18924395188E+02  0.30775899090E+02  0.51100000000E-03 0. -1.
        -11    1    3    3    0    0  0.54039886180E+01 -0.43555281605E+01  0.25808756912E+00  0.69455257536E+01  0.51100000000E-03 0.  1.
         12    1    3    3    0    0 -0.21091834202E+01  0.84617314519E+01  0.93798107938E+01  0.12807435512E+02  0.00000000000E+00 0. -1.
</event>
<event>
 7    1  0.5329250E-013  0.5052886E+02  0.7816164E-02  0.1300439E+00
        -11   -1    0    0    0    0  0.00000000000E+00  0.00000000000E+00  0.45593999997E+02  0.45594000000E+02  0.51100000000E-03 0.  1.
         11   -1    0    0    0    0 -0.00000000000E+00 -0.00000000000E+00 -0.45593999997E+02  0.45594000000E+02  0.51100000000E-03 0. -1.
    9900012    2    1    2    0    0 -0.73865253542E+01 -0.27436189942E+02  0.29083679365E+02  0.50528859813E+02  0.29999999888E+02 0.  0.
         12    1    1    2    0    0  0.73865253542E+01  0.27436189942E+02 -0.29083679365E+02  0.40659140187E+02  0.00000000000E+00 0. -1.
         11    1    3    3    0    0 -0.69749013333E+01  0.48988649832E+00 -0.40507592721E+00  0.70038078327E+01  0.51100000000E-03 0. -1.
        -11    1    3    3    0    0  0.68456645390E+01 -0.66926758416E+01  0.88773529395E+01  0.13056126086E+02  0.51100000000E-03 0.  1.
         12    1    3    3    0    0 -0.72572885599E+01 -0.21233400599E+02  0.20611402352E+02  0.30468925894E+02  0.00000000000E+00 0. -1.
</event>
<event>
 7    1  0.5329250E-013  0.5052886E+02  0.7816164E-02  0.1300439E+00
        -11   -1    0    0    0    0  0.00000000000E+00  0.00000000000E+00  0.45593999997E+02  0.45594000000E+02  0.51100000000E-03 0. -1.
         11   -1    0    0    0    0 -0.00000000000E+00 -0.00000000000E+00 -0.45593999997E+02  0.45594000000E+02  0.51100000000E-03 0.  1.
    9900012    2    1    2    0    0  0.28191096733E+02 -0.26474486625E+02 -0.12551068990E+02  0.50528859454E+02  0.29999998798E+02 0.  0.
         12    1    1    2    0    0 -0.28191096733E+02  0.26474486625E+02  0.12551068990E+02  0.40659140546E+02  0.00000000000E+00 0. -1.
         11    1    3    3    0    0  0.66446540335E+01 -0.11435202697E+02  0.22185476267E+01  0.13410340853E+02  0.51100000000E-03 0. -1.
        -11    1    3    3    0    0  0.15014330743E+02 -0.19849838542E+02 -0.14894851402E+02  0.29005220502E+02  0.51100000000E-03 0.  1.
         12    1    3    3    0    0  0.65321119563E+01  0.48105546139E+01  0.12523478497E+00  0.81132980997E+01  0.00000000000E+00 0. -1.
</event>
<event>
 7    1  0.5329250E-013  0.5052886E+02  0.7816164E-02  0.1300439E+00
        -11   -1    0    0    0    0  0.00000000000E+00  0.00000000000E+00  0.45593999997E+02  0.45594000000E+02  0.51100000000E-03 0. -1.
         11   -1    0    0    0    0 -0.00000000000E+00 -0.00000000000E+00 -0.45593999997E+02  0.45594000000E+02  0.51100000000E-03 0.  1.
    9900012    2    1    2    0    0  0.27703880461E+02  0.29222048470E+02  0.56331824968E+01  0.50528857678E+02  0.29999993398E+02 0.  0.
         12    1    1    2    0    0 -0.27703880461E+02 -0.29222048470E+02 -0.56331824968E+01  0.40659142322E+02  0.00000000000E+00 0. -1.
         11    1    3    3    0    0 -0.99663946791E+00 -0.13843473263E+01 -0.46212002876E+01  0.49259719963E+01  0.51100000000E-03 0. -1.
        -11    1    3    3    0    0  0.10545087483E+02  0.17286828511E+02  0.11056655889E+02  0.23071258086E+02  0.51100000000E-03 0.  1.
        -12    1    3    3    0    0  0.18155432446E+02  0.13319567285E+02 -0.80227310455E+00  0.22531627595E+02  0.00000000000E+00 0.  1.
</event>
<event>
 7    1  0.5329250E-013  0.5052886E+02  0.7816164E-02  0.1300439E+00
        -11   -1    0    0    0    0  0.00000000000E+00  0.00000000000E+00  0.45593999997E+02  0.45594000000E+02  0.51100000000E-03 0. -1.
         11   -1    0    0    0    0 -0.00000000000E+00 -0.00000000000E+00 -0.45593999997E+02  0.45594000000E+02  0.51100000000E-03 0.  1.
    9900012    2    1    2    0    0 -0.31342281936E+02 -0.19348255495E+02  0.17218373140E+02  0.50528855872E+02  0.29999987908E+02 0.  0.
         12    1    1    2    0    0  0.31342281936E+02  0.19348255495E+02 -0.17218373140E+02  0.40659144128E+02  0.00000000000E+00 0. -1.
         11    1    3    3    0    0 -0.20930168955E+01 -0.22959976583E+01  0.88524028973E+01  0.93817568871E+01  0.51100000000E-03 0. -1.
        -11    1    3    3    0    0 -0.24583354303E+02 -0.20984126616E+02  0.11476317763E+02  0.34298407372E+02  0.51100000000E-03 0.  1.
         12    1    3    3    0    0 -0.46659107373E+01  0.39318687794E+01 -0.31103475198E+01  0.68486916123E+01  0.00000000000E+00 0. -1.
</event>
<event>
 7    1  0.5329250E-013  0.5052886E+02  0.7816164E-02  0.1300439E+00
        -11   -1    0    0    0    0  0.00000000000E+00  0.00000000000E+00  0.45593999997E+02  0.45594000000E+02  0.51100000000E-03 0. -1.
         11   -1    0    0    0    0 -0.00000000000E+00 -0.00000000000E+00 -0.45593999997E+02  0.45594000000E+02  0.51100000000E-03 0.  1.
    9900012    2    1    2    0    0 -0.19318157000E+02 -0.23752490557E+02 -0.26754326663E+02  0.50528855977E+02  0.29999988227E+02 0.  0.
         12    1    1    2    0    0  0.19318157000E+02  0.23752490557E+02  0.26754326663E+02  0.40659144023E+02  0.00000000000E+00 0. -1.
         11    1    3    3    0    0 -0.10782016849E+02 -0.36977692696E+01 -0.42445447246E+01  0.12163122341E+02  0.51100000000E-03 0. -1.
        -11    1    3    3    0    0 -0.13533676631E+02 -0.10358690570E+02 -0.21464185490E+02  0.27407556120E+02  0.51100000000E-03 0.  1.
         12    1    3    3    0    0  0.49975364798E+01 -0.96960307174E+01 -0.10455964486E+01  0.10958177516E+02  0.00000000000E+00 0. -1.
</event>
<event>
 7    1  0.5329250E-013  0.5052886E+02  0.7816164E-02  0.1300439E+00
        -11   -1    0    0    0    0  0.00000000000E+00  0.00000000000E+00  0.45593999997E+02  0.45594000000E+02  0.51100000000E-03 0. -1.
         11   -1    0    0    0    0 -0.00000000000E+00 -0.00000000000E+00 -0.45593999997E+02  0.45594000000E+02  0.51100000000E-03 0.  1.
    9900012    2    1    2    0    0 -0.15034044541E+02 -0.34876125666E+02  0.14518930165E+02  0.50528856258E+02  0.29999989081E+02 0.  0.
         12    1    1    2    0    0  0.15034044541E+02  0.34876125666E+02 -0.14518930165E+02  0.40659143742E+02  0.00000000000E+00 0. -1.
         11    1    3    3    0    0 -0.50899213526E+01 -0.51065162545E+01  0.57297845633E+01  0.92094646444E+01  0.51100000000E-03 0. -1.
        -11    1    3    3    0    0  0.24961097878E+01 -0.25314144403E+02  0.11358793559E+02  0.27857829461E+02  0.51100000000E-03 0.  1.
        -12    1    3    3    0    0 -0.12440232977E+02 -0.44554650083E+01 -0.25696479571E+01  0.13461562152E+02  0.00000000000E+00 0.  1.
</event>
<event>
 7    1  0.5329250E-013  0.5052886E+02  0.7816164E-02  0.1300439E+00
        -11   -1    0    0    0    0  0.00000000000E+00  0.00000000000E+00  0.45593999997E+02  0.45594000000E+02  0.51100000000E-03 0. -1.
         11   -1    0    0    0    0 -0.00000000000E+00 -0.00000000000E+00 -0.45593999997E+02  0.45594000000E+02  0.51100000000E-03 0.  1.
    9900012    2    1    2    0    0 -0.11913295640E+02  0.14966257819E+02 -0.35878272526E+02  0.50528856802E+02  0.29999990736E+02 0.  0.
         12    1    1    2    0    0  0.11913295640E+02 -0.14966257819E+02  0.35878272526E+02  0.40659143198E+02  0.00000000000E+00 0. -1.
         11    1    3    3    0    0  0.49002664324E+00  0.98820301589E+00 -0.14396576790E+02  0.14438770545E+02  0.51100000000E-03 0. -1.
        -11    1    3    3    0    0  0.49965090088E+01  0.99171299001E+01 -0.90148815290E+01  0.14303239387E+02  0.51100000000E-03 0.  1.
         12    1    3    3    0    0 -0.17399831292E+02  0.40609249033E+01 -0.12466814207E+02  0.21786846870E+02  0.00000000000E+00 0. -1.
</event>
<event>
 7    1  0.5329250E-013  0.5052886E+02  0.7816164E-02  0.1300439E+00
        -11   -1    0    0    0    0  0.00000000000E+00  0.00000000000E+00  0.45593999997E+02  0.45594000000E+02  0.51100000000E-03 0.  1.
         11   -1    0    0    0    0 -0.00000000000E+00 -0.00000000000E+00 -0.45593999997E+02  0.45594000000E+02  0.51100000000E-03 0. -1.
    9900012    2    1    2    0    0 -0.37382178008E+02  0.63163368869E+01  0.14691579105E+02  0.50528857843E+02  0.29999993901E+02 0.  0.
         12    1    1    2    0    0  0.37382178008E+02 -0.63163368869E+01 -0.14691579105E+02  0.40659142157E+02  0.00000000000E+00 0. -1.
         11    1    3    3    0    0 -0.73856816734E+01  0.44106512634E+01 -0.17983322576E+01  0.87884092712E+01  0.51100000000E-03 0. -1.
        -11    1    3    3    0    0 -0.25699295603E+02 -0.65421676461E+01  0.52426551941E+01  0.27032187957E+02  0.51100000000E-03 0.  1.
         12    1    3    3    0    0 -0.42972007316E+01  0.84478532696E+01  0.11247256169E+02  0.14708260615E+02  0.00000000000E+00 0. -1.
</event>
<event>
 7    1  0.5329250E-013  0.5052887E+02  0.7816164E-02  0.1300439E+00
        -11   -1    0    0    0    0  0.00000000000E+00  0.00000000000E+00  0.45593999997E+02  0.45594000000E+02  0.51100000000E-03 0.  1.
         11   -1    0    0    0    0 -0.00000000000E+00 -0.00000000000E+00 -0.45593999997E+02  0.45594000000E+02  0.51100000000E-03 0. -1.
    9900012    2    1    2    0    0 -0.20189916936E+02 -0.31991316539E+02  0.14902619411E+02  0.50528866400E+02  0.30000019910E+02 0.  0.
         12    1    1    2    0    0  0.20189916936E+02  0.31991316539E+02 -0.14902619411E+02  0.40659133600E+02  0.00000000000E+00 0. -1.
         11    1    3    3    0    0  0.25400620547E+01 -0.32020832803E+01 -0.43213135484E+01  0.59480251866E+01  0.51100000000E-03 0. -1.
        -11    1    3    3    0    0 -0.39264973318E+01 -0.10094175063E+02  0.13754517499E+02  0.17507041537E+02  0.51100000000E-03 0.  1.
        -12    1    3    3    0    0 -0.18803481659E+02 -0.18695058195E+02  0.54694154612E+01  0.27073799676E+02  0.00000000000E+00 0.  1.
</event>
<event>
 7    1  0.5329250E-013  0.5052886E+02  0.7816164E-02  0.1300439E+00
        -11   -1    0    0    0    0  0.00000000000E+00  0.00000000000E+00  0.45593999997E+02  0.45594000000E+02  0.51100000000E-03 0.  1.
         11   -1    0    0    0    0 -0.00000000000E+00 -0.00000000000E+00 -0.45593999997E+02  0.45594000000E+02  0.51100000000E-03 0. -1.
    9900012    2    1    2    0    0 -0.84086384051E+00 -0.39619892707E+02  0.90951973337E+01  0.50528861241E+02  0.30000004228E+02 0.  0.
         12    1    1    2    0    0  0.84086384051E+00  0.39619892707E+02 -0.90951973337E+01  0.40659138759E+02  0.00000000000E+00 0. -1.
         11    1    3    3    0    0  0.68890832238E+01 -0.90271083668E+01  0.16780557885E+01  0.11478851189E+02  0.51100000000E-03 0. -1.
        -11    1    3    3    0    0  0.15375301947E+01 -0.12943929189E+02  0.12937753451E+02  0.18365586475E+02  0.51100000000E-03 0.  1.
        -12    1    3    3    0    0 -0.92674772590E+01 -0.17648855151E+02 -0.55206119058E+01  0.20684423577E+02  0.00000000000E+00 0.  1.
</event>
<event>
 7    1  0.5329250E-013  0.5052886E+02  0.7816164E-02  0.1300439E+00
        -11   -1    0    0    0    0  0.00000000000E+00  0.00000000000E+00  0.45593999997E+02  0.45594000000E+02  0.51100000000E-03 0. -1.
         11   -1    0    0    0    0 -0.00000000000E+00 -0.00000000000E+00 -0.45593999997E+02  0.45594000000E+02  0.51100000000E-03 0.  1.
    9900012    2    1    2    0    0  0.88891309948E+01 -0.34835689502E+02 -0.18990091153E+02  0.50528862344E+02  0.30000007581E+02 0.  0.
         12    1    1    2    0    0 -0.88891309948E+01  0.34835689502E+02  0.18990091153E+02  0.40659137656E+02  0.00000000000E+00 0. -1.
         11    1    3    3    0    0  0.12273562400E+02 -0.99348018111E+01 -0.26955459098E+01  0.16018944692E+02  0.51100000000E-03 0. -1.
        -11    1    3    3    0    0 -0.29663692335E+01 -0.28147302537E+01  0.30861406681E+01  0.51231159771E+01  0.51100000000E-03 0.  1.
        -12    1    3    3    0    0 -0.41806217187E+00 -0.22086157438E+02 -0.19380685911E+02  0.29386801675E+02  0.00000000000E+00 0.  1.
</event>
<event>
 7    1  0.5329250E-013  0.5052886E+02  0.7816164E-02  0.1300439E+00
        -11   -1    0    0    0    0  0.00000000000E+00  0.00000000000E+00  0.45593999997E+02  0.45594000000E+02  0.51100000000E-03 0. -1.
         11   -1    0    0    0    0 -0.00000000000E+00 -0.00000000000E+00 -0.45593999997E+02  0.45594000000E+02  0.51100000000E-03 0.  1.
    9900012    2    1    2    0    0 -0.31638550216E+02  0.12836135468E+02 -0.22077176498E+02  0.50528856433E+02  0.29999989612E+02 0.  0.
         12    1    1    2    0    0  0.31638550216E+02 -0.12836135468E+02  0.22077176498E+02  0.40659143567E+02  0.00000000000E+00 0. -1.
         11    1    3    3    0    0 -0.13882122057E+02  0.99089010013E+01 -0.11456872806E+02  0.20546522008E+02  0.51100000000E-03 0. -1.
        -11    1    3    3    0    0 -0.14117780426E+02  0.86294733020E+01  0.95683319893E+00  0.16573927225E+02  0.51100000000E-03 0.  1.
         12    1    3    3    0    0 -0.36386477328E+01 -0.57022388349E+01 -0.11577136891E+02  0.13408407200E+02  0.00000000000E+00 0. -1.
</event>
<event>
 7    1  0.5329250E-013  0.5052886E+02  0.7816164E-02  0.1300439E+00
        -11   -1    0    0    0    0  0.00000000000E+00  0.00000000000E+00  0.45593999997E+02  0.45594000000E+02  0.51100000000E-03 0.  1.
         11   -1    0    0    0    0 -0.00000000000E+00 -0.00000000000E+00 -0.45593999997E+02  0.45594000000E+02  0.51100000000E-03 0. -1.
    9900012    2    1    2    0    0  0.40056542217E+02  0.57497012890E+01 -0.39471921749E+01  0.50528856313E+02  0.29999989249E+02 0.  0.
         12    1    1    2    0    0 -0.40056542217E+02 -0.57497012890E+01  0.39471921749E+01  0.40659143687E+02  0.00000000000E+00 0. -1.
         11    1    3    3    0    0  0.64550236520E+01 -0.52068185259E+01 -0.75849876886E+01  0.11238786768E+02  0.51100000000E-03 0. -1.
        -11    1    3    3    0    0  0.28011890427E+02  0.15822977862E+01  0.10651689074E+01  0.28076756519E+02  0.51100000000E-03 0.  1.
         12    1    3    3    0    0  0.55896281380E+01  0.93742220287E+01  0.25726266063E+01  0.11213313026E+02  0.00000000000E+00 0. -1.
</event>
<event>
 7    1  0.5329250E-013  0.5052887E+02  0.7816164E-02  0.1300439E+00
        -11   -1    0    0    0    0  0.00000000000E+00  0.00000000000E+00  0.45593999997E+02  0.45594000000E+02  0.51100000000E-03 0.  1.
         11   -1    0    0    0    0 -0.00000000000E+00 -0.00000000000E+00 -0.45593999997E+02  0.45594000000E+02  0.51100000000E-03 0. -1.
    9900012    2    1    2    0    0 -0.81724927801E+01 -0.28636900172E+02  0.27682177172E+02  0.50528872824E+02  0.30000039437E+02 0.  0.
         12    1    1    2    0    0  0.81724927801E+01  0.28636900172E+02 -0.27682177172E+02  0.40659127176E+02  0.00000000000E+00 0. -1.
         11    1    3    3    0    0 -0.80011513233E+00 -0.22184851442E+01  0.59311122967E+01  0.63827857474E+01  0.51100000000E-03 0. -1.
        -11    1    3    3    0    0 -0.11335678768E+02 -0.13552883766E+02  0.24695966998E+02  0.30365590028E+02  0.51100000000E-03 0.  1.
         12    1    3    3    0    0  0.39633011202E+01 -0.12865531262E+02 -0.29449021229E+01  0.13780497049E+02  0.00000000000E+00 0. -1.
</event>
<event>
 7    1  0.5329250E-013  0.5052886E+02  0.7816164E-02  0.1300439E+00
        -11   -1    0    0    0    0  0.00000000000E+00  0.00000000000E+00  0.45593999997E+02  0.45594000000E+02  0.51100000000E-03 0.  1.
         11   -1    0    0    0    0 -0.00000000000E+00 -0.00000000000E+00 -0.45593999997E+02  0.45594000000E+02  0.51100000000E-03 0. -1.
    9900012    2    1    2    0    0 -0.74493008518E+01  0.15989134098E+02  0.36633608065E+02  0.50528859179E+02  0.29999997961E+02 0.  0.
         12    1    1    2    0    0  0.74493008518E+01 -0.15989134098E+02 -0.36633608065E+02  0.40659140821E+02  0.00000000000E+00 0. -1.
         11    1    3    3    0    0  0.38656096279E+00 -0.50826119593E+01  0.24721410259E+01  0.56651438834E+01  0.51100000000E-03 0. -1.
        -11    1    3    3    0    0  0.36668195771E+01  0.11925741122E+02  0.78922895874E+01  0.14763370290E+02  0.51100000000E-03 0.  1.
         12    1    3    3    0    0 -0.11502681392E+02  0.91460049355E+01  0.26269177452E+02  0.30100345006E+02  0.00000000000E+00 0. -1.
</event>
<event>
 7    1  0.5329250E-013  0.5052886E+02  0.7816164E-02  0.1300439E+00
        -11   -1    0    0    0    0  0.00000000000E+00  0.00000000000E+00  0.45593999997E+02  0.45594000000E+02  0.51100000000E-03 0.  1.
         11   -1    0    0    0    0 -0.00000000000E+00 -0.00000000000E+00 -0.45593999997E+02  0.45594000000E+02  0.51100000000E-03 0. -1.
    9900012    2    1    2    0    0  0.20314910484E+01  0.34646705203E+02  0.21181223593E+02  0.50528863632E+02  0.30000011496E+02 0.  0.
         12    1    1    2    0    0 -0.20314910484E+01 -0.34646705203E+02 -0.21181223593E+02  0.40659136368E+02  0.00000000000E+00 0. -1.
         11    1    3    3    0    0 -0.53599925454E+01  0.48649615962E+01  0.40067080037E+01  0.82735168283E+01  0.51100000000E-03 0. -1.
        -11    1    3    3    0    0 -0.43433353531E+01  0.11736589606E+02  0.16513854474E+02  0.20720026241E+02  0.51100000000E-03 0.  1.
        -12    1    3    3    0    0  0.11734818947E+02  0.18045154001E+02  0.66066111517E+00  0.21535320563E+02  0.00000000000E+00 0.  1.
</event>
<event>
 7    1  0.5329250E-013  0.5052886E+02  0.7816164E-02  0.1300439E+00
        -11   -1    0    0    0    0  0.00000000000E+00  0.00000000000E+00  0.45593999997E+02  0.45594000000E+02  0.51100000000E-03 0. -1.
         11   -1    0    0    0    0 -0.00000000000E+00 -0.00000000000E+00 -0.45593999997E+02  0.45594000000E+02  0.51100000000E-03 0.  1.
    9900012    2    1    2    0    0 -0.36488200885E+02 -0.21464152031E+01 -0.17809257619E+02  0.50528861310E+02  0.30000004439E+02 0.  0.
         12    1    1    2    0    0  0.36488200885E+02  0.21464152031E+01  0.17809257619E+02  0.40659138690E+02  0.00000000000E+00 0. -1.
         11    1    3    3    0    0 -0.13191776093E+02 -0.18412214350E+01  0.11979396331E+01  0.13373410652E+02  0.51100000000E-03 0. -1.
        -11    1    3    3    0    0 -0.75573313381E+01  0.85348444248E+01 -0.66348687759E+00  0.11419152394E+02  0.51100000000E-03 0.  1.
        -12    1    3    3    0    0 -0.15739093454E+02 -0.88400381929E+01 -0.18343710374E+02  0.25736298264E+02  0.00000000000E+00 0.  1.
</event>
<event>
 7    1  0.5329250E-013  0.5052886E+02  0.7816164E-02  0.1300439E+00
        -11   -1    0    0    0    0  0.00000000000E+00  0.00000000000E+00  0.45593999997E+02  0.45594000000E+02  0.51100000000E-03 0. -1.
         11   -1    0    0    0    0 -0.00000000000E+00 -0.00000000000E+00 -0.45593999997E+02  0.45594000000E+02  0.51100000000E-03 0.  1.
    9900012    2    1    2    0    0 -0.29757473689E+01 -0.22219278515E+02 -0.33920705827E+02  0.50528859651E+02  0.29999999396E+02 0.  0.
         12    1    1    2    0    0  0.29757473689E+01  0.22219278515E+02  0.33920705827E+02  0.40659140349E+02  0.00000000000E+00 0. -1.
         11    1    3    3    0    0 -0.11036704865E+02  0.18081939286E+00 -0.42748814228E+01  0.11837067263E+02  0.51100000000E-03 0. -1.
        -11    1    3    3    0    0  0.15392502220E+01 -0.41474098129E+01 -0.18268237407E+01  0.47861868583E+01  0.51100000000E-03 0.  1.
         12    1    3    3    0    0  0.65217072746E+01 -0.18252688095E+02 -0.27819000663E+02  0.33905605530E+02  0.00000000000E+00 0. -1.
</event>
<event>
 7    1  0.5329250E-013  0.5052886E+02  0.7816164E-02  0.1300439E+00
        -11   -1    0    0    0    0  0.00000000000E+00  0.00000000000E+00  0.45593999997E+02  0.45594000000E+02  0.51100000000E-03 0.  1.
         11   -1    0    0    0    0 -0.00000000000E+00 -0.00000000000E+00 -0.45593999997E+02  0.45594000000E+02  0.51100000000E-03 0. -1.
    9900012    2    1    2    0    0 -0.10400496016E+02  0.38207395881E+02  0.92298489057E+01  0.50528861688E+02  0.30000005588E+02 0.  0.
         12    1    1    2    0    0  0.10400496016E+02 -0.38207395881E+02 -0.92298489057E+01  0.40659138312E+02  0.00000000000E+00 0. -1.
         11    1    3    3    0    0 -0.98201688376E+01  0.28758356205E+02  0.25744676825E+01  0.30497649938E+02  0.51100000000E-03 0. -1.
        -11    1    3    3    0    0 -0.60280120505E+01  0.10059553150E+02  0.82308253823E+01  0.14327526849E+02  0.51100000000E-03 0.  1.
         12    1    3    3    0    0  0.54476848716E+01 -0.61051347384E+00 -0.15754441592E+01  0.57036849020E+01  0.00000000000E+00 0. -1.
</event>
<event>
 7    1  0.5329250E-013  0.5052886E+02  0.7816164E-02  0.1300439E+00
        -11   -1    0    0    0    0  0.00000000000E+00  0.00000000000E+00  0.45593999997E+02  0.45594000000E+02  0.51100000000E-03 0.  1.
         11   -1    0    0    0    0 -0.00000000000E+00 -0.00000000000E+00 -0.45593999997E+02  0.45594000000E+02  0.51100000000E-03 0. -1.
    9900012    2    1    2    0    0  0.21421974591E+02  0.34207263209E+02  0.49120108072E+01  0.50528859554E+02  0.29999999100E+02 0.  0.
         12    1    1    2    0    0 -0.21421974591E+02 -0.34207263209E+02 -0.49120108072E+01  0.40659140446E+02  0.00000000000E+00 0. -1.
         11    1    3    3    0    0 -0.23400412160E+01 -0.53996836412E-01  0.27574415453E+01  0.36169313910E+01  0.51100000000E-03 0. -1.
        -11    1    3    3    0    0  0.20185673740E+02  0.10983877428E+02 -0.17198304963E+01  0.23044843347E+02  0.51100000000E-03 0.  1.
         12    1    3    3    0    0  0.35763420671E+01  0.23277382617E+02  0.38743997583E+01  0.23867084815E+02  0.00000000000E+00 0. -1.
</event>
<event>
 7    1  0.5329250E-013  0.5052886E+02  0.7816164E-02  0.1300439E+00
        -11   -1    0    0    0    0  0.00000000000E+00  0.00000000000E+00  0.45593999997E+02  0.45594000000E+02  0.51100000000E-03 0. -1.
         11   -1    0    0    0    0 -0.00000000000E+00 -0.00000000000E+00 -0.45593999997E+02  0.45594000000E+02  0.51100000000E-03 0.  1.
    9900012    2    1    2    0    0  0.42771604580E+00  0.32034231575E+02 -0.25035788057E+02  0.50528860594E+02  0.30000002262E+02 0.  0.
         12    1    1    2    0    0 -0.42771604580E+00 -0.32034231575E+02  0.25035788057E+02  0.40659139406E+02  0.00000000000E+00 0. -1.
         11    1    3    3    0    0 -0.56538043662E+01  0.10044329893E+02  0.26198062303E+00  0.11529210767E+02  0.51100000000E-03 0. -1.
        -11    1    3    3    0    0 -0.37984093617E+01  0.18062631078E+02 -0.12179313324E+02  0.22113846984E+02  0.51100000000E-03 0.  1.
         12    1    3    3    0    0  0.98799297737E+01  0.39272706043E+01 -0.13118455356E+02  0.16885802843E+02  0.00000000000E+00 0. -1.
</event>
<event>
 7    1  0.5329250E-013  0.5052892E+02  0.7816164E-02  0.1300439E+00
        -11   -1    0    0    0    0  0.00000000000E+00  0.00000000000E+00  0.45593999997E+02  0.45594000000E+02  0.51100000000E-03 0. -1.
         11   -1    0    0    0    0 -0.00000000000E+00 -0.00000000000E+00 -0.45593999997E+02  0.45594000000E+02  0.51100000000E-03 0.  1.
    9900012    2    1    2    0    0  0.61095218001E+01 -0.28176042481E+02 -0.28669581615E+02  0.50528923074E+02  0.30000192174E+02 0.  0.
         12    1    1    2    0    0 -0.61095218001E+01  0.28176042481E+02  0.28669581615E+02  0.40659076926E+02  0.00000000000E+00 0. -1.
         11    1    3    3    0    0  0.19658445251E+01 -0.10337097455E+02 -0.13702794634E+02  0.17276767913E+02  0.51100000000E-03 0. -1.
        -11    1    3    3    0    0 -0.83226878540E+01 -0.14365469829E+02 -0.67450432831E+01  0.17920085538E+02  0.51100000000E-03 0.  1.
         12    1    3    3    0    0  0.12466365129E+02 -0.34734751973E+01 -0.82217436982E+01  0.15332069623E+02  0.00000000000E+00 0. -1.
</event>
<event>
 7    1  0.5329250E-013  0.5052885E+02  0.7816164E-02  0.1300439E+00
        -11   -1    0    0    0    0  0.00000000000E+00  0.00000000000E+00  0.45593999997E+02  0.45594000000E+02  0.51100000000E-03 0. -1.
         11   -1    0    0    0    0 -0.00000000000E+00 -0.00000000000E+00 -0.45593999997E+02  0.45594000000E+02  0.51100000000E-03 0.  1.
    9900012    2    1    2    0    0  0.80464013920E+01 -0.28189734522E+02 -0.28173765117E+02  0.50528846681E+02  0.29999959971E+02 0.  0.
         12    1    1    2    0    0 -0.80464013920E+01  0.28189734522E+02  0.28173765117E+02  0.40659153319E+02  0.00000000000E+00 0. -1.
         11    1    3    3    0    0 -0.10240013567E+02 -0.14048509414E+02 -0.12384993970E+02  0.21344942504E+02  0.51100000000E-03 0.  1.
        -11    1    3    3    0    0  0.19066567150E+01 -0.18596913531E+01 -0.58467360057E+01  0.64248045837E+01  0.51100000000E-03 0. -1.
        -12    1    3    3    0    0  0.16379758244E+02 -0.12281533755E+02 -0.99420351420E+01  0.22759099593E+02  0.00000000000E+00 0.  1.
</event>
<event>
 7    1  0.5329250E-013  0.5052878E+02  0.7816164E-02  0.1300439E+00
        -11   -1    0    0    0    0  0.00000000000E+00  0.00000000000E+00  0.45593999997E+02  0.45594000000E+02  0.51100000000E-03 0.  1.
         11   -1    0    0    0    0 -0.00000000000E+00 -0.00000000000E+00 -0.45593999997E+02  0.45594000000E+02  0.51100000000E-03 0. -1.
    9900012    2    1    2    0    0 -0.23883685354E+02 -0.14197806248E+02  0.29684409419E+02  0.50528778525E+02  0.29999752805E+02 0.  0.
         12    1    1    2    0    0  0.23883685354E+02  0.14197806248E+02 -0.29684409419E+02  0.40659221475E+02  0.00000000000E+00 0. -1.
         11    1    3    3    0    0 -0.12339005391E+02  0.13766880145E+01  0.43624963035E+01  0.13159699776E+02  0.51100000000E-03 0. -1.
        -11    1    3    3    0    0  0.29872492881E+01  0.27403254073E+01  0.29855558064E+01  0.50345392422E+01  0.51100000000E-03 0.  1.
        -12    1    3    3    0    0 -0.14531929251E+02 -0.18314819670E+02  0.22336357309E+02  0.32334539507E+02  0.00000000000E+00 0.  1.
</event>
<event>
 7    1  0.5329250E-013  0.5052886E+02  0.7816164E-02  0.1300439E+00
        -11   -1    0    0    0    0  0.00000000000E+00  0.00000000000E+00  0.45593999997E+02  0.45594000000E+02  0.51100000000E-03 0.  1.
         11   -1    0    0    0    0 -0.00000000000E+00 -0.00000000000E+00 -0.45593999997E+02  0.45594000000E+02  0.51100000000E-03 0. -1.
    9900012    2    1    2    0    0  0.39267391209E+02  0.10541372587E+02  0.34222087904E+00  0.50528860025E+02  0.30000000531E+02 0.  0.
         12    1    1    2    0    0 -0.39267391209E+02 -0.10541372587E+02 -0.34222087904E+00  0.40659139975E+02  0.00000000000E+00 0. -1.
         11    1    3    3    0    0  0.12242040975E+02 -0.10056682698E+02 -0.33010036867E+01  0.16183357492E+02  0.51100000000E-03 0. -1.
        -11    1    3    3    0    0  0.63819452921E+01  0.32146986675E+01  0.30708882847E+00  0.71524692969E+01  0.51100000000E-03 0.  1.
         12    1    3    3    0    0  0.20643404942E+02  0.17383356617E+02  0.33361357373E+01  0.27193033236E+02  0.00000000000E+00 0. -1.
</event>
<event>
 7    1  0.5329250E-013  0.5052884E+02  0.7816164E-02  0.1300439E+00
        -11   -1    0    0    0    0  0.00000000000E+00  0.00000000000E+00  0.45593999997E+02  0.45594000000E+02  0.51100000000E-03 0.  1.
         11   -1    0    0    0    0 -0.00000000000E+00 -0.00000000000E+00 -0.45593999997E+02  0.45594000000E+02  0.51100000000E-03 0. -1.
    9900012    2    1    2    0    0 -0.19350909879E+00 -0.40599252337E+02 -0.21978962463E+01  0.50528837637E+02  0.29999932482E+02 0.  0.
         12    1    1    2    0    0  0.19350909879E+00  0.40599252337E+02  0.21978962463E+01  0.40659162363E+02  0.00000000000E+00 0. -1.
         11    1    3    3    0    0 -0.20874163011E+01 -0.78766714320E+01 -0.46919856950E+01  0.94028713532E+01  0.51100000000E-03 0.  1.
        -11    1    3    3    0    0 -0.46380870739E+01 -0.85496741573E+01 -0.92912397484E+01  0.13451242181E+02  0.51100000000E-03 0. -1.
        -12    1    3    3    0    0  0.65319942763E+01 -0.24172906748E+02  0.11785329197E+02  0.27674724103E+02  0.00000000000E+00 0.  1.
</event>
<event>
 7    1  0.9044074E-013  0.5052886E+02  0.7816164E-02  0.1300439E+00
        -11   -1    0    0    0    0  0.00000000000E+00  0.00000000000E+00  0.45593999997E+02  0.45594000000E+02  0.51100000000E-03 0. -1.
         11   -1    0    0    0    0 -0.00000000000E+00 -0.00000000000E+00 -0.45593999997E+02  0.45594000000E+02  0.51100000000E-03 0.  1.
    9900012    2    1    2    0    0 -0.20242519942E+02 -0.23322263865E+01 -0.35184748978E+02  0.50528862599E+02  0.30000008357E+02 0.  0.
         12    1    1    2    0    0  0.20242519942E+02  0.23322263865E+01  0.35184748978E+02  0.40659137401E+02  0.00000000000E+00 0. -1.
         11    1    3    3    0    0 -0.15815641797E+01 -0.13261993641E+00  0.24793197718E+01  0.29438002809E+01  0.51100000000E-03 0. -1.
        -11    1    3    3    0    0  0.37885134766E+00  0.76167493748E+01 -0.88917544367E+01  0.11714166492E+02  0.51100000000E-03 0.  1.
        -12    1    3    3    0    0 -0.19039807110E+02 -0.98163558249E+01 -0.28772314313E+02  0.35870895826E+02  0.00000000000E+00 0.  1.
</event>
<event>
 7    1  0.5329250E-013  0.5052886E+02  0.7816164E-02  0.1300439E+00
        -11   -1    0    0    0    0  0.00000000000E+00  0.00000000000E+00  0.45593999997E+02  0.45594000000E+02  0.51100000000E-03 0.  1.
         11   -1    0    0    0    0 -0.00000000000E+00 -0.00000000000E+00 -0.45593999997E+02  0.45594000000E+02  0.51100000000E-03 0. -1.
    9900012    2    1    2    0    0 -0.28013823342E+02  0.22145071260E+02  0.19441885357E+02  0.50528863443E+02  0.30000010921E+02 0.  0.
         12    1    1    2    0    0  0.28013823342E+02 -0.22145071260E+02 -0.19441885357E+02  0.40659136557E+02  0.00000000000E+00 0. -1.
         11    1    3    3    0    0 -0.12239571065E+02 -0.19223377326E+01  0.66836638023E+01  0.14077423212E+02  0.51100000000E-03 0. -1.
        -11    1    3    3    0    0 -0.17037108783E+02  0.98056534293E+01  0.55733246463E+01  0.20432226084E+02  0.51100000000E-03 0.  1.
         12    1    3    3    0    0  0.12628565058E+01  0.14261755563E+02  0.71848969083E+01  0.16019214147E+02  0.00000000000E+00 0. -1.
</event>
<event>
 7    1  0.5329250E-013  0.5052887E+02  0.7816164E-02  0.1300439E+00
        -11   -1    0    0    0    0  0.00000000000E+00  0.00000000000E+00  0.45593999997E+02  0.45594000000E+02  0.51100000000E-03 0. -1.
         11   -1    0    0    0    0 -0.00000000000E+00 -0.00000000000E+00 -0.45593999997E+02  0.45594000000E+02  0.51100000000E-03 0.  1.
    9900012    2    1    2    0    0 -0.30489479657E+02 -0.39490618316E+01 -0.26607544504E+02  0.50528869615E+02  0.30000029683E+02 0.  0.
         12    1    1    2    0    0  0.30489479657E+02  0.39490618316E+01  0.26607544504E+02  0.40659130385E+02  0.00000000000E+00 0. -1.
         11    1    3    3    0    0 -0.48809815316E+01 -0.55439957660E+00  0.34824434129E+01  0.60215240586E+01  0.51100000000E-03 0. -1.
        -11    1    3    3    0    0 -0.23404056930E+01  0.43337193547E+01 -0.14834278561E+02  0.15630561184E+02  0.51100000000E-03 0.  1.
         12    1    3    3    0    0 -0.23268092432E+02 -0.77283816096E+01 -0.15255709356E+02  0.28876784372E+02  0.00000000000E+00 0. -1.
</event>
<event>
 7    1  0.5329250E-013  0.5052872E+02  0.7816164E-02  0.1300439E+00
        -11   -1    0    0    0    0  0.00000000000E+00  0.00000000000E+00  0.45593999997E+02  0.45594000000E+02  0.51100000000E-03 0.  1.
         11   -1    0    0    0    0 -0.00000000000E+00 -0.00000000000E+00 -0.45593999997E+02  0.45594000000E+02  0.51100000000E-03 0. -1.
    9900012    2    1    2    0    0 -0.74253794612E+01 -0.34323243061E+02  0.20492824199E+02  0.50528719165E+02  0.29999572370E+02 0.  0.
         12    1    1    2    0    0  0.74253794612E+01  0.34323243061E+02 -0.20492824199E+02  0.40659280835E+02  0.00000000000E+00 0. -1.
         11    1    3    3    0    0 -0.70828231676E+00 -0.74742956585E+01  0.13015964544E+02  0.15026047141E+02  0.51100000000E-03 0. -1.
        -11    1    3    3    0    0 -0.19296307067E+01 -0.10095434278E+02  0.13588432276E+02  0.17037803846E+02  0.51100000000E-03 0.  1.
         12    1    3    3    0    0 -0.47874664378E+01 -0.16753513125E+02 -0.61115726198E+01  0.18464868177E+02  0.00000000000E+00 0. -1.
</event>
<event>
 7    1  0.5329250E-013  0.5052886E+02  0.7816164E-02  0.1300439E+00
        -11   -1    0    0    0    0  0.00000000000E+00  0.00000000000E+00  0.45593999997E+02  0.45594000000E+02  0.51100000000E-03 0.  1.
         11   -1    0    0    0    0 -0.00000000000E+00 -0.00000000000E+00 -0.45593999997E+02  0.45594000000E+02  0.51100000000E-03 0. -1.
    9900012    2    1    2    0    0 -0.10952100412E+02 -0.34999929166E+02  0.17556260711E+02  0.50528857913E+02  0.29999994112E+02 0.  0.
         12    1    1    2    0    0  0.10952100412E+02  0.34999929166E+02 -0.17556260711E+02  0.40659142087E+02  0.00000000000E+00 0. -1.
         11    1    3    3    0    0  0.30351564070E+01  0.38026100950E+00 -0.40409832989E+01  0.50681672361E+01  0.51100000000E-03 0. -1.
        -11    1    3    3    0    0 -0.23731043425E+01 -0.15524697057E+02  0.32517263894E+01  0.16038128560E+02  0.51100000000E-03 0.  1.
        -12    1    3    3    0    0 -0.11614152477E+02 -0.19855493119E+02  0.18345517621E+02  0.29422562117E+02  0.00000000000E+00 0.  1.
</event>
<event>
 7    1  0.5329250E-013  0.5052886E+02  0.7816164E-02  0.1300439E+00
        -11   -1    0    0    0    0  0.00000000000E+00  0.00000000000E+00  0.45593999997E+02  0.45594000000E+02  0.51100000000E-03 0.  1.
         11   -1    0    0    0    0 -0.00000000000E+00 -0.00000000000E+00 -0.45593999997E+02  0.45594000000E+02  0.51100000000E-03 0. -1.
    9900012    2    1    2    0    0  0.16648120606E+02  0.31989702451E+01  0.36956356141E+02  0.50528860935E+02  0.30000003297E+02 0.  0.
         12    1    1    2    0    0 -0.16648120606E+02 -0.31989702451E+01 -0.36956356141E+02  0.40659139065E+02  0.00000000000E+00 0. -1.
         11    1    3    3    0    0  0.58373603508E+01  0.44668148601E+01  0.29464132109E+02  0.30367125186E+02  0.51100000000E-03 0. -1.
        -11    1    3    3    0    0  0.92727361304E+00 -0.27547695433E+00  0.98949238482E+01  0.99420944539E+01  0.51100000000E-03 0.  1.
         12    1    3    3    0    0  0.98834866425E+01 -0.99236766066E+00 -0.24026998165E+01  0.10219641295E+02  0.00000000000E+00 0. -1.
</event>
<event>
 7    1  0.5329250E-013  0.5052888E+02  0.7816164E-02  0.1300439E+00
        -11   -1    0    0    0    0  0.00000000000E+00  0.00000000000E+00  0.45593999997E+02  0.45594000000E+02  0.51100000000E-03 0.  1.
         11   -1    0    0    0    0 -0.00000000000E+00 -0.00000000000E+00 -0.45593999997E+02  0.45594000000E+02  0.51100000000E-03 0. -1.
    9900012    2    1    2    0    0 -0.40018680051E+02 -0.20413318250E+01  0.68921887029E+01  0.50528879821E+02  0.30000060704E+02 0.  0.
         12    1    1    2    0    0  0.40018680051E+02  0.20413318250E+01 -0.68921887029E+01  0.40659120179E+02  0.00000000000E+00 0. -1.
         11    1    3    3    0    0 -0.17890073567E+02  0.40151931465E+01 -0.39675679813E+01  0.18759480381E+02  0.51100000000E-03 0.  1.
        -11    1    3    3    0    0 -0.22849387014E+02 -0.10331409451E+02  0.11108955818E+02  0.27427019667E+02  0.51100000000E-03 0. -1.
         12    1    3    3    0    0  0.72078053039E+00  0.42748844794E+01 -0.24919913366E+00  0.43423797730E+01  0.00000000000E+00 0. -1.
</event>
<event>
 7    1  0.5329250E-013  0.5052885E+02  0.7816164E-02  0.1300439E+00
        -11   -1    0    0    0    0  0.00000000000E+00  0.00000000000E+00  0.45593999997E+02  0.45594000000E+02  0.51100000000E-03 0.  1.
         11   -1    0    0    0    0 -0.00000000000E+00 -0.00000000000E+00 -0.45593999997E+02  0.45594000000E+02  0.51100000000E-03 0. -1.
    9900012    2    1    2    0    0  0.24199149399E+01 -0.11129673776E+02  0.39031280440E+02  0.50528849991E+02  0.29999970033E+02 0.  0.
         12    1    1    2    0    0 -0.24199149399E+01  0.11129673776E+02 -0.39031280440E+02  0.40659150009E+02  0.00000000000E+00 0. -1.
         11    1    3    3    0    0 -0.29160238467E+01  0.44960467468E+01  0.21043883143E+01  0.57572634004E+01  0.51100000000E-03 0. -1.
        -11    1    3    3    0    0  0.16115789374E+01 -0.50914563534E+01  0.32199574090E+02  0.32639434528E+02  0.51100000000E-03 0.  1.
        -12    1    3    3    0    0  0.37243598492E+01 -0.10534264169E+02  0.47273180360E+01  0.12132152063E+02  0.00000000000E+00 0.  1.
</event>
<event>
 7    1  0.5329250E-013  0.5052886E+02  0.7816164E-02  0.1300439E+00
        -11   -1    0    0    0    0  0.00000000000E+00  0.00000000000E+00  0.45593999997E+02  0.45594000000E+02  0.51100000000E-03 0.  1.
         11   -1    0    0    0    0 -0.00000000000E+00 -0.00000000000E+00 -0.45593999997E+02  0.45594000000E+02  0.51100000000E-03 0. -1.
    9900012    2    1    2    0    0  0.22302777190E+02 -0.23120767424E+02  0.24923522034E+02  0.50528859488E+02  0.29999998898E+02 0.  0.
         12    1    1    2    0    0 -0.22302777190E+02  0.23120767424E+02 -0.24923522034E+02  0.40659140512E+02  0.00000000000E+00 0. -1.
         11    1    3    3    0    0  0.12577445765E+02 -0.16762880708E+02  0.20766048408E+01  0.21059406438E+02  0.51100000000E-03 0. -1.
        -11    1    3    3    0    0  0.30379532336E+01  0.42483738756E+01  0.30863089743E+01  0.60665594683E+01  0.51100000000E-03 0.  1.
        -12    1    3    3    0    0  0.66873781914E+01 -0.10606260592E+02  0.19760608219E+02  0.23402893582E+02  0.00000000000E+00 0.  1.
</event>
<event>
 7    1  0.5329250E-013  0.5052886E+02  0.7816164E-02  0.1300439E+00
        -11   -1    0    0    0    0  0.00000000000E+00  0.00000000000E+00  0.45593999997E+02  0.45594000000E+02  0.51100000000E-03 0.  1.
         11   -1    0    0    0    0 -0.00000000000E+00 -0.00000000000E+00 -0.45593999997E+02  0.45594000000E+02  0.51100000000E-03 0. -1.
    9900012    2    1    2    0    0  0.13793846879E+02  0.23857770811E+02  0.29894851956E+02  0.50528860643E+02  0.30000002410E+02 0.  0.
         12    1    1    2    0    0 -0.13793846879E+02 -0.23857770811E+02 -0.29894851956E+02  0.40659139357E+02  0.00000000000E+00 0. -1.
         11    1    3    3    0    0 -0.20810420309E+01 -0.16346831119E+01  0.23643413783E+01  0.35486666827E+01  0.51100000000E-03 0. -1.
        -11    1    3    3    0    0 -0.33852763120E+01  0.16402967279E+02  0.12924712201E+02  0.21155746666E+02  0.51100000000E-03 0.  1.
         12    1    3    3    0    0  0.19260165222E+02  0.90894866436E+01  0.14605798377E+02  0.25824447294E+02  0.00000000000E+00 0. -1.
</event>
<event>
 7    1  0.5329250E-013  0.5052885E+02  0.7816164E-02  0.1300439E+00
        -11   -1    0    0    0    0  0.00000000000E+00  0.00000000000E+00  0.45593999997E+02  0.45594000000E+02  0.51100000000E-03 0.  1.
         11   -1    0    0    0    0 -0.00000000000E+00 -0.00000000000E+00 -0.45593999997E+02  0.45594000000E+02  0.51100000000E-03 0. -1.
    9900012    2    1    2    0    0  0.24810675005E+02 -0.28252503157E+02  0.15472325106E+02  0.50528851300E+02  0.29999974011E+02 0.  0.
         12    1    1    2    0    0 -0.24810675005E+02  0.28252503157E+02 -0.15472325106E+02  0.40659148700E+02  0.00000000000E+00 0. -1.
         11    1    3    3    0    0  0.21798753308E+01  0.61632428421E+01  0.12524842685E+01  0.66562854426E+01  0.51100000000E-03 0. -1.
        -11    1    3    3    0    0  0.20349229428E+01 -0.55782552899E+01  0.32889547284E+01  0.67878617346E+01  0.51100000000E-03 0.  1.
         12    1    3    3    0    0  0.20595876731E+02 -0.28837490709E+02  0.10930886109E+02  0.37084704123E+02  0.00000000000E+00 0. -1.
</event>
<event>
 7    1  0.5329250E-013  0.5052887E+02  0.7816164E-02  0.1300439E+00
        -11   -1    0    0    0    0  0.00000000000E+00  0.00000000000E+00  0.45593999997E+02  0.45594000000E+02  0.51100000000E-03 0. -1.
         11   -1    0    0    0    0 -0.00000000000E+00 -0.00000000000E+00 -0.45593999997E+02  0.45594000000E+02  0.51100000000E-03 0.  1.
    9900012    2    1    2    0    0  0.14409846455E+02  0.36700508711E+02 -0.99294586401E+01  0.50528866176E+02  0.30000019227E+02 0.  0.
         12    1    1    2    0    0 -0.14409846455E+02 -0.36700508711E+02  0.99294586401E+01  0.40659133824E+02  0.00000000000E+00 0. -1.
         11    1    3    3    0    0  0.55815327003E+01  0.21563212688E+02  0.82821579695E+01  0.23763833647E+02  0.51100000000E-03 0. -1.
        -11    1    3    3    0    0  0.51442570916E+01  0.66278516908E+01 -0.29237476986E+01  0.88848241358E+01  0.51100000000E-03 0.  1.
         12    1    3    3    0    0  0.36840566629E+01  0.85094443322E+01 -0.15287868911E+02  0.17880208393E+02  0.00000000000E+00 0. -1.
</event>
<event>
 7    1  0.5329250E-013  0.5052887E+02  0.7816164E-02  0.1300439E+00
        -11   -1    0    0    0    0  0.00000000000E+00  0.00000000000E+00  0.45593999997E+02  0.45594000000E+02  0.51100000000E-03 0.  1.
         11   -1    0    0    0    0 -0.00000000000E+00 -0.00000000000E+00 -0.45593999997E+02  0.45594000000E+02  0.51100000000E-03 0. -1.
    9900012    2    1    2    0    0 -0.18337025799E+02 -0.10735064928E+02  0.34665205753E+02  0.50528872807E+02  0.30000039385E+02 0.  0.
         12    1    1    2    0    0  0.18337025799E+02  0.10735064928E+02 -0.34665205753E+02  0.40659127193E+02  0.00000000000E+00 0. -1.
         11    1    3    3    0    0  0.17931781046E+01 -0.12305579501E+02  0.91920576893E+01  0.15464045376E+02  0.51100000000E-03 0. -1.
        -11    1    3    3    0    0 -0.44482388094E+01  0.15185936103E+01 -0.49764732743E+00  0.47265852560E+01  0.51100000000E-03 0.  1.
        -12    1    3    3    0    0 -0.15681965094E+02  0.51920962603E-01  0.25970795392E+02  0.30338242175E+02  0.00000000000E+00 0.  1.
</event>
<event>
 7    1  0.5329250E-013  0.5052891E+02  0.7816164E-02  0.1300439E+00
        -11   -1    0    0    0    0  0.00000000000E+00  0.00000000000E+00  0.45593999997E+02  0.45594000000E+02  0.51100000000E-03 0.  1.
         11   -1    0    0    0    0 -0.00000000000E+00 -0.00000000000E+00 -0.45593999997E+02  0.45594000000E+02  0.51100000000E-03 0. -1.
    9900012    2    1    2    0    0 -0.10649418184E+01 -0.23385789096E+02  0.33243532022E+02  0.50528909331E+02  0.30000150403E+02 0.  0.
         12    1    1    2    0    0  0.10649418184E+01  0.23385789096E+02 -0.33243532022E+02  0.40659090669E+02  0.00000000000E+00 0. -1.
         11    1    3    3    0    0 -0.63937208729E+01 -0.47677889840E+01  0.35272599307E+01  0.87208394823E+01  0.51100000000E-03 0. -1.
        -11    1    3    3    0    0 -0.77555691252E+01 -0.30653305136E+01  0.13224502455E+02  0.15634339419E+02  0.51100000000E-03 0.  1.
        -12    1    3    3    0    0  0.13084348180E+02 -0.15552669599E+02  0.16491769636E+02  0.26173730431E+02  0.00000000000E+00 0.  1.
</event>
<event>
 7    1  0.5329250E-013  0.5052887E+02  0.7816164E-02  0.1300439E+00
        -11   -1    0    0    0    0  0.00000000000E+00  0.00000000000E+00  0.45593999997E+02  0.45594000000E+02  0.51100000000E-03 0.  1.
         11   -1    0    0    0    0 -0.00000000000E+00 -0.00000000000E+00 -0.45593999997E+02  0.45594000000E+02  0.51100000000E-03 0. -1.
    9900012    2    1    2    0    0  0.20786361511E+02  0.32242340687E+02  0.13473064019E+02  0.50528870498E+02  0.30000032366E+02 0.  0.
         12    1    1    2    0    0 -0.20786361511E+02 -0.32242340687E+02 -0.13473064019E+02  0.40659129502E+02  0.00000000000E+00 0. -1.
         11    1    3    3    0    0  0.11030744617E+02  0.11765441299E+02 -0.25757249023E+01  0.16332094012E+02  0.51100000000E-03 0. -1.
        -11    1    3    3    0    0  0.13333533070E+02  0.21470017708E+02  0.10168634881E+02  0.27242354893E+02  0.51100000000E-03 0.  1.
         12    1    3    3    0    0 -0.35779161768E+01 -0.99311832022E+00  0.58801540400E+01  0.69544215935E+01  0.00000000000E+00 0. -1.
</event>
<event>
 7    1  0.5329250E-013  0.5052880E+02  0.7816164E-02  0.1300439E+00
        -11   -1    0    0    0    0  0.00000000000E+00  0.00000000000E+00  0.45593999997E+02  0.45594000000E+02  0.51100000000E-03 0. -1.
         11   -1    0    0    0    0 -0.00000000000E+00 -0.00000000000E+00 -0.45593999997E+02  0.45594000000E+02  0.51100000000E-03 0.  1.
    9900012    2    1    2    0    0  0.25064018558E+02 -0.16080291725E+02 -0.27683740611E+02  0.50528802978E+02  0.29999827133E+02 0.  0.
         12    1    1    2    0    0 -0.25064018558E+02  0.16080291725E+02  0.27683740611E+02  0.40659197022E+02  0.00000000000E+00 0. -1.
         11    1    3    3    0    0  0.16668748868E+00  0.24323980835E+01  0.10205683630E+01  0.26430863020E+01  0.51100000000E-03 0. -1.
        -11    1    3    3    0    0 -0.24132912482E+01 -0.88376009746E+01 -0.90304129822E+01  0.12863729029E+02  0.51100000000E-03 0.  1.
         12    1    3    3    0    0  0.27310622317E+02 -0.96750888335E+01 -0.19673895992E+02  0.35021987648E+02  0.00000000000E+00 0. -1.
</event>
<event>
 7    1  0.5329250E-013  0.5052900E+02  0.7816164E-02  0.1300438E+00
        -11   -1    0    0    0    0  0.00000000000E+00  0.00000000000E+00  0.45593999997E+02  0.45594000000E+02  0.51100000000E-03 0.  1.
         11   -1    0    0    0    0 -0.00000000000E+00 -0.00000000000E+00 -0.45593999997E+02  0.45594000000E+02  0.51100000000E-03 0. -1.
    9900012    2    1    2    0    0 -0.39276024379E+02  0.70455510850E+01 -0.78043638776E+01  0.50529003743E+02  0.30000437373E+02 0.  0.
         12    1    1    2    0    0  0.39276024379E+02 -0.70455510850E+01  0.78043638776E+01  0.40658996257E+02  0.00000000000E+00 0. -1.
         11    1    3    3    0    0 -0.18362757512E+02  0.10163702894E+02 -0.11637473406E+02  0.23998385518E+02  0.51100000000E-03 0.  1.
        -11    1    3    3    0    0 -0.24931667818E+01 -0.39062550568E+01 -0.43530824129E+01  0.63579899281E+01  0.51100000000E-03 0. -1.
         12    1    3    3    0    0 -0.18420100086E+02  0.78810324757E+00  0.81861919409E+01  0.20172628296E+02  0.00000000000E+00 0. -1.
</event>
<event>
 7    1  0.5329250E-013  0.5052887E+02  0.7816164E-02  0.1300439E+00
        -11   -1    0    0    0    0  0.00000000000E+00  0.00000000000E+00  0.45593999997E+02  0.45594000000E+02  0.51100000000E-03 0.  1.
         11   -1    0    0    0    0 -0.00000000000E+00 -0.00000000000E+00 -0.45593999997E+02  0.45594000000E+02  0.51100000000E-03 0. -1.
    9900012    2    1    2    0    0  0.26515030383E+01 -0.39134336651E+02 -0.10706927480E+02  0.50528867329E+02  0.30000022734E+02 0.  0.
         12    1    1    2    0    0 -0.26515030383E+01  0.39134336651E+02  0.10706927480E+02  0.40659132671E+02  0.00000000000E+00 0. -1.
         11    1    3    3    0    0  0.19063334955E+01 -0.75557945813E+01 -0.82473513359E+01  0.11346494766E+02  0.51100000000E-03 0. -1.
        -11    1    3    3    0    0 -0.52174761993E+01 -0.30923471832E+02 -0.63979404674E+01  0.32006512002E+02  0.51100000000E-03 0.  1.
         12    1    3    3    0    0  0.59626457422E+01 -0.65507023765E+00  0.39383643231E+01  0.71758605620E+01  0.00000000000E+00 0. -1.
</event>
<event>
 7    1  0.5329250E-013  0.5052887E+02  0.7816164E-02  0.1300439E+00
        -11   -1    0    0    0    0  0.00000000000E+00  0.00000000000E+00  0.45593999997E+02  0.45594000000E+02  0.51100000000E-03 0.  1.
         11   -1    0    0    0    0 -0.00000000000E+00 -0.00000000000E+00 -0.45593999997E+02  0.45594000000E+02  0.51100000000E-03 0. -1.
    9900012    2    1    2    0    0  0.80940240905E+01 -0.26751683386E+02  0.29529635887E+02  0.50528865902E+02  0.30000018397E+02 0.  0.
         12    1    1    2    0    0 -0.80940240905E+01  0.26751683386E+02 -0.29529635887E+02  0.40659134098E+02  0.00000000000E+00 0. -1.
         11    1    3    3    0    0  0.29881990357E+01 -0.49091342291E+01 -0.43014259520E+01  0.71785233745E+01  0.51100000000E-03 0. -1.
        -11    1    3    3    0    0  0.53275011806E+01 -0.13645204962E+02  0.89812666203E+01  0.17182463084E+02  0.51100000000E-03 0.  1.
         12    1    3    3    0    0 -0.22167612581E+00 -0.81973441949E+01  0.24849795219E+02  0.26167879444E+02  0.00000000000E+00 0. -1.
</event>
<event>
 7    1  0.5329250E-013  0.5052886E+02  0.7816164E-02  0.1300439E+00
        -11   -1    0    0    0    0  0.00000000000E+00  0.00000000000E+00  0.45593999997E+02  0.45594000000E+02  0.51100000000E-03 0.  1.
         11   -1    0    0    0    0 -0.00000000000E+00 -0.00000000000E+00 -0.45593999997E+02  0.45594000000E+02  0.51100000000E-03 0. -1.
    9900012    2    1    2    0    0  0.15653396899E+02  0.37366127420E+02  0.34510038548E+01  0.50528859079E+02  0.29999997655E+02 0.  0.
         12    1    1    2    0    0 -0.15653396899E+02 -0.37366127420E+02 -0.34510038548E+01  0.40659140921E+02  0.00000000000E+00 0. -1.
         11    1    3    3    0    0 -0.17647010979E+01  0.24392881719E+00  0.14189989279E+01  0.22775490008E+01  0.51100000000E-03 0. -1.
        -11    1    3    3    0    0  0.93421799534E+01  0.20410342156E+02  0.13728746850E+02  0.26312295292E+02  0.51100000000E-03 0.  1.
         12    1    3    3    0    0  0.80759180432E+01  0.16711856448E+02 -0.11696741923E+02  0.21939014786E+02  0.00000000000E+00 0. -1.
</event>
<event>
 7    1  0.5329250E-013  0.5052886E+02  0.7816164E-02  0.1300439E+00
        -11   -1    0    0    0    0  0.00000000000E+00  0.00000000000E+00  0.45593999997E+02  0.45594000000E+02  0.51100000000E-03 0.  1.
         11   -1    0    0    0    0 -0.00000000000E+00 -0.00000000000E+00 -0.45593999997E+02  0.45594000000E+02  0.51100000000E-03 0. -1.
    9900012    2    1    2    0    0  0.16215971442E+02  0.30492769221E+02  0.21456917848E+02  0.50528855541E+02  0.29999986903E+02 0.  0.
         12    1    1    2    0    0 -0.16215971442E+02 -0.30492769221E+02 -0.21456917848E+02  0.40659144459E+02  0.00000000000E+00 0. -1.
         11    1    3    3    0    0  0.10497433078E+02  0.13891474717E+02 -0.27665795605E+01  0.17630176793E+02  0.51100000000E-03 0. -1.
        -11    1    3    3    0    0 -0.13641274148E+01  0.85731708672E+01  0.31014770858E+01  0.92184197506E+01  0.51100000000E-03 0.  1.
        -12    1    3    3    0    0  0.70826657787E+01  0.80281236368E+01  0.21122020323E+02  0.23680258997E+02  0.00000000000E+00 0.  1.
</event>
<event>
 7    1  0.5329250E-013  0.5052886E+02  0.7816164E-02  0.1300439E+00
        -11   -1    0    0    0    0  0.00000000000E+00  0.00000000000E+00  0.45593999997E+02  0.45594000000E+02  0.51100000000E-03 0.  1.
         11   -1    0    0    0    0 -0.00000000000E+00 -0.00000000000E+00 -0.45593999997E+02  0.45594000000E+02  0.51100000000E-03 0. -1.
    9900012    2    1    2    0    0  0.35006035366E+01 -0.90952371408E+01  0.39473891748E+02  0.50528859656E+02  0.29999999410E+02 0.  0.
         12    1    1    2    0    0 -0.35006035366E+01  0.90952371408E+01 -0.39473891748E+02  0.40659140344E+02  0.00000000000E+00 0. -1.
         11    1    3    3    0    0  0.22029233867E+01 -0.75158536255E+01  0.19659870459E+02  0.21162500653E+02  0.51100000000E-03 0.  1.
        -11    1    3    3    0    0  0.95169472303E+01 -0.10040125359E+01  0.18759958539E+02  0.21059828356E+02  0.51100000000E-03 0. -1.
         12    1    3    3    0    0 -0.82192670804E+01 -0.57537097941E+00  0.10540627510E+01  0.83065306468E+01  0.00000000000E+00 0. -1.
</event>
<event>
 7    1  0.5329250E-013  0.5052886E+02  0.7816164E-02  0.1300439E+00
        -11   -1    0    0    0    0  0.00000000000E+00  0.00000000000E+00  0.45593999997E+02  0.45594000000E+02  0.51100000000E-03 0. -1.
         11   -1    0    0    0    0 -0.00000000000E+00 -0.00000000000E+00 -0.45593999997E+02  0.45594000000E+02  0.51100000000E-03 0.  1.
    9900012    2    1    2    0    0  0.22874869690E+02 -0.32563734802E+02 -0.83372115664E+01  0.50528860999E+02  0.30000003493E+02 0.  0.
         12    1    1    2    0    0 -0.22874869690E+02  0.32563734802E+02  0.83372115664E+01  0.40659139001E+02  0.00000000000E+00 0. -1.
         11    1    3    3    0    0  0.28343089857E+01  0.14986311387E+01  0.57083467961E+01  0.65470929520E+01  0.51100000000E-03 0. -1.
        -11    1    3    3    0    0  0.24050632521E+01 -0.28168278239E+01 -0.62510555062E+01  0.72659853729E+01  0.51100000000E-03 0.  1.
        -12    1    3    3    0    0  0.17635497453E+02 -0.31245538117E+02 -0.77945028563E+01  0.36715782674E+02  0.00000000000E+00 0.  1.
</event>
<event>
 7    1  0.5329250E-013  0.5052886E+02  0.7816164E-02  0.1300439E+00
        -11   -1    0    0    0    0  0.00000000000E+00  0.00000000000E+00  0.45593999997E+02  0.45594000000E+02  0.51100000000E-03 0.  1.
         11   -1    0    0    0    0 -0.00000000000E+00 -0.00000000000E+00 -0.45593999997E+02  0.45594000000E+02  0.51100000000E-03 0. -1.
    9900012    2    1    2    0    0 -0.22850606058E+01 -0.36133168645E+02  0.18502377539E+02  0.50528863844E+02  0.30000012141E+02 0.  0.
         12    1    1    2    0    0  0.22850606058E+01  0.36133168645E+02 -0.18502377539E+02  0.40659136156E+02  0.00000000000E+00 0. -1.
         11    1    3    3    0    0 -0.33201438763E+01  0.20692966253E+01  0.79353154509E+01  0.88472919839E+01  0.51100000000E-03 0. -1.
        -11    1    3    3    0    0 -0.21107976304E+01 -0.10991709529E+02  0.87907745612E+01  0.14232036490E+02  0.51100000000E-03 0.  1.
         12    1    3    3    0    0  0.31458809009E+01 -0.27210755741E+02  0.17762875268E+01  0.27449535370E+02  0.00000000000E+00 0. -1.
</event>
<event>
 7    1  0.5329250E-013  0.5052886E+02  0.7816164E-02  0.1300439E+00
        -11   -1    0    0    0    0  0.00000000000E+00  0.00000000000E+00  0.45593999997E+02  0.45594000000E+02  0.51100000000E-03 0.  1.
         11   -1    0    0    0    0 -0.00000000000E+00 -0.00000000000E+00 -0.45593999997E+02  0.45594000000E+02  0.51100000000E-03 0. -1.
    9900012    2    1    2    0    0 -0.12051595186E+02  0.30158718751E+02  0.24461733520E+02  0.50528859945E+02  0.30000000288E+02 0.  0.
         12    1    1    2    0    0  0.12051595186E+02 -0.30158718751E+02 -0.24461733520E+02  0.40659140055E+02  0.00000000000E+00 0. -1.
         11    1    3    3    0    0 -0.51654889388E+01  0.16200554140E+02  0.14346685186E+02  0.22247867460E+02  0.51100000000E-03 0.  1.
        -11    1    3    3    0    0  0.69720880046E+01  0.96111413443E+01  0.41161167716E+01  0.12566879749E+02  0.51100000000E-03 0. -1.
         12    1    3    3    0    0 -0.13858194251E+02  0.43470232675E+01  0.59989315618E+01  0.15714112736E+02  0.00000000000E+00 0. -1.
</event>
<event>
 7    1  0.5329250E-013  0.5052886E+02  0.7816164E-02  0.1300439E+00
        -11   -1    0    0    0    0  0.00000000000E+00  0.00000000000E+00  0.45593999997E+02  0.45594000000E+02  0.51100000000E-03 0.  1.
         11   -1    0    0    0    0 -0.00000000000E+00 -0.00000000000E+00 -0.45593999997E+02  0.45594000000E+02  0.51100000000E-03 0. -1.
    9900012    2    1    2    0    0  0.16729055961E+01 -0.20033397394E+01  0.40575285742E+02  0.50528858392E+02  0.29999995570E+02 0.  0.
         12    1    1    2    0    0 -0.16729055961E+01  0.20033397394E+01 -0.40575285742E+02  0.40659141608E+02  0.00000000000E+00 0. -1.
         11    1    3    3    0    0  0.43262643366E+00 -0.68743284788E+00  0.23727055414E+02  0.23740953823E+02  0.51100000000E-03 0.  1.
        -11    1    3    3    0    0  0.29080024136E+01  0.15325175612E+01 -0.42838085944E+01  0.53996392887E+01  0.51100000000E-03 0. -1.
         12    1    3    3    0    0 -0.16677232512E+01 -0.28484244527E+01  0.21132038922E+02  0.21388265281E+02  0.00000000000E+00 0. -1.
</event>
<event>
 7    1  0.5329250E-013  0.5052889E+02  0.7816164E-02  0.1300439E+00
        -11   -1    0    0    0    0  0.00000000000E+00  0.00000000000E+00  0.45593999997E+02  0.45594000000E+02  0.51100000000E-03 0.  1.
         11   -1    0    0    0    0 -0.00000000000E+00 -0.00000000000E+00 -0.45593999997E+02  0.45594000000E+02  0.51100000000E-03 0. -1.
    9900012    2    1    2    0    0  0.76969315778E+01 -0.21245263994E+01  0.39867368990E+02  0.50528886897E+02  0.30000082213E+02 0.  0.
         12    1    1    2    0    0 -0.76969315778E+01  0.21245263994E+01 -0.39867368990E+02  0.40659113103E+02  0.00000000000E+00 0. -1.
         11    1    3    3    0    0  0.78185936826E+00 -0.72776984843E+01  0.24484604146E+02  0.25555274206E+02  0.51100000000E-03 0. -1.
        -11    1    3    3    0    0  0.86487870935E+00  0.44243779985E+01  0.17841592984E+02  0.18402325296E+02  0.51100000000E-03 0.  1.
         12    1    3    3    0    0  0.60501935001E+01  0.72879408639E+00 -0.24588281398E+01  0.65712873952E+01  0.00000000000E+00 0. -1.
</event>
<event>
 7    1  0.5329250E-013  0.5052886E+02  0.7816164E-02  0.1300439E+00
        -11   -1    0    0    0    0  0.00000000000E+00  0.00000000000E+00  0.45593999997E+02  0.45594000000E+02  0.51100000000E-03 0. -1.
         11   -1    0    0    0    0 -0.00000000000E+00 -0.00000000000E+00 -0.45593999997E+02  0.45594000000E+02  0.51100000000E-03 0.  1.
    9900012    2    1    2    0    0  0.15056928242E+02  0.28712131786E+02 -0.24537075153E+02  0.50528860107E+02  0.30000000782E+02 0.  0.
         12    1    1    2    0    0 -0.15056928242E+02 -0.28712131786E+02  0.24537075153E+02  0.40659139893E+02  0.00000000000E+00 0. -1.
         11    1    3    3    0    0  0.66449200194E+01  0.18847728754E+02  0.76456116133E+00  0.19999409873E+02  0.51100000000E-03 0. -1.
        -11    1    3    3    0    0  0.22864571019E+01  0.90159527292E+01 -0.84035334918E+01  0.12535336657E+02  0.51100000000E-03 0.  1.
         12    1    3    3    0    0  0.61255511209E+01  0.84845030267E+00 -0.16898102822E+02  0.17994113577E+02  0.00000000000E+00 0. -1.
</event>
<event>
 7    1  0.5329250E-013  0.5052886E+02  0.7816164E-02  0.1300439E+00
        -11   -1    0    0    0    0  0.00000000000E+00  0.00000000000E+00  0.45593999997E+02  0.45594000000E+02  0.51100000000E-03 0. -1.
         11   -1    0    0    0    0 -0.00000000000E+00 -0.00000000000E+00 -0.45593999997E+02  0.45594000000E+02  0.51100000000E-03 0.  1.
    9900012    2    1    2    0    0  0.39550617776E+02 -0.68079607633E+01 -0.65242674071E+01  0.50528858821E+02  0.29999996871E+02 0.  0.
         12    1    1    2    0    0 -0.39550617776E+02  0.68079607633E+01  0.65242674071E+01  0.40659141179E+02  0.00000000000E+00 0. -1.
         11    1    3    3    0    0  0.18389621113E+01  0.57947770028E+01 -0.11103616815E+01  0.61801396007E+01  0.51100000000E-03 0. -1.
        -11    1    3    3    0    0 -0.29582708161E-01 -0.50604826998E+01 -0.27735177479E+01  0.57707678216E+01  0.51100000000E-03 0.  1.
        -12    1    3    3    0    0  0.37741238373E+02 -0.75422550663E+01 -0.26403879777E+01  0.38577951398E+02  0.00000000000E+00 0.  1.
</event>
<event>
 7    1  0.5329250E-013  0.5052886E+02  0.7816164E-02  0.1300439E+00
        -11   -1    0    0    0    0  0.00000000000E+00  0.00000000000E+00  0.45593999997E+02  0.45594000000E+02  0.51100000000E-03 0. -1.
         11   -1    0    0    0    0 -0.00000000000E+00 -0.00000000000E+00 -0.45593999997E+02  0.45594000000E+02  0.51100000000E-03 0.  1.
    9900012    2    1    2    0    0 -0.24480067075E+02 -0.24761032817E+02 -0.20994833569E+02  0.50528862445E+02  0.30000007887E+02 0.  0.
         12    1    1    2    0    0  0.24480067075E+02  0.24761032817E+02  0.20994833569E+02  0.40659137555E+02  0.00000000000E+00 0. -1.
         11    1    3    3    0    0 -0.19204427000E+02 -0.89620897482E+01 -0.14112810492E+02  0.25461745606E+02  0.51100000000E-03 0. -1.
        -11    1    3    3    0    0 -0.48800944587E+01 -0.12368286821E+02 -0.12644774281E+02  0.18348846223E+02  0.51100000000E-03 0.  1.
         12    1    3    3    0    0 -0.39554561645E+00 -0.34306562475E+01  0.57627512046E+01  0.67182706160E+01  0.00000000000E+00 0. -1.
</event>
<event>
 7    1  0.5329250E-013  0.5052885E+02  0.7816164E-02  0.1300439E+00
        -11   -1    0    0    0    0  0.00000000000E+00  0.00000000000E+00  0.45593999997E+02  0.45594000000E+02  0.51100000000E-03 0. -1.
         11   -1    0    0    0    0 -0.00000000000E+00 -0.00000000000E+00 -0.45593999997E+02  0.45594000000E+02  0.51100000000E-03 0.  1.
    9900012    2    1    2    0    0  0.17021433120E+02  0.21583152775E+02 -0.29960059113E+02  0.50528845910E+02  0.29999957629E+02 0.  0.
         12    1    1    2    0    0 -0.17021433120E+02 -0.21583152775E+02  0.29960059113E+02  0.40659154090E+02  0.00000000000E+00 0. -1.
         11    1    3    3    0    0  0.11356378809E+01 -0.36036104905E+01  0.34316286258E+00  0.37938691300E+01  0.51100000000E-03 0. -1.
        -11    1    3    3    0    0  0.30566074284E+01  0.16368438417E+02 -0.56612285220E+01  0.17587442503E+02  0.51100000000E-03 0.  1.
         12    1    3    3    0    0  0.12829187811E+02  0.88183248492E+01 -0.24641993454E+02  0.29147534277E+02  0.00000000000E+00 0. -1.
</event>
<event>
 7    1  0.5329250E-013  0.5052889E+02  0.7816164E-02  0.1300439E+00
        -11   -1    0    0    0    0  0.00000000000E+00  0.00000000000E+00  0.45593999997E+02  0.45594000000E+02  0.51100000000E-03 0.  1.
         11   -1    0    0    0    0 -0.00000000000E+00 -0.00000000000E+00 -0.45593999997E+02  0.45594000000E+02  0.51100000000E-03 0. -1.
    9900012    2    1    2    0    0  0.13146483376E+02  0.22008623644E+02  0.31558737523E+02  0.50528887197E+02  0.30000083124E+02 0.  0.
         12    1    1    2    0    0 -0.13146483376E+02 -0.22008623644E+02 -0.31558737523E+02  0.40659112803E+02  0.00000000000E+00 0. -1.
         11    1    3    3    0    0  0.62951193949E-01 -0.39024488236E+01  0.54946116472E+00  0.39414435815E+01  0.51100000000E-03 0. -1.
        -11    1    3    3    0    0  0.12155311640E+02  0.41068707529E+01  0.96888034537E+01  0.16077652225E+02  0.51100000000E-03 0.  1.
        -12    1    3    3    0    0  0.92822054155E+00  0.21804201715E+02  0.21320472905E+02  0.30509791390E+02  0.00000000000E+00 0.  1.
</event>
<event>
 7    1  0.5329250E-013  0.5052886E+02  0.7816164E-02  0.1300439E+00
        -11   -1    0    0    0    0  0.00000000000E+00  0.00000000000E+00  0.45593999997E+02  0.45594000000E+02  0.51100000000E-03 0.  1.
         11   -1    0    0    0    0 -0.00000000000E+00 -0.00000000000E+00 -0.45593999997E+02  0.45594000000E+02  0.51100000000E-03 0. -1.
    9900012    2    1    2    0    0  0.40615391460E+02 -0.86528368151E+00  0.16754395714E+01  0.50528857890E+02  0.29999994044E+02 0.  0.
         12    1    1    2    0    0 -0.40615391460E+02  0.86528368151E+00 -0.16754395714E+01  0.40659142110E+02  0.00000000000E+00 0. -1.
         11    1    3    3    0    0  0.27149907291E+02 -0.59208054091E+01 -0.48869325676E+01  0.28214455741E+02  0.51100000000E-03 0. -1.
        -11    1    3    3    0    0  0.21954199701E+01  0.40929262075E+01 -0.45186275493E+01  0.64799621122E+01  0.51100000000E-03 0.  1.
         12    1    3    3    0    0  0.11270064200E+02  0.96259552004E+00  0.11080999688E+02  0.15834440037E+02  0.00000000000E+00 0. -1.
</event>
<event>
 7    1  0.5329250E-013  0.5052887E+02  0.7816164E-02  0.1300439E+00
        -11   -1    0    0    0    0  0.00000000000E+00  0.00000000000E+00  0.45593999997E+02  0.45594000000E+02  0.51100000000E-03 0. -1.
         11   -1    0    0    0    0 -0.00000000000E+00 -0.00000000000E+00 -0.45593999997E+02  0.45594000000E+02  0.51100000000E-03 0.  1.
    9900012    2    1    2    0    0  0.38734409290E+02  0.11402004285E+02 -0.47754382601E+01  0.50528868488E+02  0.30000026256E+02 0.  0.
         12    1    1    2    0    0 -0.38734409290E+02 -0.11402004285E+02  0.47754382601E+01  0.40659131512E+02  0.00000000000E+00 0. -1.
         11    1    3    3    0    0  0.33719158773E+00 -0.42711233358E+00  0.39143879413E+01  0.39520319241E+01  0.51100000000E-03 0. -1.
        -11    1    3    3    0    0  0.20006847959E+02 -0.47326470785E+01 -0.70185039145E+00  0.20570962735E+02  0.51100000000E-03 0.  1.
         12    1    3    3    0    0  0.18390369743E+02  0.16561763697E+02 -0.79879758100E+01  0.26005873829E+02  0.00000000000E+00 0. -1.
</event>
<event>
 7    1  0.5329250E-013  0.5052886E+02  0.7816164E-02  0.1300439E+00
        -11   -1    0    0    0    0  0.00000000000E+00  0.00000000000E+00  0.45593999997E+02  0.45594000000E+02  0.51100000000E-03 0.  1.
         11   -1    0    0    0    0 -0.00000000000E+00 -0.00000000000E+00 -0.45593999997E+02  0.45594000000E+02  0.51100000000E-03 0. -1.
    9900012    2    1    2    0    0  0.13171750490E+02 -0.26549063168E+02  0.27835552234E+02  0.50528859154E+02  0.29999997886E+02 0.  0.
         12    1    1    2    0    0 -0.13171750490E+02  0.26549063168E+02 -0.27835552234E+02  0.40659140846E+02  0.00000000000E+00 0. -1.
         11    1    3    3    0    0  0.12060878703E+01 -0.24004964102E+00  0.10937726906E+02  0.11006640809E+02  0.51100000000E-03 0. -1.
        -11    1    3    3    0    0  0.81007943614E+01 -0.22717685800E+02  0.21658360728E+02  0.32416056316E+02  0.51100000000E-03 0.  1.
         12    1    3    3    0    0  0.38648682585E+01 -0.35913277277E+01 -0.47605353991E+01  0.71061620295E+01  0.00000000000E+00 0. -1.
</event>
<event>
 7    1  0.5329250E-013  0.5052886E+02  0.7816164E-02  0.1300439E+00
        -11   -1    0    0    0    0  0.00000000000E+00  0.00000000000E+00  0.45593999997E+02  0.45594000000E+02  0.51100000000E-03 0.  1.
         11   -1    0    0    0    0 -0.00000000000E+00 -0.00000000000E+00 -0.45593999997E+02  0.45594000000E+02  0.51100000000E-03 0. -1.
    9900012    2    1    2    0    0 -0.10412619027E+02  0.25808485285E+02  0.29642279772E+02  0.50528864522E+02  0.30000014201E+02 0.  0.
         12    1    1    2    0    0  0.10412619027E+02 -0.25808485285E+02 -0.29642279772E+02  0.40659135478E+02  0.00000000000E+00 0. -1.
         11    1    3    3    0    0  0.44100898337E+01  0.12606862485E+02  0.10182089232E+02  0.16794547194E+02  0.51100000000E-03 0.  1.
        -11    1    3    3    0    0 -0.52675581069E+01  0.38487455089E+01 -0.33200261908E+01  0.73200126072E+01  0.51100000000E-03 0. -1.
        -12    1    3    3    0    0 -0.95551507540E+01  0.93528772910E+01  0.22780216731E+02  0.26414304721E+02  0.00000000000E+00 0.  1.
</event>
<event>
 7    1  0.5329250E-013  0.5052886E+02  0.7816164E-02  0.1300439E+00
        -11   -1    0    0    0    0  0.00000000000E+00  0.00000000000E+00  0.45593999997E+02  0.45594000000E+02  0.51100000000E-03 0.  1.
         11   -1    0    0    0    0 -0.00000000000E+00 -0.00000000000E+00 -0.45593999997E+02  0.45594000000E+02  0.51100000000E-03 0. -1.
    9900012    2    1    2    0    0  0.30713032809E+02  0.25742677617E+02  0.68694588141E+01  0.50528864500E+02  0.30000014133E+02 0.  0.
         12    1    1    2    0    0 -0.30713032809E+02 -0.25742677617E+02 -0.68694588141E+01  0.40659135500E+02  0.00000000000E+00 0. -1.
         11    1    3    3    0    0  0.22994781382E+02  0.16701565611E+02 -0.32233412076E+01  0.28602310981E+02  0.51100000000E-03 0.  1.
        -11    1    3    3    0    0  0.53658698690E+00  0.10516803345E+01 -0.40202290421E+01  0.41900118058E+01  0.51100000000E-03 0. -1.
        -12    1    3    3    0    0  0.71816644402E+01  0.79894316719E+01  0.14113029064E+02  0.17736541713E+02  0.00000000000E+00 0.  1.
</event>
<event>
 7    1  0.5329250E-013  0.5052886E+02  0.7816164E-02  0.1300439E+00
        -11   -1    0    0    0    0  0.00000000000E+00  0.00000000000E+00  0.45593999997E+02  0.45594000000E+02  0.51100000000E-03 0.  1.
         11   -1    0    0    0    0 -0.00000000000E+00 -0.00000000000E+00 -0.45593999997E+02  0.45594000000E+02  0.51100000000E-03 0. -1.
    9900012    2    1    2    0    0 -0.35098608314E+02 -0.20513537444E+02 -0.66932910118E+00  0.50528861722E+02  0.30000005691E+02 0.  0.
         12    1    1    2    0    0  0.35098608314E+02  0.20513537444E+02  0.66932910118E+00  0.40659138278E+02  0.00000000000E+00 0. -1.
         11    1    3    3    0    0 -0.32514673000E+01 -0.73202545182E+01 -0.78819535827E+01  0.11237586856E+02  0.51100000000E-03 0. -1.
        -11    1    3    3    0    0 -0.59266778580E+00  0.32432461464E+01  0.91106395413E+00  0.34205172797E+01  0.51100000000E-03 0.  1.
        -12    1    3    3    0    0 -0.31254473228E+02 -0.16436529072E+02  0.63015605274E+01  0.35870757586E+02  0.00000000000E+00 0.  1.
</event>
<event>
 7    1  0.5329250E-013  0.5052886E+02  0.7816164E-02  0.1300439E+00
        -11   -1    0    0    0    0  0.00000000000E+00  0.00000000000E+00  0.45593999997E+02  0.45594000000E+02  0.51100000000E-03 0. -1.
         11   -1    0    0    0    0 -0.00000000000E+00 -0.00000000000E+00 -0.45593999997E+02  0.45594000000E+02  0.51100000000E-03 0.  1.
    9900012    2    1    2    0    0  0.30723754492E+02 -0.15696985778E+01 -0.26584816083E+02  0.50528862160E+02  0.30000007023E+02 0.  0.
         12    1    1    2    0    0 -0.30723754492E+02  0.15696985778E+01  0.26584816083E+02  0.40659137840E+02  0.00000000000E+00 0. -1.
         11    1    3    3    0    0  0.53915329666E+01  0.23939934857E+01 -0.14182808289E+02  0.15360725366E+02  0.51100000000E-03 0. -1.
        -11    1    3    3    0    0  0.78375557221E+01  0.59403798555E+01 -0.11377151514E+02  0.15038449699E+02  0.51100000000E-03 0.  1.
         12    1    3    3    0    0  0.17494665803E+02 -0.99040719190E+01 -0.10248562793E+01  0.20129687095E+02  0.00000000000E+00 0. -1.
</event>
<event>
 7    1  0.5329250E-013  0.5052886E+02  0.7816164E-02  0.1300439E+00
        -11   -1    0    0    0    0  0.00000000000E+00  0.00000000000E+00  0.45593999997E+02  0.45594000000E+02  0.51100000000E-03 0.  1.
         11   -1    0    0    0    0 -0.00000000000E+00 -0.00000000000E+00 -0.45593999997E+02  0.45594000000E+02  0.51100000000E-03 0. -1.
    9900012    2    1    2    0    0 -0.12339148698E+02 -0.24626132277E+00  0.38740812757E+02  0.50528858245E+02  0.29999995121E+02 0.  0.
         12    1    1    2    0    0  0.12339148698E+02  0.24626132277E+00 -0.38740812757E+02  0.40659141755E+02  0.00000000000E+00 0. -1.
         11    1    3    3    0    0  0.73795756366E+01  0.12558835292E+00  0.11087843035E+01  0.74634651405E+01  0.51100000000E-03 0. -1.
        -11    1    3    3    0    0 -0.42252307042E+01 -0.14192699447E+01  0.38682141481E+01  0.59016932008E+01  0.51100000000E-03 0.  1.
        -12    1    3    3    0    0 -0.15493493630E+02  0.10474202690E+01  0.33763814305E+02  0.37163699903E+02  0.00000000000E+00 0.  1.
</event>
<event>
 7    1  0.5329250E-013  0.5052883E+02  0.7816164E-02  0.1300439E+00
        -11   -1    0    0    0    0  0.00000000000E+00  0.00000000000E+00  0.45593999997E+02  0.45594000000E+02  0.51100000000E-03 0. -1.
         11   -1    0    0    0    0 -0.00000000000E+00 -0.00000000000E+00 -0.45593999997E+02  0.45594000000E+02  0.51100000000E-03 0.  1.
    9900012    2    1    2    0    0  0.27528954463E+01 -0.40049096751E+02  0.64543948390E+01  0.50528833793E+02  0.29999920798E+02 0.  0.
         12    1    1    2    0    0 -0.27528954463E+01  0.40049096751E+02 -0.64543948390E+01  0.40659166207E+02  0.00000000000E+00 0. -1.
         11    1    3    3    0    0  0.12638612220E+01 -0.10408930725E+02  0.10831349062E+02  0.15075188450E+02  0.51100000000E-03 0. -1.
        -11    1    3    3    0    0  0.93916937694E+01 -0.14002728072E+02  0.16119118832E+01  0.16937489941E+02  0.51100000000E-03 0.  1.
         12    1    3    3    0    0 -0.79026595451E+01 -0.15637437954E+02 -0.59888661066E+01  0.18516155402E+02  0.00000000000E+00 0. -1.
</event>
<event>
 7    1  0.5329250E-013  0.5052884E+02  0.7816164E-02  0.1300439E+00
        -11   -1    0    0    0    0  0.00000000000E+00  0.00000000000E+00  0.45593999997E+02  0.45594000000E+02  0.51100000000E-03 0.  1.
         11   -1    0    0    0    0 -0.00000000000E+00 -0.00000000000E+00 -0.45593999997E+02  0.45594000000E+02  0.51100000000E-03 0. -1.
    9900012    2    1    2    0    0  0.26286691642E+02 -0.29022181323E+02  0.10949431710E+02  0.50528840872E+02  0.29999942313E+02 0.  0.
         12    1    1    2    0    0 -0.26286691642E+02  0.29022181323E+02 -0.10949431710E+02  0.40659159128E+02  0.00000000000E+00 0. -1.
         11    1    3    3    0    0  0.62682347496E+01 -0.10750106849E+02 -0.97682036725E+01  0.15820030575E+02  0.51100000000E-03 0. -1.
        -11    1    3    3    0    0  0.80962777608E+01 -0.65534009405E+01  0.42715248983E+01  0.11258006159E+02  0.51100000000E-03 0.  1.
        -12    1    3    3    0    0  0.11922179132E+02 -0.11718673534E+02  0.16446110484E+02  0.23450804138E+02  0.00000000000E+00 0.  1.
</event>
<event>
 7    1  0.5329250E-013  0.5052886E+02  0.7816164E-02  0.1300439E+00
        -11   -1    0    0    0    0  0.00000000000E+00  0.00000000000E+00  0.45593999997E+02  0.45594000000E+02  0.51100000000E-03 0.  1.
         11   -1    0    0    0    0 -0.00000000000E+00 -0.00000000000E+00 -0.45593999997E+02  0.45594000000E+02  0.51100000000E-03 0. -1.
    9900012    2    1    2    0    0  0.35928776071E+02 -0.12223194713E+02  0.14590480022E+02  0.50528861467E+02  0.30000004916E+02 0.  0.
         12    1    1    2    0    0 -0.35928776071E+02  0.12223194713E+02 -0.14590480022E+02  0.40659138533E+02  0.00000000000E+00 0. -1.
         11    1    3    3    0    0  0.15640610784E+02 -0.99345372667E+01  0.48793147450E+01  0.19160674546E+02  0.51100000000E-03 0. -1.
        -11    1    3    3    0    0  0.20181272959E+02  0.47766605738E+01  0.18854714202E+01  0.20824391161E+02  0.51100000000E-03 0.  1.
         12    1    3    3    0    0  0.10689232774E+00 -0.70653180205E+01  0.78256938566E+01  0.10543795760E+02  0.00000000000E+00 0. -1.
</event>
<event>
 7    1  0.5329250E-013  0.5052887E+02  0.7816164E-02  0.1300439E+00
        -11   -1    0    0    0    0  0.00000000000E+00  0.00000000000E+00  0.45593999997E+02  0.45594000000E+02  0.51100000000E-03 0.  1.
         11   -1    0    0    0    0 -0.00000000000E+00 -0.00000000000E+00 -0.45593999997E+02  0.45594000000E+02  0.51100000000E-03 0. -1.
    9900012    2    1    2    0    0  0.97062821702E+01  0.38868689242E+02  0.69410222920E+01  0.50528871783E+02  0.30000036270E+02 0.  0.
         12    1    1    2    0    0 -0.97062821702E+01 -0.38868689242E+02 -0.69410222920E+01  0.40659128217E+02  0.00000000000E+00 0. -1.
         11    1    3    3    0    0  0.31406989071E+01  0.14497677217E+02 -0.34624178446E+01  0.15232694177E+02  0.51100000000E-03 0. -1.
        -11    1    3    3    0    0  0.14169572716E+02  0.19465987356E+02  0.10450806646E+02  0.26247301090E+02  0.51100000000E-03 0.  1.
         12    1    3    3    0    0 -0.76039894531E+01  0.49050246694E+01 -0.47366508997E-01  0.90488765157E+01  0.00000000000E+00 0. -1.
</event>
<event>
 7    1  0.6248589E-013  0.5052886E+02  0.7816164E-02  0.1300439E+00
        -11   -1    0    0    0    0  0.00000000000E+00  0.00000000000E+00  0.45593999997E+02  0.45594000000E+02  0.51100000000E-03 0.  1.
         11   -1    0    0    0    0 -0.00000000000E+00 -0.00000000000E+00 -0.45593999997E+02  0.45594000000E+02  0.51100000000E-03 0. -1.
    9900012    2    1    2    0    0  0.28409328932E+02  0.13350207867E+01  0.29056724864E+02  0.50528861904E+02  0.30000006245E+02 0.  0.
         12    1    1    2    0    0 -0.28409328932E+02 -0.13350207867E+01 -0.29056724864E+02  0.40659138096E+02  0.00000000000E+00 0. -1.
         11    1    3    3    0    0 -0.10669060220E+01  0.14378539881E+01 -0.21862984533E+01  0.28258828247E+01  0.51100000000E-03 0. -1.
        -11    1    3    3    0    0  0.30579954514E+01 -0.44069126062E+01  0.16055525011E+02  0.16927849791E+02  0.51100000000E-03 0.  1.
        -12    1    3    3    0    0  0.26418239503E+02  0.43040794049E+01  0.15187498306E+02  0.30775129289E+02  0.00000000000E+00 0.  1.
</event>
<event>
 7    1  0.5329250E-013  0.5052886E+02  0.7816164E-02  0.1300439E+00
        -11   -1    0    0    0    0  0.00000000000E+00  0.00000000000E+00  0.45593999997E+02  0.45594000000E+02  0.51100000000E-03 0.  1.
         11   -1    0    0    0    0 -0.00000000000E+00 -0.00000000000E+00 -0.45593999997E+02  0.45594000000E+02  0.51100000000E-03 0. -1.
    9900012    2    1    2    0    0 -0.91474293881E+01 -0.11111776176E+02  0.38026551821E+02  0.50528859852E+02  0.30000000005E+02 0.  0.
         12    1    1    2    0    0  0.91474293881E+01  0.11111776176E+02 -0.38026551821E+02  0.40659140148E+02  0.00000000000E+00 0. -1.
         11    1    3    3    0    0  0.40783927767E+01  0.22669206624E+01  0.45800318124E+00  0.46884948657E+01  0.51100000000E-03 0. -1.
        -11    1    3    3    0    0 -0.14756938726E+01  0.32658564391E+01  0.60624781193E+00  0.36346976982E+01  0.51100000000E-03 0.  1.
        -12    1    3    3    0    0 -0.11750128292E+02 -0.16644553278E+02  0.36962300828E+02  0.42205667288E+02  0.00000000000E+00 0.  1.
</event>
<event>
 7    1  0.5329250E-013  0.5052886E+02  0.7816164E-02  0.1300439E+00
        -11   -1    0    0    0    0  0.00000000000E+00  0.00000000000E+00  0.45593999997E+02  0.45594000000E+02  0.51100000000E-03 0.  1.
         11   -1    0    0    0    0 -0.00000000000E+00 -0.00000000000E+00 -0.45593999997E+02  0.45594000000E+02  0.51100000000E-03 0. -1.
    9900012    2    1    2    0    0 -0.37263489007E+02  0.64885770421E+01  0.14916310538E+02  0.50528861236E+02  0.30000004212E+02 0.  0.
         12    1    1    2    0    0  0.37263489007E+02 -0.64885770421E+01 -0.14916310538E+02  0.40659138764E+02  0.00000000000E+00 0. -1.
         11    1    3    3    0    0 -0.18618778223E+02 -0.66104203372E+01  0.14690540252E+02  0.24620490099E+02  0.51100000000E-03 0. -1.
        -11    1    3    3    0    0 -0.13048281408E+02  0.30884880541E+01  0.37270422354E+01  0.13917156687E+02  0.51100000000E-03 0.  1.
        -12    1    3    3    0    0 -0.55964293755E+01  0.10010509325E+02 -0.35012719500E+01  0.11991214449E+02  0.00000000000E+00 0.  1.
</event>
<event>
 7    1  0.5329250E-013  0.5052886E+02  0.7816164E-02  0.1300439E+00
        -11   -1    0    0    0    0  0.00000000000E+00  0.00000000000E+00  0.45593999997E+02  0.45594000000E+02  0.51100000000E-03 0.  1.
         11   -1    0    0    0    0 -0.00000000000E+00 -0.00000000000E+00 -0.45593999997E+02  0.45594000000E+02  0.51100000000E-03 0. -1.
    9900012    2    1    2    0    0  0.96221887248E+01  0.37771468181E+01  0.39323181425E+02  0.50528856485E+02  0.29999989773E+02 0.  0.
         12    1    1    2    0    0 -0.96221887248E+01 -0.37771468181E+01 -0.39323181425E+02  0.40659143515E+02  0.00000000000E+00 0. -1.
         11    1    3    3    0    0  0.82636446599E+00 -0.28311260471E+01 -0.18519982099E+01  0.34825350760E+01  0.51100000000E-03 0. -1.
        -11    1    3    3    0    0 -0.42873009864E+01  0.65270746798E+01  0.71330156617E+01  0.10576557394E+02  0.51100000000E-03 0.  1.
        -12    1    3    3    0    0  0.13083125245E+02  0.81198185431E-01  0.34042163973E+02  0.36469764015E+02  0.00000000000E+00 0.  1.
</event>
<event>
 7    1  0.5329250E-013  0.5052887E+02  0.7816164E-02  0.1300439E+00
        -11   -1    0    0    0    0  0.00000000000E+00  0.00000000000E+00  0.45593999997E+02  0.45594000000E+02  0.51100000000E-03 0.  1.
         11   -1    0    0    0    0 -0.00000000000E+00 -0.00000000000E+00 -0.45593999997E+02  0.45594000000E+02  0.51100000000E-03 0. -1.
    9900012    2    1    2    0    0 -0.37075037623E+01  0.39688951025E+01  0.40294757123E+02  0.50528866167E+02  0.30000019200E+02 0.  0.
         12    1    1    2    0    0  0.37075037623E+01 -0.39688951025E+01 -0.40294757123E+02  0.40659133833E+02  0.00000000000E+00 0. -1.
         11    1    3    3    0    0  0.31114328265E+01  0.12042055234E+02  0.23647246191E+02  0.26718614507E+02  0.51100000000E-03 0. -1.
        -11    1    3    3    0    0  0.12959389368E+01  0.21412580403E+01  0.74209779465E+01  0.78316893239E+01  0.51100000000E-03 0.  1.
         12    1    3    3    0    0 -0.81148755255E+01 -0.10214418172E+02  0.92265329856E+01  0.15978562336E+02  0.00000000000E+00 0. -1.
</event>
<event>
 7    1  0.5329250E-013  0.5052886E+02  0.7816164E-02  0.1300439E+00
        -11   -1    0    0    0    0  0.00000000000E+00  0.00000000000E+00  0.45593999997E+02  0.45594000000E+02  0.51100000000E-03 0. -1.
         11   -1    0    0    0    0 -0.00000000000E+00 -0.00000000000E+00 -0.45593999997E+02  0.45594000000E+02  0.51100000000E-03 0.  1.
    9900012    2    1    2    0    0 -0.10857290604E+02 -0.18169297413E+02 -0.34715435456E+02  0.50528860970E+02  0.30000003405E+02 0.  0.
         12    1    1    2    0    0  0.10857290604E+02  0.18169297413E+02  0.34715435456E+02  0.40659139030E+02  0.00000000000E+00 0. -1.
         11    1    3    3    0    0 -0.16755158991E+02 -0.70121698030E+01 -0.21453422822E+02  0.28109699914E+02  0.51100000000E-03 0. -1.
        -11    1    3    3    0    0 -0.29327511767E+00 -0.80391924559E+01 -0.13233958762E+02  0.15487165345E+02  0.51100000000E-03 0.  1.
         12    1    3    3    0    0  0.61911435054E+01 -0.31179351541E+01 -0.28053871461E-01  0.69319957118E+01  0.00000000000E+00 0. -1.
</event>
<event>
 7    1  0.5329250E-013  0.5052898E+02  0.7816164E-02  0.1300438E+00
        -11   -1    0    0    0    0  0.00000000000E+00  0.00000000000E+00  0.45593999997E+02  0.45594000000E+02  0.51100000000E-03 0. -1.
         11   -1    0    0    0    0 -0.00000000000E+00 -0.00000000000E+00 -0.45593999997E+02  0.45594000000E+02  0.51100000000E-03 0.  1.
    9900012    2    1    2    0    0  0.14212512389E+02 -0.12609897212E+02 -0.35946496882E+02  0.50528983113E+02  0.30000374668E+02 0.  0.
         12    1    1    2    0    0 -0.14212512389E+02  0.12609897212E+02  0.35946496882E+02  0.40659016887E+02  0.00000000000E+00 0. -1.
         11    1    3    3    0    0 -0.38380845042E+01  0.49945884089E+01 -0.14676143420E+02  0.15970785578E+02  0.51100000000E-03 0. -1.
        -11    1    3    3    0    0  0.37618872674E+01 -0.63796645119E+01 -0.12315219721E+01  0.75078999545E+01  0.51100000000E-03 0.  1.
        -12    1    3    3    0    0  0.14288709626E+02 -0.11224821109E+02 -0.20038831490E+02  0.27050297581E+02  0.00000000000E+00 0.  1.
</event>
<event>
 7    1  0.5329250E-013  0.5052886E+02  0.7816164E-02  0.1300439E+00
        -11   -1    0    0    0    0  0.00000000000E+00  0.00000000000E+00  0.45593999997E+02  0.45594000000E+02  0.51100000000E-03 0. -1.
         11   -1    0    0    0    0 -0.00000000000E+00 -0.00000000000E+00 -0.45593999997E+02  0.45594000000E+02  0.51100000000E-03 0.  1.
    9900012    2    1    2    0    0  0.28781557556E+02  0.33768922747E+01 -0.28519890431E+02  0.50528860720E+02  0.30000002646E+02 0.  0.
         12    1    1    2    0    0 -0.28781557556E+02 -0.33768922747E+01  0.28519890431E+02  0.40659139280E+02  0.00000000000E+00 0. -1.
         11    1    3    3    0    0  0.13133236370E+02  0.97487548014E+00 -0.49923181623E+01  0.14083874490E+02  0.51100000000E-03 0.  1.
        -11    1    3    3    0    0 -0.33577208040E+01 -0.39486297526E+01  0.44238102509E+00  0.52020829629E+01  0.51100000000E-03 0. -1.
        -12    1    3    3    0    0  0.19006041989E+02  0.63506465472E+01 -0.23969953294E+02  0.31242903267E+02  0.00000000000E+00 0.  1.
</event>
<event>
 7    1  0.5329250E-013  0.5052886E+02  0.7816164E-02  0.1300439E+00
        -11   -1    0    0    0    0  0.00000000000E+00  0.00000000000E+00  0.45593999997E+02  0.45594000000E+02  0.51100000000E-03 0.  1.
         11   -1    0    0    0    0 -0.00000000000E+00 -0.00000000000E+00 -0.45593999997E+02  0.45594000000E+02  0.51100000000E-03 0. -1.
    9900012    2    1    2    0    0 -0.27343840192E+01  0.24830908529E+02  0.32079818670E+02  0.50528860312E+02  0.30000001403E+02 0.  0.
         12    1    1    2    0    0  0.27343840192E+01 -0.24830908529E+02 -0.32079818670E+02  0.40659139688E+02  0.00000000000E+00 0. -1.
         11    1    3    3    0    0 -0.79203079048E+01  0.12593096990E+02  0.85707247214E+01  0.17169003804E+02  0.51100000000E-03 0. -1.
        -11    1    3    3    0    0 -0.29996189460E+01  0.94910600484E+01  0.22579149249E+02  0.24675816414E+02  0.51100000000E-03 0.  1.
        -12    1    3    3    0    0  0.81855428316E+01  0.27467514903E+01  0.92994469972E+00  0.86840400933E+01  0.00000000000E+00 0.  1.
</event>
<event>
 7    1  0.5329250E-013  0.5052885E+02  0.7816164E-02  0.1300439E+00
        -11   -1    0    0    0    0  0.00000000000E+00  0.00000000000E+00  0.45593999997E+02  0.45594000000E+02  0.51100000000E-03 0.  1.
         11   -1    0    0    0    0 -0.00000000000E+00 -0.00000000000E+00 -0.45593999997E+02  0.45594000000E+02  0.51100000000E-03 0. -1.
    9900012    2    1    2    0    0 -0.34817269953E+02  0.15440847964E+02  0.14230394512E+02  0.50528853417E+02  0.29999980448E+02 0.  0.
         12    1    1    2    0    0  0.34817269953E+02 -0.15440847964E+02 -0.14230394512E+02  0.40659146583E+02  0.00000000000E+00 0. -1.
         11    1    3    3    0    0 -0.12965053412E+02 -0.11212178088E+01  0.13961862631E+02  0.19086208312E+02  0.51100000000E-03 0. -1.
        -11    1    3    3    0    0 -0.62207848620E+01  0.10678777275E+02  0.60609337845E+01  0.13764787212E+02  0.51100000000E-03 0.  1.
         12    1    3    3    0    0 -0.15631431679E+02  0.58832884976E+01 -0.57924019029E+01  0.17677857893E+02  0.00000000000E+00 0. -1.
</event>
<event>
 7    1  0.5329250E-013  0.5052887E+02  0.7816164E-02  0.1300439E+00
        -11   -1    0    0    0    0  0.00000000000E+00  0.00000000000E+00  0.45593999997E+02  0.45594000000E+02  0.51100000000E-03 0. -1.
         11   -1    0    0    0    0 -0.00000000000E+00 -0.00000000000E+00 -0.45593999997E+02  0.45594000000E+02  0.51100000000E-03 0.  1.
    9900012    2    1    2    0    0  0.19095810071E+02  0.30279045056E+02 -0.19279376643E+02  0.50528869469E+02  0.30000029238E+02 0.  0.
         12    1    1    2    0    0 -0.19095810071E+02 -0.30279045056E+02  0.19279376643E+02  0.40659130531E+02  0.00000000000E+00 0. -1.
         11    1    3    3    0    0 -0.22829376499E+01  0.18145611533E+00  0.84210555568E+00  0.24400558729E+01  0.51100000000E-03 0. -1.
        -11    1    3    3    0    0  0.52728600592E+01  0.19345060733E+02  0.15364857919E+00  0.20051384893E+02  0.51100000000E-03 0.  1.
         12    1    3    3    0    0  0.16105887662E+02  0.10752528207E+02 -0.20275130778E+02  0.28037428703E+02  0.00000000000E+00 0. -1.
</event>
<event>
 7    1  0.5329250E-013  0.5052886E+02  0.7816164E-02  0.1300439E+00
        -11   -1    0    0    0    0  0.00000000000E+00  0.00000000000E+00  0.45593999997E+02  0.45594000000E+02  0.51100000000E-03 0.  1.
         11   -1    0    0    0    0 -0.00000000000E+00 -0.00000000000E+00 -0.45593999997E+02  0.45594000000E+02  0.51100000000E-03 0. -1.
    9900012    2    1    2    0    0  0.27802359630E+02  0.13984496472E+02  0.26165402101E+02  0.50528860687E+02  0.30000002545E+02 0.  0.
         12    1    1    2    0    0 -0.27802359630E+02 -0.13984496472E+02 -0.26165402101E+02  0.40659139313E+02  0.00000000000E+00 0. -1.
         11    1    3    3    0    0  0.99197558927E+01  0.10758011217E+02  0.26783787876E+02  0.30520610340E+02  0.51100000000E-03 0. -1.
        -11    1    3    3    0    0  0.66555903366E+01  0.45923653706E+01  0.21447681727E+01  0.83658073849E+01  0.51100000000E-03 0.  1.
        -12    1    3    3    0    0  0.11227013401E+02 -0.13658801152E+01 -0.27631539475E+01  0.11642442962E+02  0.00000000000E+00 0.  1.
</event>
<event>
 7    1  0.5329250E-013  0.5052887E+02  0.7816164E-02  0.1300439E+00
        -11   -1    0    0    0    0  0.00000000000E+00  0.00000000000E+00  0.45593999997E+02  0.45594000000E+02  0.51100000000E-03 0. -1.
         11   -1    0    0    0    0 -0.00000000000E+00 -0.00000000000E+00 -0.45593999997E+02  0.45594000000E+02  0.51100000000E-03 0.  1.
    9900012    2    1    2    0    0 -0.21641637711E+01 -0.33257959748E+02 -0.23289247164E+02  0.50528874027E+02  0.30000043092E+02 0.  0.
         12    1    1    2    0    0  0.21641637711E+01  0.33257959748E+02  0.23289247164E+02  0.40659125973E+02  0.00000000000E+00 0. -1.
         11    1    3    3    0    0  0.10086531937E+02 -0.12704687611E+02 -0.45913636559E+01  0.16859057930E+02  0.51100000000E-03 0. -1.
        -11    1    3    3    0    0 -0.11452883295E+01 -0.10296789347E+02 -0.10210257189E+01  0.10410477895E+02  0.51100000000E-03 0.  1.
        -12    1    3    3    0    0 -0.11105407379E+02 -0.10256482790E+02 -0.17676857789E+02  0.23259338201E+02  0.00000000000E+00 0.  1.
</event>
<event>
 7    1  0.5329250E-013  0.5052887E+02  0.7816164E-02  0.1300439E+00
        -11   -1    0    0    0    0  0.00000000000E+00  0.00000000000E+00  0.45593999997E+02  0.45594000000E+02  0.51100000000E-03 0. -1.
         11   -1    0    0    0    0 -0.00000000000E+00 -0.00000000000E+00 -0.45593999997E+02  0.45594000000E+02  0.51100000000E-03 0.  1.
    9900012    2    1    2    0    0  0.20148642323E+02  0.28498147898E+02 -0.20857920564E+02  0.50528867308E+02  0.30000022668E+02 0.  0.
         12    1    1    2    0    0 -0.20148642323E+02 -0.28498147898E+02  0.20857920564E+02  0.40659132692E+02  0.00000000000E+00 0. -1.
         11    1    3    3    0    0 -0.27265057664E+01 -0.75275246824E+00 -0.63307737774E+01  0.69339142520E+01  0.51100000000E-03 0. -1.
        -11    1    3    3    0    0  0.65582301147E+01  0.12633145055E+01  0.23317652727E+01  0.70741413136E+01  0.51100000000E-03 0.  1.
        -12    1    3    3    0    0  0.16316917974E+02  0.27987585860E+02 -0.16858912059E+02  0.36520811742E+02  0.00000000000E+00 0.  1.
</event>
<event>
 7    1  0.5329250E-013  0.5052886E+02  0.7816164E-02  0.1300439E+00
        -11   -1    0    0    0    0  0.00000000000E+00  0.00000000000E+00  0.45593999997E+02  0.45594000000E+02  0.51100000000E-03 0.  1.
         11   -1    0    0    0    0 -0.00000000000E+00 -0.00000000000E+00 -0.45593999997E+02  0.45594000000E+02  0.51100000000E-03 0. -1.
    9900012    2    1    2    0    0  0.31419169462E+02 -0.23625080689E+02  0.10385439298E+02  0.50528855928E+02  0.29999988080E+02 0.  0.
         12    1    1    2    0    0 -0.31419169462E+02  0.23625080689E+02 -0.10385439298E+02  0.40659144072E+02  0.00000000000E+00 0. -1.
         11    1    3    3    0    0  0.87817378705E+01  0.14908195432E+01  0.47403630908E+01  0.10090218304E+02  0.51100000000E-03 0. -1.
        -11    1    3    3    0    0  0.96521839808E+01 -0.27510539592E+01 -0.64067178144E+01  0.11907098173E+02  0.51100000000E-03 0.  1.
         12    1    3    3    0    0  0.12985247610E+02 -0.22364846273E+02  0.12051794021E+02  0.28531539451E+02  0.00000000000E+00 0. -1.
</event>
<event>
 7    1  0.5329250E-013  0.5052890E+02  0.7816164E-02  0.1300439E+00
        -11   -1    0    0    0    0  0.00000000000E+00  0.00000000000E+00  0.45593999997E+02  0.45594000000E+02  0.51100000000E-03 0.  1.
         11   -1    0    0    0    0 -0.00000000000E+00 -0.00000000000E+00 -0.45593999997E+02  0.45594000000E+02  0.51100000000E-03 0. -1.
    9900012    2    1    2    0    0  0.17144727052E+02  0.28020790042E+02  0.23959463918E+02  0.50528901984E+02  0.30000128069E+02 0.  0.
         12    1    1    2    0    0 -0.17144727052E+02 -0.28020790042E+02 -0.23959463918E+02  0.40659098016E+02  0.00000000000E+00 0. -1.
         11    1    3    3    0    0  0.13513096198E+02  0.24957645389E+00  0.38482919939E+01  0.14052594380E+02  0.51100000000E-03 0. -1.
        -11    1    3    3    0    0  0.75227061197E+01  0.12668699605E+02  0.82827414311E+01  0.16902392225E+02  0.51100000000E-03 0.  1.
        -12    1    3    3    0    0 -0.38910752662E+01  0.15102513983E+02  0.11828430493E+02  0.19573915379E+02  0.00000000000E+00 0.  1.
</event>
<event>
 7    1  0.5329250E-013  0.5052886E+02  0.7816164E-02  0.1300439E+00
        -11   -1    0    0    0    0  0.00000000000E+00  0.00000000000E+00  0.45593999997E+02  0.45594000000E+02  0.51100000000E-03 0. -1.
         11   -1    0    0    0    0 -0.00000000000E+00 -0.00000000000E+00 -0.45593999997E+02  0.45594000000E+02  0.51100000000E-03 0.  1.
    9900012    2    1    2    0    0 -0.16621019418E+02 -0.31923751456E+02 -0.18915108799E+02  0.50528861613E+02  0.30000005358E+02 0.  0.
         12    1    1    2    0    0  0.16621019418E+02  0.31923751456E+02  0.18915108799E+02  0.40659138387E+02  0.00000000000E+00 0. -1.
         11    1    3    3    0    0 -0.80074004835E+01 -0.77387117878E+01  0.37110169936E+01  0.11737877578E+02  0.51100000000E-03 0. -1.
        -11    1    3    3    0    0 -0.17906886642E+01 -0.17190630994E+02 -0.39742082812E+01  0.17734674837E+02  0.51100000000E-03 0.  1.
         12    1    3    3    0    0 -0.68229302704E+01 -0.69944086741E+01 -0.18651917512E+02  0.21056309198E+02  0.00000000000E+00 0. -1.
</event>
<event>
 7    1  0.5329250E-013  0.5052885E+02  0.7816164E-02  0.1300439E+00
        -11   -1    0    0    0    0  0.00000000000E+00  0.00000000000E+00  0.45593999997E+02  0.45594000000E+02  0.51100000000E-03 0.  1.
         11   -1    0    0    0    0 -0.00000000000E+00 -0.00000000000E+00 -0.45593999997E+02  0.45594000000E+02  0.51100000000E-03 0. -1.
    9900012    2    1    2    0    0  0.12103671888E+02 -0.32794137090E+02  0.20765651425E+02  0.50528848757E+02  0.29999966282E+02 0.  0.
         12    1    1    2    0    0 -0.12103671888E+02  0.32794137090E+02 -0.20765651425E+02  0.40659151243E+02  0.00000000000E+00 0. -1.
         11    1    3    3    0    0 -0.41411900354E+01 -0.52484447673E+01  0.19219936020E+00  0.66882410423E+01  0.51100000000E-03 0. -1.
        -11    1    3    3    0    0  0.37102331469E+01  0.34047461133E+01  0.99860411859E+00  0.51337448853E+01  0.51100000000E-03 0.  1.
        -12    1    3    3    0    0  0.12534628777E+02 -0.30950438436E+02  0.19574847946E+02  0.38706862829E+02  0.00000000000E+00 0.  1.
</event>
<event>
 7    1  0.5329250E-013  0.5052886E+02  0.7816164E-02  0.1300439E+00
        -11   -1    0    0    0    0  0.00000000000E+00  0.00000000000E+00  0.45593999997E+02  0.45594000000E+02  0.51100000000E-03 0.  1.
         11   -1    0    0    0    0 -0.00000000000E+00 -0.00000000000E+00 -0.45593999997E+02  0.45594000000E+02  0.51100000000E-03 0. -1.
    9900012    2    1    2    0    0 -0.30375244644E+02  0.16703289204E+02  0.21248771570E+02  0.50528860183E+02  0.30000001013E+02 0.  0.
         12    1    1    2    0    0  0.30375244644E+02 -0.16703289204E+02 -0.21248771570E+02  0.40659139817E+02  0.00000000000E+00 0. -1.
         11    1    3    3    0    0 -0.14021917798E+02  0.10349349342E+02  0.18802375451E+02  0.25636936896E+02  0.51100000000E-03 0.  1.
        -11    1    3    3    0    0 -0.81440413860E+01  0.69063354961E+01  0.93179452556E+01  0.14172049398E+02  0.51100000000E-03 0. -1.
         12    1    3    3    0    0 -0.82092854591E+01 -0.55239563414E+00 -0.68715491360E+01  0.10719873890E+02  0.00000000000E+00 0. -1.
</event>
<event>
 7    1  0.5329250E-013  0.5052884E+02  0.7816164E-02  0.1300439E+00
        -11   -1    0    0    0    0  0.00000000000E+00  0.00000000000E+00  0.45593999997E+02  0.45594000000E+02  0.51100000000E-03 0.  1.
         11   -1    0    0    0    0 -0.00000000000E+00 -0.00000000000E+00 -0.45593999997E+02  0.45594000000E+02  0.51100000000E-03 0. -1.
    9900012    2    1    2    0    0 -0.31645231777E+01  0.26759813482E+02  0.30447748684E+02  0.50528840830E+02  0.29999942186E+02 0.  0.
         12    1    1    2    0    0  0.31645231777E+01 -0.26759813482E+02 -0.30447748684E+02  0.40659159170E+02  0.00000000000E+00 0. -1.
         11    1    3    3    0    0  0.18116819747E+01 -0.40170362118E+01  0.73512493292E+01  0.85708598440E+01  0.51100000000E-03 0. -1.
        -11    1    3    3    0    0 -0.71517860705E+01  0.80465935966E+01  0.21634364964E+01  0.10980718111E+02  0.51100000000E-03 0.  1.
        -12    1    3    3    0    0  0.21755809181E+01  0.22730256097E+02  0.20933062858E+02  0.30977262874E+02  0.00000000000E+00 0.  1.
</event>
<event>
 7    1  0.5329250E-013  0.5052885E+02  0.7816164E-02  0.1300439E+00
        -11   -1    0    0    0    0  0.00000000000E+00  0.00000000000E+00  0.45593999997E+02  0.45594000000E+02  0.51100000000E-03 0.  1.
         11   -1    0    0    0    0 -0.00000000000E+00 -0.00000000000E+00 -0.45593999997E+02  0.45594000000E+02  0.51100000000E-03 0. -1.
    9900012    2    1    2    0    0 -0.21766103240E+02  0.33612926233E+02  0.70409099837E+01  0.50528850063E+02  0.29999970252E+02 0.  0.
         12    1    1    2    0    0  0.21766103240E+02 -0.33612926233E+02 -0.70409099837E+01  0.40659149937E+02  0.00000000000E+00 0. -1.
         11    1    3    3    0    0  0.40902544630E+01  0.10082969076E+02  0.21888337301E+01  0.11098983752E+02  0.51100000000E-03 0. -1.
        -11    1    3    3    0    0 -0.19682202612E+02  0.22417047434E+02  0.98427772348E+01  0.31413267567E+02  0.51100000000E-03 0.  1.
        -12    1    3    3    0    0 -0.61741550915E+01  0.11129097228E+01 -0.49907009813E+01  0.80165987444E+01  0.00000000000E+00 0.  1.
</event>
<event>
 7    1  0.5329250E-013  0.5052886E+02  0.7816164E-02  0.1300439E+00
        -11   -1    0    0    0    0  0.00000000000E+00  0.00000000000E+00  0.45593999997E+02  0.45594000000E+02  0.51100000000E-03 0. -1.
         11   -1    0    0    0    0 -0.00000000000E+00 -0.00000000000E+00 -0.45593999997E+02  0.45594000000E+02  0.51100000000E-03 0.  1.
    9900012    2    1    2    0    0  0.15840662464E+02 -0.29634379804E+02 -0.22891977546E+02  0.50528859703E+02  0.29999999554E+02 0.  0.
         12    1    1    2    0    0 -0.15840662464E+02  0.29634379804E+02  0.22891977546E+02  0.40659140297E+02  0.00000000000E+00 0. -1.
         11    1    3    3    0    0 -0.45419837575E+01 -0.37246235682E+01 -0.66502674649E+01  0.88729079109E+01  0.51100000000E-03 0. -1.
        -11    1    3    3    0    0  0.59101166162E+01 -0.22696141862E+01 -0.12064278859E+02  0.13624516564E+02  0.51100000000E-03 0.  1.
         12    1    3    3    0    0  0.14472529606E+02 -0.23640142050E+02 -0.41774312224E+01  0.28031435228E+02  0.00000000000E+00 0. -1.
</event>
<event>
 7    1  0.5329250E-013  0.5052885E+02  0.7816164E-02  0.1300439E+00
        -11   -1    0    0    0    0  0.00000000000E+00  0.00000000000E+00  0.45593999997E+02  0.45594000000E+02  0.51100000000E-03 0.  1.
         11   -1    0    0    0    0 -0.00000000000E+00 -0.00000000000E+00 -0.45593999997E+02  0.45594000000E+02  0.51100000000E-03 0. -1.
    9900012    2    1    2    0    0  0.11572836747E+01 -0.13779765658E+02  0.38235388449E+02  0.50528853712E+02  0.29999981341E+02 0.  0.
         12    1    1    2    0    0 -0.11572836747E+01  0.13779765658E+02 -0.38235388449E+02  0.40659146288E+02  0.00000000000E+00 0. -1.
         11    1    3    3    0    0  0.49094438426E+00  0.30710773533E+01 -0.11950192590E+01  0.33317583629E+01  0.51100000000E-03 0. -1.
        -11    1    3    3    0    0  0.52599228092E+01  0.10529373177E+01  0.18554197354E+02  0.19314080477E+02  0.51100000000E-03 0.  1.
        -12    1    3    3    0    0 -0.45935835188E+01 -0.17903780329E+02  0.20876210354E+02  0.27883014872E+02  0.00000000000E+00 0.  1.
</event>
<event>
 7    1  0.5329250E-013  0.5052885E+02  0.7816164E-02  0.1300439E+00
        -11   -1    0    0    0    0  0.00000000000E+00  0.00000000000E+00  0.45593999997E+02  0.45594000000E+02  0.51100000000E-03 0. -1.
         11   -1    0    0    0    0 -0.00000000000E+00 -0.00000000000E+00 -0.45593999997E+02  0.45594000000E+02  0.51100000000E-03 0.  1.
    9900012    2    1    2    0    0 -0.96793404551E+01  0.29104659700E+02 -0.26690734675E+02  0.50528853853E+02  0.29999981771E+02 0.  0.
         12    1    1    2    0    0  0.96793404551E+01 -0.29104659700E+02  0.26690734675E+02  0.40659146147E+02  0.00000000000E+00 0. -1.
         11    1    3    3    0    0  0.71126122391E+01  0.11756463370E+01  0.97511849818E+00  0.72747682795E+01  0.51100000000E-03 0. -1.
        -11    1    3    3    0    0 -0.26180431124E+01  0.75969960065E+01 -0.99457892943E+01  0.12786212223E+02  0.51100000000E-03 0.  1.
        -12    1    3    3    0    0 -0.14173909582E+02  0.20332017357E+02 -0.17720063879E+02  0.30467873350E+02  0.00000000000E+00 0.  1.
</event>
<event>
 7    1  0.5329250E-013  0.5052885E+02  0.7816164E-02  0.1300439E+00
        -11   -1    0    0    0    0  0.00000000000E+00  0.00000000000E+00  0.45593999997E+02  0.45594000000E+02  0.51100000000E-03 0.  1.
         11   -1    0    0    0    0 -0.00000000000E+00 -0.00000000000E+00 -0.45593999997E+02  0.45594000000E+02  0.51100000000E-03 0. -1.
    9900012    2    1    2    0    0 -0.33774159808E+02 -0.21737886059E+02 -0.63195923740E+01  0.50528845940E+02  0.29999957719E+02 0.  0.
         12    1    1    2    0    0  0.33774159808E+02  0.21737886059E+02  0.63195923740E+01  0.40659154060E+02  0.00000000000E+00 0. -1.
         11    1    3    3    0    0  0.31607701385E+01 -0.67862600121E+00  0.24568986448E+01  0.40604620833E+01  0.51100000000E-03 0. -1.
        -11    1    3    3    0    0 -0.23750948699E+02 -0.95066877116E+01 -0.12614352427E+02  0.28523789418E+02  0.51100000000E-03 0.  1.
         12    1    3    3    0    0 -0.13183981248E+02 -0.11552572347E+02  0.38378614084E+01  0.17944594438E+02  0.00000000000E+00 0. -1.
</event>
<event>
 7    1  0.5329250E-013  0.5052885E+02  0.7816164E-02  0.1300439E+00
        -11   -1    0    0    0    0  0.00000000000E+00  0.00000000000E+00  0.45593999997E+02  0.45594000000E+02  0.51100000000E-03 0. -1.
         11   -1    0    0    0    0 -0.00000000000E+00 -0.00000000000E+00 -0.45593999997E+02  0.45594000000E+02  0.51100000000E-03 0.  1.
    9900012    2    1    2    0    0 -0.18586070640E+02 -0.15102215521E+02 -0.32857994990E+02  0.50528846415E+02  0.29999959164E+02 0.  0.
         12    1    1    2    0    0  0.18586070640E+02  0.15102215521E+02  0.32857994990E+02  0.40659153585E+02  0.00000000000E+00 0. -1.
         11    1    3    3    0    0 -0.71662219122E+01  0.45828060852E+01 -0.75100639738E+00  0.85393711115E+01  0.51100000000E-03 0. -1.
        -11    1    3    3    0    0 -0.56651543305E+01 -0.97176708781E+01 -0.45650585112E+01  0.12139475292E+02  0.51100000000E-03 0.  1.
        -12    1    3    3    0    0 -0.57546943975E+01 -0.99673507282E+01 -0.27541930081E+02  0.29850000012E+02  0.00000000000E+00 0.  1.
</event>
<event>
 7    1  0.5329250E-013  0.5052886E+02  0.7816164E-02  0.1300439E+00
        -11   -1    0    0    0    0  0.00000000000E+00  0.00000000000E+00  0.45593999997E+02  0.45594000000E+02  0.51100000000E-03 0. -1.
         11   -1    0    0    0    0 -0.00000000000E+00 -0.00000000000E+00 -0.45593999997E+02  0.45594000000E+02  0.51100000000E-03 0.  1.
    9900012    2    1    2    0    0  0.12713490247E+02 -0.24699702314E+02 -0.29689349963E+02  0.50528860439E+02  0.30000001789E+02 0.  0.
         12    1    1    2    0    0 -0.12713490247E+02  0.24699702314E+02  0.29689349963E+02  0.40659139561E+02  0.00000000000E+00 0. -1.
         11    1    3    3    0    0  0.19141358568E+02 -0.67881222834E+01 -0.15841159422E+02  0.25756796075E+02  0.51100000000E-03 0. -1.
        -11    1    3    3    0    0 -0.13117740526E+01  0.35536467497E+00 -0.19593879757E+01  0.23845831329E+01  0.51100000000E-03 0.  1.
        -12    1    3    3    0    0 -0.51160942679E+01 -0.18266944705E+02 -0.11888802565E+02  0.22387481231E+02  0.00000000000E+00 0.  1.
</event>
<event>
 7    1  0.5329250E-013  0.5052882E+02  0.7816164E-02  0.1300439E+00
        -11   -1    0    0    0    0  0.00000000000E+00  0.00000000000E+00  0.45593999997E+02  0.45594000000E+02  0.51100000000E-03 0. -1.
         11   -1    0    0    0    0 -0.00000000000E+00 -0.00000000000E+00 -0.45593999997E+02  0.45594000000E+02  0.51100000000E-03 0.  1.
    9900012    2    1    2    0    0  0.35853718086E+02 -0.10724648570E+02 -0.15895327199E+02  0.50528823739E+02  0.29999890236E+02 0.  0.
         12    1    1    2    0    0 -0.35853718086E+02  0.10724648570E+02  0.15895327199E+02  0.40659176261E+02  0.00000000000E+00 0. -1.
         11    1    3    3    0    0  0.10856638544E+02  0.28243784686E+01 -0.66895203629E+01  0.13061140729E+02  0.51100000000E-03 0. -1.
        -11    1    3    3    0    0  0.20345711983E+02 -0.10659131588E+02 -0.16547462084E+02  0.28308719221E+02  0.51100000000E-03 0.  1.
         12    1    3    3    0    0  0.46513675591E+01 -0.28898954509E+01  0.73416552480E+01  0.91589637879E+01  0.00000000000E+00 0. -1.
</event>
<event>
 7    1  0.5329250E-013  0.5052886E+02  0.7816164E-02  0.1300439E+00
        -11   -1    0    0    0    0  0.00000000000E+00  0.00000000000E+00  0.45593999997E+02  0.45594000000E+02  0.51100000000E-03 0.  1.
         11   -1    0    0    0    0 -0.00000000000E+00 -0.00000000000E+00 -0.45593999997E+02  0.45594000000E+02  0.51100000000E-03 0. -1.
    9900012    2    1    2    0    0  0.16338978766E+02 -0.36748109192E+02  0.59816365167E+01  0.50528859187E+02  0.29999997984E+02 0.  0.
         12    1    1    2    0    0 -0.16338978766E+02  0.36748109192E+02 -0.59816365167E+01  0.40659140813E+02  0.00000000000E+00 0. -1.
         11    1    3    3    0    0  0.39671694412E+00 -0.26311212588E+01 -0.43676594733E+01  0.51143555750E+01  0.51100000000E-03 0. -1.
        -11    1    3    3    0    0  0.37273011550E+01 -0.29814332700E+02  0.22297289728E+01  0.30129037486E+02  0.51100000000E-03 0.  1.
        -12    1    3    3    0    0  0.12214960667E+02 -0.43026552323E+01  0.81195670171E+01  0.15285466126E+02  0.00000000000E+00 0.  1.
</event>
<event>
 7    1  0.5907863E-013  0.5052886E+02  0.7816164E-02  0.1300439E+00
        -11   -1    0    0    0    0  0.00000000000E+00  0.00000000000E+00  0.45593999997E+02  0.45594000000E+02  0.51100000000E-03 0. -1.
         11   -1    0    0    0    0 -0.00000000000E+00 -0.00000000000E+00 -0.45593999997E+02  0.45594000000E+02  0.51100000000E-03 0.  1.
    9900012    2    1    2    0    0 -0.37386363765E+01 -0.50835921272E+01 -0.40166473464E+02  0.50528857099E+02  0.29999991639E+02 0.  0.
         12    1    1    2    0    0  0.37386363765E+01  0.50835921272E+01  0.40166473464E+02  0.40659142901E+02  0.00000000000E+00 0. -1.
         11    1    3    3    0    0 -0.83093068454E+01 -0.31369713350E+01 -0.23826816535E+02  0.25428376980E+02  0.51100000000E-03 0. -1.
        -11    1    3    3    0    0  0.66786526314E+01 -0.24849692497E+01 -0.19783063815E+02  0.21027341423E+02  0.51100000000E-03 0.  1.
         12    1    3    3    0    0 -0.21079821625E+01  0.53834845754E+00  0.34434068855E+01  0.40731386962E+01  0.00000000000E+00 0. -1.
</event>
<event>
 7    1  0.5329250E-013  0.5052886E+02  0.7816164E-02  0.1300439E+00
        -11   -1    0    0    0    0  0.00000000000E+00  0.00000000000E+00  0.45593999997E+02  0.45594000000E+02  0.51100000000E-03 0.  1.
         11   -1    0    0    0    0 -0.00000000000E+00 -0.00000000000E+00 -0.45593999997E+02  0.45594000000E+02  0.51100000000E-03 0. -1.
    9900012    2    1    2    0    0  0.28226928893E+02 -0.26514769045E+02  0.12384398492E+02  0.50528858122E+02  0.29999994747E+02 0.  0.
         12    1    1    2    0    0 -0.28226928893E+02  0.26514769045E+02 -0.12384398492E+02  0.40659141878E+02  0.00000000000E+00 0. -1.
         11    1    3    3    0    0  0.15221035268E+02 -0.12244515866E+02  0.48351440031E+01  0.20124281384E+02  0.51100000000E-03 0.  1.
        -11    1    3    3    0    0  0.42279390107E+01 -0.12701141881E+02  0.14022049628E+02  0.19385880155E+02  0.51100000000E-03 0. -1.
         12    1    3    3    0    0  0.87779546143E+01 -0.15691112979E+01 -0.64727951388E+01  0.11018696583E+02  0.00000000000E+00 0. -1.
</event>
<event>
 7    1  0.5329250E-013  0.5052887E+02  0.7816164E-02  0.1300439E+00
        -11   -1    0    0    0    0  0.00000000000E+00  0.00000000000E+00  0.45593999997E+02  0.45594000000E+02  0.51100000000E-03 0. -1.
         11   -1    0    0    0    0 -0.00000000000E+00 -0.00000000000E+00 -0.45593999997E+02  0.45594000000E+02  0.51100000000E-03 0.  1.
    9900012    2    1    2    0    0 -0.39355458765E+02  0.95189868032E+01 -0.37015871316E+01  0.50528868287E+02  0.30000025647E+02 0.  0.
         12    1    1    2    0    0  0.39355458765E+02 -0.95189868032E+01  0.37015871316E+01  0.40659131713E+02  0.00000000000E+00 0. -1.
         11    1    3    3    0    0 -0.14220832245E+02  0.93765300198E+01 -0.49551791029E+01  0.17739931938E+02  0.51100000000E-03 0. -1.
        -11    1    3    3    0    0 -0.15856377380E+02  0.88644398716E+01 -0.46517725971E+01  0.18752119518E+02  0.51100000000E-03 0.  1.
        -12    1    3    3    0    0 -0.92782491393E+01 -0.87219830882E+01  0.59053645684E+01  0.14036816832E+02  0.00000000000E+00 0.  1.
</event>
<event>
 7    1  0.5329250E-013  0.5052892E+02  0.7816164E-02  0.1300439E+00
        -11   -1    0    0    0    0  0.00000000000E+00  0.00000000000E+00  0.45593999997E+02  0.45594000000E+02  0.51100000000E-03 0. -1.
         11   -1    0    0    0    0 -0.00000000000E+00 -0.00000000000E+00 -0.45593999997E+02  0.45594000000E+02  0.51100000000E-03 0.  1.
    9900012    2    1    2    0    0  0.18389984812E+02 -0.14446379390E+02 -0.33260655037E+02  0.50528922387E+02  0.30000190086E+02 0.  0.
         12    1    1    2    0    0 -0.18389984812E+02  0.14446379390E+02  0.33260655037E+02  0.40659077613E+02  0.00000000000E+00 0. -1.
         11    1    3    3    0    0  0.73519216992E+01 -0.16005933886E+01 -0.49495981309E+01  0.90061742036E+01  0.51100000000E-03 0. -1.
        -11    1    3    3    0    0  0.29807530626E+00  0.73989470929E+01 -0.79887879349E+01  0.10892841682E+02  0.51100000000E-03 0.  1.
        -12    1    3    3    0    0  0.10739987807E+02 -0.20244733094E+02 -0.20322268972E+02  0.30629906501E+02  0.00000000000E+00 0.  1.
</event>
<event>
 7    1  0.5549881E-013  0.5052886E+02  0.7816164E-02  0.1300439E+00
        -11   -1    0    0    0    0  0.00000000000E+00  0.00000000000E+00  0.45593999997E+02  0.45594000000E+02  0.51100000000E-03 0. -1.
         11   -1    0    0    0    0 -0.00000000000E+00 -0.00000000000E+00 -0.45593999997E+02  0.45594000000E+02  0.51100000000E-03 0.  1.
    9900012    2    1    2    0    0 -0.29036945491E+02 -0.74049677805E+00 -0.28451247650E+02  0.50528855496E+02  0.29999986767E+02 0.  0.
         12    1    1    2    0    0  0.29036945491E+02  0.74049677805E+00  0.28451247650E+02  0.40659144504E+02  0.00000000000E+00 0. -1.
         11    1    3    3    0    0 -0.44133632353E+01  0.37299799738E+01  0.10643997587E+01  0.58756678564E+01  0.51100000000E-03 0. -1.
        -11    1    3    3    0    0 -0.73229902126E+01  0.48600471023E+01 -0.21856457921E+02  0.23557397917E+02  0.51100000000E-03 0.  1.
        -12    1    3    3    0    0 -0.17300592043E+02 -0.93305238542E+01 -0.76591894879E+01  0.21095789723E+02  0.00000000000E+00 0.  1.
</event>
<event>
 7    1  0.5329250E-013  0.5052887E+02  0.7816164E-02  0.1300439E+00
        -11   -1    0    0    0    0  0.00000000000E+00  0.00000000000E+00  0.45593999997E+02  0.45594000000E+02  0.51100000000E-03 0. -1.
         11   -1    0    0    0    0 -0.00000000000E+00 -0.00000000000E+00 -0.45593999997E+02  0.45594000000E+02  0.51100000000E-03 0.  1.
    9900012    2    1    2    0    0  0.19757951696E+02  0.20799728590E+02 -0.28812490196E+02  0.50528868726E+02  0.30000026980E+02 0.  0.
         12    1    1    2    0    0 -0.19757951696E+02 -0.20799728590E+02  0.28812490196E+02  0.40659131274E+02  0.00000000000E+00 0. -1.
         11    1    3    3    0    0  0.16997013818E+01  0.89298720173E+01 -0.14855440013E+01  0.92107784835E+01  0.51100000000E-03 0. -1.
        -11    1    3    3    0    0  0.17248674989E+02  0.15146134445E+02 -0.12551709833E+02  0.26162331652E+02  0.51100000000E-03 0.  1.
        -12    1    3    3    0    0  0.80957532546E+00 -0.32762778722E+01 -0.14775236362E+02  0.15155758590E+02  0.00000000000E+00 0.  1.
</event>
<event>
 7    1  0.5329250E-013  0.5052889E+02  0.7816164E-02  0.1300439E+00
        -11   -1    0    0    0    0  0.00000000000E+00  0.00000000000E+00  0.45593999997E+02  0.45594000000E+02  0.51100000000E-03 0.  1.
         11   -1    0    0    0    0 -0.00000000000E+00 -0.00000000000E+00 -0.45593999997E+02  0.45594000000E+02  0.51100000000E-03 0. -1.
    9900012    2    1    2    0    0  0.93221304766E+01 -0.39575814204E+02 -0.12633169738E+00  0.50528890981E+02  0.30000094624E+02 0.  0.
         12    1    1    2    0    0 -0.93221304766E+01  0.39575814204E+02  0.12633169738E+00  0.40659109019E+02  0.00000000000E+00 0. -1.
         11    1    3    3    0    0  0.42984073098E+01 -0.78019012076E+01 -0.48744352379E+01  0.10154116752E+02  0.51100000000E-03 0. -1.
        -11    1    3    3    0    0  0.12967753375E+01 -0.34356195485E+02  0.84333613408E+00  0.34391001884E+02  0.51100000000E-03 0.  1.
        -12    1    3    3    0    0  0.37269478294E+01  0.25822824888E+01  0.39047674065E+01  0.59837723447E+01  0.00000000000E+00 0.  1.
</event>
<event>
 7    1  0.5329250E-013  0.5052886E+02  0.7816164E-02  0.1300439E+00
        -11   -1    0    0    0    0  0.00000000000E+00  0.00000000000E+00  0.45593999997E+02  0.45594000000E+02  0.51100000000E-03 0.  1.
         11   -1    0    0    0    0 -0.00000000000E+00 -0.00000000000E+00 -0.45593999997E+02  0.45594000000E+02  0.51100000000E-03 0. -1.
    9900012    2    1    2    0    0 -0.15155212328E+02  0.10779319754E+02  0.36156487501E+02  0.50528858550E+02  0.29999996049E+02 0.  0.
         12    1    1    2    0    0  0.15155212328E+02 -0.10779319754E+02 -0.36156487501E+02  0.40659141450E+02  0.00000000000E+00 0. -1.
         11    1    3    3    0    0 -0.10977232098E+01  0.50341706374E+01 -0.38406954089E+01  0.64264151544E+01  0.51100000000E-03 0. -1.
        -11    1    3    3    0    0 -0.51222590025E+00  0.49281192248E+01  0.12275023449E+02  0.13237255584E+02  0.51100000000E-03 0.  1.
        -12    1    3    3    0    0 -0.13545263218E+02  0.81702989232E+00  0.27722159460E+02  0.30865187811E+02  0.00000000000E+00 0.  1.
</event>
<event>
 7    1  0.5329250E-013  0.5052887E+02  0.7816164E-02  0.1300439E+00
        -11   -1    0    0    0    0  0.00000000000E+00  0.00000000000E+00  0.45593999997E+02  0.45594000000E+02  0.51100000000E-03 0.  1.
         11   -1    0    0    0    0 -0.00000000000E+00 -0.00000000000E+00 -0.45593999997E+02  0.45594000000E+02  0.51100000000E-03 0. -1.
    9900012    2    1    2    0    0  0.33873465360E+02  0.34711353701E+01  0.22219459106E+02  0.50528870653E+02  0.30000032837E+02 0.  0.
         12    1    1    2    0    0 -0.33873465360E+02 -0.34711353701E+01 -0.22219459106E+02  0.40659129347E+02  0.00000000000E+00 0. -1.
         11    1    3    3    0    0  0.23265256645E+02  0.12321460609E+02  0.11810201589E+02  0.28854313718E+02  0.51100000000E-03 0. -1.
        -11    1    3    3    0    0  0.11979290640E+02 -0.22623309196E+01  0.56771084358E+01  0.13448089302E+02  0.51100000000E-03 0.  1.
         12    1    3    3    0    0 -0.13710819246E+01 -0.65879943190E+01  0.47321490817E+01  0.82264676333E+01  0.00000000000E+00 0. -1.
</event>
<event>
 7    1  0.5745865E-013  0.5052886E+02  0.7816164E-02  0.1300439E+00
        -11   -1    0    0    0    0  0.00000000000E+00  0.00000000000E+00  0.45593999997E+02  0.45594000000E+02  0.51100000000E-03 0. -1.
         11   -1    0    0    0    0 -0.00000000000E+00 -0.00000000000E+00 -0.45593999997E+02  0.45594000000E+02  0.51100000000E-03 0.  1.
    9900012    2    1    2    0    0 -0.25412199475E+01 -0.35921379623E+02 -0.18877554354E+02  0.50528863619E+02  0.30000011457E+02 0.  0.
         12    1    1    2    0    0  0.25412199475E+01  0.35921379623E+02  0.18877554354E+02  0.40659136381E+02  0.00000000000E+00 0. -1.
         11    1    3    3    0    0 -0.22892776644E+01 -0.73902545057E+01  0.42933631196E+01  0.88481422356E+01  0.51100000000E-03 0. -1.
        -11    1    3    3    0    0 -0.47130560063E+01 -0.23143040269E+02 -0.79345130383E+01  0.24915250495E+02  0.51100000000E-03 0.  1.
         12    1    3    3    0    0  0.44611137231E+01 -0.53880848479E+01 -0.15236404435E+02  0.16765470888E+02  0.00000000000E+00 0. -1.
</event>
<event>
 7    1  0.5329250E-013  0.5052888E+02  0.7816164E-02  0.1300439E+00
        -11   -1    0    0    0    0  0.00000000000E+00  0.00000000000E+00  0.45593999997E+02  0.45594000000E+02  0.51100000000E-03 0.  1.
         11   -1    0    0    0    0 -0.00000000000E+00 -0.00000000000E+00 -0.45593999997E+02  0.45594000000E+02  0.51100000000E-03 0. -1.
    9900012    2    1    2    0    0 -0.98761897359E+01  0.24317605382E+02  0.31052839739E+02  0.50528881576E+02  0.30000066037E+02 0.  0.
         12    1    1    2    0    0  0.98761897359E+01 -0.24317605382E+02 -0.31052839739E+02  0.40659118424E+02  0.00000000000E+00 0. -1.
         11    1    3    3    0    0 -0.41138268856E+01  0.14928619768E+02  0.25228501355E+02  0.29601765838E+02  0.51100000000E-03 0. -1.
        -11    1    3    3    0    0 -0.99071253720E+01  0.83818747539E+01  0.88412061985E+01  0.15702671264E+02  0.51100000000E-03 0.  1.
         12    1    3    3    0    0  0.41447625217E+01  0.10071108599E+01 -0.30168678150E+01  0.52244444737E+01  0.00000000000E+00 0. -1.
</event>
<event>
 7    1  0.5329250E-013  0.5052886E+02  0.7816164E-02  0.1300439E+00
        -11   -1    0    0    0    0  0.00000000000E+00  0.00000000000E+00  0.45593999997E+02  0.45594000000E+02  0.51100000000E-03 0.  1.
         11   -1    0    0    0    0 -0.00000000000E+00 -0.00000000000E+00 -0.45593999997E+02  0.45594000000E+02  0.51100000000E-03 0. -1.
    9900012    2    1    2    0    0 -0.29734273374E+02  0.24793283318E+02  0.12423042352E+02  0.50528857215E+02  0.29999991990E+02 0.  0.
         12    1    1    2    0    0  0.29734273374E+02 -0.24793283318E+02 -0.12423042352E+02  0.40659142785E+02  0.00000000000E+00 0. -1.
         11    1    3    3    0    0 -0.10276149513E+02  0.13398158628E+02 -0.80826660435E+01  0.18720026550E+02  0.51100000000E-03 0. -1.
        -11    1    3    3    0    0 -0.13845380137E+02  0.52025018717E+01  0.81369135076E+01  0.16881052650E+02  0.51100000000E-03 0.  1.
        -12    1    3    3    0    0 -0.56127437236E+01  0.61926228185E+01  0.12368794887E+02  0.14927778014E+02  0.00000000000E+00 0.  1.
</event>
<event>
 7    1  0.5329250E-013  0.5052886E+02  0.7816164E-02  0.1300439E+00
        -11   -1    0    0    0    0  0.00000000000E+00  0.00000000000E+00  0.45593999997E+02  0.45594000000E+02  0.51100000000E-03 0.  1.
         11   -1    0    0    0    0 -0.00000000000E+00 -0.00000000000E+00 -0.45593999997E+02  0.45594000000E+02  0.51100000000E-03 0. -1.
    9900012    2    1    2    0    0 -0.34024809398E+00 -0.14408454295E+02  0.38019025873E+02  0.50528860163E+02  0.30000000953E+02 0.  0.
         12    1    1    2    0    0  0.34024809398E+00  0.14408454295E+02 -0.38019025873E+02  0.40659139837E+02  0.00000000000E+00 0. -1.
         11    1    3    3    0    0  0.53355741086E+01 -0.84765292362E+00  0.11031339682E+02  0.12283213015E+02  0.51100000000E-03 0. -1.
        -11    1    3    3    0    0  0.33573397976E+01 -0.12167955315E+01 -0.29465336213E+01  0.46297281264E+01  0.51100000000E-03 0.  1.
        -12    1    3    3    0    0 -0.90331620002E+01 -0.12344005840E+02  0.29934219812E+02  0.33615919022E+02  0.00000000000E+00 0.  1.
</event>
<event>
 7    1  0.5439710E-013  0.5052886E+02  0.7816164E-02  0.1300439E+00
        -11   -1    0    0    0    0  0.00000000000E+00  0.00000000000E+00  0.45593999997E+02  0.45594000000E+02  0.51100000000E-03 0. -1.
         11   -1    0    0    0    0 -0.00000000000E+00 -0.00000000000E+00 -0.45593999997E+02  0.45594000000E+02  0.51100000000E-03 0.  1.
    9900012    2    1    2    0    0 -0.24203077772E+02  0.21575289308E+02 -0.24533323342E+02  0.50528855437E+02  0.29999986586E+02 0.  0.
         12    1    1    2    0    0  0.24203077772E+02 -0.21575289308E+02  0.24533323342E+02  0.40659144563E+02  0.00000000000E+00 0. -1.
         11    1    3    3    0    0 -0.61572235528E+01 -0.22395997302E+01 -0.82936697016E+01  0.10569397628E+02  0.51100000000E-03 0. -1.
        -11    1    3    3    0    0 -0.16915601435E+02  0.70308792021E+01 -0.30227607362E+01  0.18566311346E+02  0.51100000000E-03 0.  1.
        -12    1    3    3    0    0 -0.11302527845E+01  0.16784009837E+02 -0.13216892904E+02  0.21393146463E+02  0.00000000000E+00 0.  1.
</event>
<event>
 7    1  0.5329250E-013  0.5052882E+02  0.7816164E-02  0.1300439E+00
        -11   -1    0    0    0    0  0.00000000000E+00  0.00000000000E+00  0.45593999997E+02  0.45594000000E+02  0.51100000000E-03 0.  1.
         11   -1    0    0    0    0 -0.00000000000E+00 -0.00000000000E+00 -0.45593999997E+02  0.45594000000E+02  0.51100000000E-03 0. -1.
    9900012    2    1    2    0    0 -0.12610452523E+02  0.43674564906E+01  0.38406652841E+02  0.50528816886E+02  0.29999869406E+02 0.  0.
         12    1    1    2    0    0  0.12610452523E+02 -0.43674564906E+01 -0.38406652841E+02  0.40659183114E+02  0.00000000000E+00 0. -1.
         11    1    3    3    0    0 -0.29407246294E+01 -0.87762673286E+01  0.92576824229E+01  0.13091043261E+02  0.51100000000E-03 0. -1.
        -11    1    3    3    0    0 -0.93588918330E+01  0.76507309292E+00  0.58798925239E+01  0.11079139386E+02  0.51100000000E-03 0.  1.
        -12    1    3    3    0    0 -0.31083606097E+00  0.12378650726E+02  0.23269077894E+02  0.26358634239E+02  0.00000000000E+00 0.  1.
</event>
<event>
 7    1  0.5329250E-013  0.5052886E+02  0.7816164E-02  0.1300439E+00
        -11   -1    0    0    0    0  0.00000000000E+00  0.00000000000E+00  0.45593999997E+02  0.45594000000E+02  0.51100000000E-03 0. -1.
         11   -1    0    0    0    0 -0.00000000000E+00 -0.00000000000E+00 -0.45593999997E+02  0.45594000000E+02  0.51100000000E-03 0.  1.
    9900012    2    1    2    0    0  0.22253803863E+02  0.31884291390E+02  0.11888050987E+02  0.50528861051E+02  0.30000003650E+02 0.  0.
         12    1    1    2    0    0 -0.22253803863E+02 -0.31884291390E+02 -0.11888050987E+02  0.40659138949E+02  0.00000000000E+00 0. -1.
         11    1    3    3    0    0  0.94153460756E+00  0.10282820030E+02 -0.66377097122E+01  0.12275262346E+02  0.51100000000E-03 0.  1.
        -11    1    3    3    0    0  0.13211256486E+00  0.16427141162E+00  0.53657468796E+01  0.53698862803E+01  0.51100000000E-03 0. -1.
        -12    1    3    3    0    0  0.21180156691E+02  0.21437199949E+02  0.13160013820E+02  0.32883712425E+02  0.00000000000E+00 0.  1.
</event>
<event>
 7    1  0.5329250E-013  0.5052886E+02  0.7816164E-02  0.1300439E+00
        -11   -1    0    0    0    0  0.00000000000E+00  0.00000000000E+00  0.45593999997E+02  0.45594000000E+02  0.51100000000E-03 0.  1.
         11   -1    0    0    0    0 -0.00000000000E+00 -0.00000000000E+00 -0.45593999997E+02  0.45594000000E+02  0.51100000000E-03 0. -1.
    9900012    2    1    2    0    0  0.30383381124E+02 -0.60359302069E+01  0.26335976793E+02  0.50528856186E+02  0.29999988864E+02 0.  0.
         12    1    1    2    0    0 -0.30383381124E+02  0.60359302069E+01 -0.26335976793E+02  0.40659143814E+02  0.00000000000E+00 0. -1.
         11    1    3    3    0    0  0.83127054889E+01 -0.93013449785E+01 -0.12830242070E+01  0.12540424328E+02  0.51100000000E-03 0. -1.
        -11    1    3    3    0    0  0.48723407112E+00  0.29894734572E+01  0.12219769787E+00  0.30313827093E+01  0.51100000000E-03 0.  1.
         12    1    3    3    0    0  0.21583441564E+02  0.27594131436E+00  0.27496803302E+02  0.34957049149E+02  0.00000000000E+00 0. -1.
</event>
<event>
 7    1  0.5329250E-013  0.5052886E+02  0.7816164E-02  0.1300439E+00
        -11   -1    0    0    0    0  0.00000000000E+00  0.00000000000E+00  0.45593999997E+02  0.45594000000E+02  0.51100000000E-03 0. -1.
         11   -1    0    0    0    0 -0.00000000000E+00 -0.00000000000E+00 -0.45593999997E+02  0.45594000000E+02  0.51100000000E-03 0.  1.
    9900012    2    1    2    0    0 -0.35316147291E+02 -0.16026995887E+02 -0.12209457073E+02  0.50528859593E+02  0.29999999218E+02 0.  0.
         12    1    1    2    0    0  0.35316147291E+02  0.16026995887E+02  0.12209457073E+02  0.40659140407E+02  0.00000000000E+00 0. -1.
         11    1    3    3    0    0  0.19571843671E+01 -0.67103346869E+01 -0.18435110119E+01  0.72289484276E+01  0.51100000000E-03 0. -1.
        -11    1    3    3    0    0 -0.15881737681E+02 -0.12220310559E+02 -0.19653364425E+01  0.20135245951E+02  0.51100000000E-03 0.  1.
         12    1    3    3    0    0 -0.21391593978E+02  0.29036493592E+01 -0.84006096184E+01  0.23164665214E+02  0.00000000000E+00 0. -1.
</event>
<event>
 7    1  0.5329250E-013  0.5052885E+02  0.7816164E-02  0.1300439E+00
        -11   -1    0    0    0    0  0.00000000000E+00  0.00000000000E+00  0.45593999997E+02  0.45594000000E+02  0.51100000000E-03 0.  1.
         11   -1    0    0    0    0 -0.00000000000E+00 -0.00000000000E+00 -0.45593999997E+02  0.45594000000E+02  0.51100000000E-03 0. -1.
    9900012    2    1    2    0    0  0.22470979410E+02  0.28781186167E+02 -0.17884766561E+02  0.50528850135E+02  0.29999970469E+02 0.  0.
         12    1    1    2    0    0 -0.22470979410E+02 -0.28781186167E+02  0.17884766561E+02  0.40659149865E+02  0.00000000000E+00 0. -1.
         11    1    3    3    0    0  0.78566618905E+01  0.21671435358E+02 -0.12873855177E+02  0.26402923966E+02  0.51100000000E-03 0. -1.
        -11    1    3    3    0    0  0.61387719573E+01  0.11355784112E+02  0.92371444102E+00  0.12941854680E+02  0.51100000000E-03 0.  1.
        -12    1    3    3    0    0  0.84755455623E+01 -0.42460333028E+01 -0.59346258250E+01  0.11184071489E+02  0.00000000000E+00 0.  1.
</event>
<event>
 7    1  0.5329250E-013  0.5052884E+02  0.7816164E-02  0.1300439E+00
        -11   -1    0    0    0    0  0.00000000000E+00  0.00000000000E+00  0.45593999997E+02  0.45594000000E+02  0.51100000000E-03 0.  1.
         11   -1    0    0    0    0 -0.00000000000E+00 -0.00000000000E+00 -0.45593999997E+02  0.45594000000E+02  0.51100000000E-03 0. -1.
    9900012    2    1    2    0    0  0.19837039745E+02 -0.80731663460E+01  0.34561296753E+02  0.50528838745E+02  0.29999935849E+02 0.  0.
         12    1    1    2    0    0 -0.19837039745E+02  0.80731663460E+01 -0.34561296753E+02  0.40659161255E+02  0.00000000000E+00 0. -1.
         11    1    3    3    0    0  0.29591994338E+01  0.12316201256E+01 -0.17211830134E+01  0.36381617129E+01  0.51100000000E-03 0. -1.
        -11    1    3    3    0    0  0.18979725834E+02 -0.74186487699E+00  0.16224407836E+02  0.24980227504E+02  0.51100000000E-03 0.  1.
        -12    1    3    3    0    0 -0.21018855226E+01 -0.85629215946E+01  0.20058071930E+02  0.21910449528E+02  0.00000000000E+00 0.  1.
</event>
<event>
 7    1  0.5329250E-013  0.5052886E+02  0.7816164E-02  0.1300439E+00
        -11   -1    0    0    0    0  0.00000000000E+00  0.00000000000E+00  0.45593999997E+02  0.45594000000E+02  0.51100000000E-03 0.  1.
         11   -1    0    0    0    0 -0.00000000000E+00 -0.00000000000E+00 -0.45593999997E+02  0.45594000000E+02  0.51100000000E-03 0. -1.
    9900012    2    1    2    0    0 -0.13510949455E+02 -0.38317942242E+02  0.15345414660E+01  0.50528864860E+02  0.30000015228E+02 0.  0.
         12    1    1    2    0    0  0.13510949455E+02  0.38317942242E+02 -0.15345414660E+01  0.40659135140E+02  0.00000000000E+00 0. -1.
         11    1    3    3    0    0 -0.46070422170E+01 -0.88201053543E+01  0.14041677690E+02  0.17210107759E+02  0.51100000000E-03 0. -1.
        -11    1    3    3    0    0 -0.18809747639E+01 -0.52867410798E+01 -0.14793989758E+01  0.58031300949E+01  0.51100000000E-03 0.  1.
         12    1    3    3    0    0 -0.70229324739E+01 -0.24211095808E+02 -0.11027737248E+02  0.27515627007E+02  0.00000000000E+00 0. -1.
</event>
<event>
 7    1  0.5329250E-013  0.5052886E+02  0.7816164E-02  0.1300439E+00
        -11   -1    0    0    0    0  0.00000000000E+00  0.00000000000E+00  0.45593999997E+02  0.45594000000E+02  0.51100000000E-03 0.  1.
         11   -1    0    0    0    0 -0.00000000000E+00 -0.00000000000E+00 -0.45593999997E+02  0.45594000000E+02  0.51100000000E-03 0. -1.
    9900012    2    1    2    0    0 -0.28603171633E+02 -0.22083199331E+02  0.18637504862E+02  0.50528859482E+02  0.29999998882E+02 0.  0.
         12    1    1    2    0    0  0.28603171633E+02  0.22083199331E+02 -0.18637504862E+02  0.40659140518E+02  0.00000000000E+00 0. -1.
         11    1    3    3    0    0  0.23983178546E+01 -0.41746045350E+01 -0.25146823788E+01  0.54316552986E+01  0.51100000000E-03 0. -1.
        -11    1    3    3    0    0 -0.14920914768E+02 -0.16121971575E+02  0.18463377902E+02  0.28695783467E+02  0.51100000000E-03 0.  1.
        -12    1    3    3    0    0 -0.16080574720E+02 -0.17866232211E+01  0.26888093380E+01  0.16401420716E+02  0.00000000000E+00 0.  1.
</event>
<event>
 7    1  0.5329250E-013  0.5052885E+02  0.7816164E-02  0.1300439E+00
        -11   -1    0    0    0    0  0.00000000000E+00  0.00000000000E+00  0.45593999997E+02  0.45594000000E+02  0.51100000000E-03 0. -1.
         11   -1    0    0    0    0 -0.00000000000E+00 -0.00000000000E+00 -0.45593999997E+02  0.45594000000E+02  0.51100000000E-03 0.  1.
    9900012    2    1    2    0    0  0.72897967860E+01 -0.12492203655E+02 -0.37999605093E+02  0.50528852486E+02  0.29999977617E+02 0.  0.
         12    1    1    2    0    0 -0.72897967860E+01  0.12492203655E+02  0.37999605093E+02  0.40659147514E+02  0.00000000000E+00 0. -1.
         11    1    3    3    0    0  0.29774036263E+01  0.46929085601E+01 -0.21389348137E+02  0.22099604908E+02  0.51100000000E-03 0. -1.
        -11    1    3    3    0    0  0.24516931054E+01  0.65173016285E+00  0.14958468336E+01  0.29450143122E+01  0.51100000000E-03 0.  1.
        -12    1    3    3    0    0  0.18607000543E+01 -0.17836842378E+02 -0.18106103789E+02  0.25484233266E+02  0.00000000000E+00 0.  1.
</event>
<event>
 7    1  0.5329250E-013  0.5052887E+02  0.7816164E-02  0.1300439E+00
        -11   -1    0    0    0    0  0.00000000000E+00  0.00000000000E+00  0.45593999997E+02  0.45594000000E+02  0.51100000000E-03 0.  1.
         11   -1    0    0    0    0 -0.00000000000E+00 -0.00000000000E+00 -0.45593999997E+02  0.45594000000E+02  0.51100000000E-03 0. -1.
    9900012    2    1    2    0    0  0.32662720583E+01 -0.22061027954E+02  0.33997172321E+02  0.50528865561E+02  0.30000017359E+02 0.  0.
         12    1    1    2    0    0 -0.32662720583E+01  0.22061027954E+02 -0.33997172321E+02  0.40659134439E+02  0.00000000000E+00 0. -1.
         11    1    3    3    0    0 -0.36258591250E+01 -0.26276329863E+01  0.19085617475E+01  0.48676398502E+01  0.51100000000E-03 0. -1.
        -11    1    3    3    0    0  0.61150899396E+01 -0.22160253381E+01 -0.25384993855E+01  0.69820536133E+01  0.51100000000E-03 0.  1.
        -12    1    3    3    0    0  0.77704124376E+00 -0.17217369630E+02  0.34627109958E+02  0.38679172097E+02  0.00000000000E+00 0.  1.
</event>
<event>
 7    1  0.5329250E-013  0.5052887E+02  0.7816164E-02  0.1300439E+00
        -11   -1    0    0    0    0  0.00000000000E+00  0.00000000000E+00  0.45593999997E+02  0.45594000000E+02  0.51100000000E-03 0.  1.
         11   -1    0    0    0    0 -0.00000000000E+00 -0.00000000000E+00 -0.45593999997E+02  0.45594000000E+02  0.51100000000E-03 0. -1.
    9900012    2    1    2    0    0 -0.15450485202E+01 -0.10968787341E+02  0.39121142316E+02  0.50528865150E+02  0.30000016109E+02 0.  0.
         12    1    1    2    0    0  0.15450485202E+01  0.10968787341E+02 -0.39121142316E+02  0.40659134850E+02  0.00000000000E+00 0. -1.
         11    1    3    3    0    0  0.53661543155E+01 -0.23216011380E+01  0.24446989602E+02  0.25136442565E+02  0.51100000000E-03 0.  1.
        -11    1    3    3    0    0 -0.48780028866E+01  0.45735469823E+01  0.80529803763E+01  0.10467222046E+02  0.51100000000E-03 0. -1.
         12    1    3    3    0    0 -0.20331999491E+01 -0.13220733185E+02  0.66211723384E+01  0.14925200538E+02  0.00000000000E+00 0. -1.
</event>
<event>
 7    1  0.5329250E-013  0.5052886E+02  0.7816164E-02  0.1300439E+00
        -11   -1    0    0    0    0  0.00000000000E+00  0.00000000000E+00  0.45593999997E+02  0.45594000000E+02  0.51100000000E-03 0.  1.
         11   -1    0    0    0    0 -0.00000000000E+00 -0.00000000000E+00 -0.45593999997E+02  0.45594000000E+02  0.51100000000E-03 0. -1.
    9900012    2    1    2    0    0 -0.29853963913E+02 -0.17899708648E+02  0.21012073715E+02  0.50528856221E+02  0.29999988971E+02 0.  0.
         12    1    1    2    0    0  0.29853963913E+02  0.17899708648E+02 -0.21012073715E+02  0.40659143779E+02  0.00000000000E+00 0. -1.
         11    1    3    3    0    0 -0.10784041243E+02 -0.55654248378E+01  0.18579905410E+02  0.22191944135E+02  0.51100000000E-03 0. -1.
        -11    1    3    3    0    0 -0.17248448331E+02 -0.14208491745E+02  0.67022973763E+01  0.23330473589E+02  0.51100000000E-03 0.  1.
         12    1    3    3    0    0 -0.18214743384E+01  0.18742079350E+01 -0.42701290712E+01  0.50064384980E+01  0.00000000000E+00 0. -1.
</event>
<event>
 7    1  0.5329250E-013  0.5052887E+02  0.7816164E-02  0.1300439E+00
        -11   -1    0    0    0    0  0.00000000000E+00  0.00000000000E+00  0.45593999997E+02  0.45594000000E+02  0.51100000000E-03 0. -1.
         11   -1    0    0    0    0 -0.00000000000E+00 -0.00000000000E+00 -0.45593999997E+02  0.45594000000E+02  0.51100000000E-03 0.  1.
    9900012    2    1    2    0    0 -0.18067173718E+02 -0.25692922881E+02 -0.25818910143E+02  0.50528866053E+02  0.30000018855E+02 0.  0.
         12    1    1    2    0    0  0.18067173718E+02  0.25692922881E+02  0.25818910143E+02  0.40659133947E+02  0.00000000000E+00 0. -1.
         11    1    3    3    0    0 -0.98329661849E+01 -0.22680798878E+01  0.14206693749E+01  0.10190667893E+02  0.51100000000E-03 0. -1.
        -11    1    3    3    0    0 -0.31436197127E+01 -0.17529273550E+02 -0.78876522769E+01  0.19477495598E+02  0.51100000000E-03 0.  1.
        -12    1    3    3    0    0 -0.50905878206E+01 -0.58955694437E+01 -0.19351927241E+02  0.20860702562E+02  0.00000000000E+00 0.  1.
</event>
<event>
 7    1  0.5329250E-013  0.5052886E+02  0.7816164E-02  0.1300439E+00
        -11   -1    0    0    0    0  0.00000000000E+00  0.00000000000E+00  0.45593999997E+02  0.45594000000E+02  0.51100000000E-03 0.  1.
         11   -1    0    0    0    0 -0.00000000000E+00 -0.00000000000E+00 -0.45593999997E+02  0.45594000000E+02  0.51100000000E-03 0. -1.
    9900012    2    1    2    0    0 -0.30989419824E+01  0.31762124518E+02  0.25193847899E+02  0.50528856290E+02  0.29999989178E+02 0.  0.
         12    1    1    2    0    0  0.30989419824E+01 -0.31762124518E+02 -0.25193847899E+02  0.40659143710E+02  0.00000000000E+00 0. -1.
         11    1    3    3    0    0  0.15083290157E+01 -0.31170780556E+01  0.53061801900E+01  0.63361487114E+01  0.51100000000E-03 0. -1.
        -11    1    3    3    0    0 -0.11511461791E+02  0.20562282195E+02  0.11534788758E+02  0.26236854873E+02  0.51100000000E-03 0.  1.
         12    1    3    3    0    0  0.69041907930E+01  0.14316920378E+02  0.83528789513E+01  0.17955852706E+02  0.00000000000E+00 0. -1.
</event>
<event>
 7    1  0.5329250E-013  0.5052877E+02  0.7816164E-02  0.1300439E+00
        -11   -1    0    0    0    0  0.00000000000E+00  0.00000000000E+00  0.45593999997E+02  0.45594000000E+02  0.51100000000E-03 0. -1.
         11   -1    0    0    0    0 -0.00000000000E+00 -0.00000000000E+00 -0.45593999997E+02  0.45594000000E+02  0.51100000000E-03 0.  1.
    9900012    2    1    2    0    0  0.10767142330E+02  0.30634002690E+02 -0.24470380619E+02  0.50528769777E+02  0.29999726212E+02 0.  0.
         12    1    1    2    0    0 -0.10767142330E+02 -0.30634002690E+02  0.24470380619E+02  0.40659230223E+02  0.00000000000E+00 0. -1.
         11    1    3    3    0    0  0.31466366555E+01  0.30974177156E+01 -0.13416256707E+02  0.14124137603E+02  0.51100000000E-03 0. -1.
        -11    1    3    3    0    0 -0.61255512270E+01  0.42942356580E+01 -0.81309614682E+00  0.75248895890E+01  0.51100000000E-03 0.  1.
        -12    1    3    3    0    0  0.13746056901E+02  0.23242349316E+02 -0.10241027765E+02  0.28879742585E+02  0.00000000000E+00 0.  1.
</event>
<event>
 7    1  0.5329250E-013  0.5052887E+02  0.7816164E-02  0.1300439E+00
        -11   -1    0    0    0    0  0.00000000000E+00  0.00000000000E+00  0.45593999997E+02  0.45594000000E+02  0.51100000000E-03 0.  1.
         11   -1    0    0    0    0 -0.00000000000E+00 -0.00000000000E+00 -0.45593999997E+02  0.45594000000E+02  0.51100000000E-03 0. -1.
    9900012    2    1    2    0    0 -0.25026535170E+02  0.98854130458E+00  0.32029046920E+02  0.50528874049E+02  0.30000043158E+02 0.  0.
         12    1    1    2    0    0  0.25026535170E+02 -0.98854130458E+00 -0.32029046920E+02  0.40659125951E+02  0.00000000000E+00 0. -1.
         11    1    3    3    0    0 -0.60099874263E+01 -0.17725756910E+01  0.15219889867E+02  0.16459253363E+02  0.51100000000E-03 0. -1.
        -11    1    3    3    0    0 -0.17934319138E+02 -0.74005570539E+01  0.10511235505E+02  0.22065677414E+02  0.51100000000E-03 0.  1.
         12    1    3    3    0    0 -0.10822286062E+01  0.10161674049E+02  0.62979215484E+01  0.12003943272E+02  0.00000000000E+00 0. -1.
</event>
<event>
 7    1  0.5329250E-013  0.5052884E+02  0.7816164E-02  0.1300439E+00
        -11   -1    0    0    0    0  0.00000000000E+00  0.00000000000E+00  0.45593999997E+02  0.45594000000E+02  0.51100000000E-03 0. -1.
         11   -1    0    0    0    0 -0.00000000000E+00 -0.00000000000E+00 -0.45593999997E+02  0.45594000000E+02  0.51100000000E-03 0.  1.
    9900012    2    1    2    0    0  0.22705872110E+02  0.33696193457E+02 -0.14755516256E+01  0.50528839478E+02  0.29999938077E+02 0.  0.
         12    1    1    2    0    0 -0.22705872110E+02 -0.33696193457E+02  0.14755516256E+01  0.40659160522E+02  0.00000000000E+00 0. -1.
         11    1    3    3    0    0  0.27494935069E+01  0.53651919748E+01 -0.78094572842E+01  0.98657297148E+01  0.51100000000E-03 0. -1.
        -11    1    3    3    0    0 -0.30284209883E+01  0.55710741071E+01  0.53580097289E+01  0.83015943592E+01  0.51100000000E-03 0.  1.
        -12    1    3    3    0    0  0.22984799591E+02  0.22759927375E+02  0.97589592970E+00  0.32361515404E+02  0.00000000000E+00 0.  1.
</event>
<event>
 7    1  0.6126197E-013  0.5052886E+02  0.7816164E-02  0.1300439E+00
        -11   -1    0    0    0    0  0.00000000000E+00  0.00000000000E+00  0.45593999997E+02  0.45594000000E+02  0.51100000000E-03 0. -1.
         11   -1    0    0    0    0 -0.00000000000E+00 -0.00000000000E+00 -0.45593999997E+02  0.45594000000E+02  0.51100000000E-03 0.  1.
    9900012    2    1    2    0    0  0.14725912425E+02  0.32511548772E+02 -0.19475940182E+02  0.50528861466E+02  0.30000004913E+02 0.  0.
         12    1    1    2    0    0 -0.14725912425E+02 -0.32511548772E+02  0.19475940182E+02  0.40659138534E+02  0.00000000000E+00 0. -1.
         11    1    3    3    0    0  0.18095366109E+01  0.17184310984E+02 -0.78426980988E+00  0.17297110919E+02  0.51100000000E-03 0. -1.
        -11    1    3    3    0    0  0.61349349508E+01 -0.30652509358E+00  0.19685163515E+01  0.64503055254E+01  0.51100000000E-03 0.  1.
        -12    1    3    3    0    0  0.67814408634E+01  0.15633762882E+02 -0.20660186724E+02  0.26781445022E+02  0.00000000000E+00 0.  1.
</event>
<event>
 7    1  0.5329250E-013  0.5052886E+02  0.7816164E-02  0.1300439E+00
        -11   -1    0    0    0    0  0.00000000000E+00  0.00000000000E+00  0.45593999997E+02  0.45594000000E+02  0.51100000000E-03 0.  1.
         11   -1    0    0    0    0 -0.00000000000E+00 -0.00000000000E+00 -0.45593999997E+02  0.45594000000E+02  0.51100000000E-03 0. -1.
    9900012    2    1    2    0    0  0.12161864947E+02 -0.11809664931E+02  0.36956550707E+02  0.50528858532E+02  0.29999995993E+02 0.  0.
         12    1    1    2    0    0 -0.12161864947E+02  0.11809664931E+02 -0.36956550707E+02  0.40659141468E+02  0.00000000000E+00 0. -1.
         11    1    3    3    0    0  0.13654974803E+01 -0.51291179802E+01  0.10700297880E+01  0.54145543337E+01  0.51100000000E-03 0. -1.
        -11    1    3    3    0    0  0.48468221468E+00 -0.73090710637E+01 -0.44883600135E+00  0.73388616747E+01  0.51100000000E-03 0.  1.
        -12    1    3    3    0    0  0.10311685252E+02  0.62852411272E+00  0.36335356920E+02  0.37775442523E+02  0.00000000000E+00 0.  1.
</event>
<event>
 7    1  0.5329250E-013  0.5052887E+02  0.7816164E-02  0.1300439E+00
        -11   -1    0    0    0    0  0.00000000000E+00  0.00000000000E+00  0.45593999997E+02  0.45594000000E+02  0.51100000000E-03 0.  1.
         11   -1    0    0    0    0 -0.00000000000E+00 -0.00000000000E+00 -0.45593999997E+02  0.45594000000E+02  0.51100000000E-03 0. -1.
    9900012    2    1    2    0    0  0.14292383403E+02  0.33821393530E+02  0.17464418780E+02  0.50528870558E+02  0.30000032548E+02 0.  0.
         12    1    1    2    0    0 -0.14292383403E+02 -0.33821393530E+02 -0.17464418780E+02  0.40659129442E+02  0.00000000000E+00 0. -1.
         11    1    3    3    0    0  0.11553103785E+01  0.71739872054E+01  0.76462398015E+01  0.10548261366E+02  0.51100000000E-03 0.  1.
        -11    1    3    3    0    0 -0.82786547183E+00  0.21210908063E+02 -0.13817219767E+01  0.21271980114E+02  0.51100000000E-03 0. -1.
         12    1    3    3    0    0  0.13964938496E+02  0.54364982622E+01  0.11199900955E+02  0.18708629078E+02  0.00000000000E+00 0. -1.
</event>
<event>
 7    1  0.5329250E-013  0.5052885E+02  0.7816164E-02  0.1300439E+00
        -11   -1    0    0    0    0  0.00000000000E+00  0.00000000000E+00  0.45593999997E+02  0.45594000000E+02  0.51100000000E-03 0.  1.
         11   -1    0    0    0    0 -0.00000000000E+00 -0.00000000000E+00 -0.45593999997E+02  0.45594000000E+02  0.51100000000E-03 0. -1.
    9900012    2    1    2    0    0 -0.19092309324E+02  0.12827836529E+02  0.33527557688E+02  0.50528846173E+02  0.29999958429E+02 0.  0.
         12    1    1    2    0    0  0.19092309324E+02 -0.12827836529E+02 -0.33527557688E+02  0.40659153827E+02  0.00000000000E+00 0. -1.
         11    1    3    3    0    0 -0.96610794716E+01  0.62478461014E+01  0.63869903161E+01  0.13159243254E+02  0.51100000000E-03 0. -1.
        -11    1    3    3    0    0 -0.15766420108E+02  0.16448345339E+00  0.21752895108E+02  0.26866252133E+02  0.51100000000E-03 0.  1.
        -12    1    3    3    0    0  0.63351902556E+01  0.64155069741E+01  0.53876722642E+01  0.10503350786E+02  0.00000000000E+00 0.  1.
</event>
<event>
 7    1  0.5329250E-013  0.5052886E+02  0.7816164E-02  0.1300439E+00
        -11   -1    0    0    0    0  0.00000000000E+00  0.00000000000E+00  0.45593999997E+02  0.45594000000E+02  0.51100000000E-03 0. -1.
         11   -1    0    0    0    0 -0.00000000000E+00 -0.00000000000E+00 -0.45593999997E+02  0.45594000000E+02  0.51100000000E-03 0.  1.
    9900012    2    1    2    0    0  0.37269841619E+02  0.15482943619E+02 -0.49399719647E+01  0.50528856374E+02  0.29999989434E+02 0.  0.
         12    1    1    2    0    0 -0.37269841619E+02 -0.15482943619E+02  0.49399719647E+01  0.40659143626E+02  0.00000000000E+00 0. -1.
         11    1    3    3    0    0  0.52011489468E+01  0.18054122190E+00  0.63966369196E+01  0.82463027863E+01  0.51100000000E-03 0. -1.
        -11    1    3    3    0    0  0.19894972408E+02  0.19089008261E+02 -0.49106386197E+01  0.28005616140E+02  0.51100000000E-03 0.  1.
         12    1    3    3    0    0  0.12173720264E+02 -0.37866058632E+01 -0.64259702646E+01  0.14276937447E+02  0.00000000000E+00 0. -1.
</event>
<event>
 7    1  0.5329250E-013  0.5052886E+02  0.7816164E-02  0.1300439E+00
        -11   -1    0    0    0    0  0.00000000000E+00  0.00000000000E+00  0.45593999997E+02  0.45594000000E+02  0.51100000000E-03 0.  1.
         11   -1    0    0    0    0 -0.00000000000E+00 -0.00000000000E+00 -0.45593999997E+02  0.45594000000E+02  0.51100000000E-03 0. -1.
    9900012    2    1    2    0    0  0.47099243663E+01  0.19439653676E+02  0.35398903939E+02  0.50528856838E+02  0.29999990845E+02 0.  0.
         12    1    1    2    0    0 -0.47099243663E+01 -0.19439653676E+02 -0.35398903939E+02  0.40659143162E+02  0.00000000000E+00 0. -1.
         11    1    3    3    0    0 -0.60874353809E+01  0.25206658095E+01  0.64916852936E+01  0.92494650576E+01  0.51100000000E-03 0. -1.
        -11    1    3    3    0    0  0.42712168796E+01 -0.36785658165E+00  0.20562742790E+02  0.21004880467E+02  0.51100000000E-03 0.  1.
         12    1    3    3    0    0  0.65261428676E+01  0.17286844448E+02  0.83444758551E+01  0.20274511314E+02  0.00000000000E+00 0. -1.
</event>
<event>
 7    1  0.5329250E-013  0.5052886E+02  0.7816164E-02  0.1300439E+00
        -11   -1    0    0    0    0  0.00000000000E+00  0.00000000000E+00  0.45593999997E+02  0.45594000000E+02  0.51100000000E-03 0. -1.
         11   -1    0    0    0    0 -0.00000000000E+00 -0.00000000000E+00 -0.45593999997E+02  0.45594000000E+02  0.51100000000E-03 0.  1.
    9900012    2    1    2    0    0  0.25225961198E+01  0.34445923180E+02 -0.21454154219E+02  0.50528857755E+02  0.29999993631E+02 0.  0.
         12    1    1    2    0    0 -0.25225961198E+01 -0.34445923180E+02  0.21454154219E+02  0.40659142245E+02  0.00000000000E+00 0. -1.
         11    1    3    3    0    0  0.10695620007E+01  0.73764655319E+01  0.26181781709E+01  0.79000673296E+01  0.51100000000E-03 0. -1.
        -11    1    3    3    0    0  0.40779128078E+01  0.17681993623E+02 -0.17004907308E+01  0.18225639641E+02  0.51100000000E-03 0.  1.
        -12    1    3    3    0    0 -0.26248786887E+01  0.93874640250E+01 -0.22371841659E+02  0.24403150784E+02  0.00000000000E+00 0.  1.
</event>
<event>
 7    1  0.5329250E-013  0.5052886E+02  0.7816164E-02  0.1300439E+00
        -11   -1    0    0    0    0  0.00000000000E+00  0.00000000000E+00  0.45593999997E+02  0.45594000000E+02  0.51100000000E-03 0.  1.
         11   -1    0    0    0    0 -0.00000000000E+00 -0.00000000000E+00 -0.45593999997E+02  0.45594000000E+02  0.51100000000E-03 0. -1.
    9900012    2    1    2    0    0 -0.56294513373E+00  0.22429911009E+02  0.33907927848E+02  0.50528863437E+02  0.30000010902E+02 0.  0.
         12    1    1    2    0    0  0.56294513373E+00 -0.22429911009E+02 -0.33907927848E+02  0.40659136563E+02  0.00000000000E+00 0. -1.
         11    1    3    3    0    0  0.32148916378E+01  0.59963376592E+01  0.13820441521E+01  0.69427400834E+01  0.51100000000E-03 0. -1.
        -11    1    3    3    0    0  0.16981094852E+01  0.21430154121E+02  0.25739539429E+02  0.33535935529E+02  0.51100000000E-03 0.  1.
         12    1    3    3    0    0 -0.54759462567E+01 -0.49965807709E+01  0.67863442667E+01  0.10050187825E+02  0.00000000000E+00 0. -1.
</event>
<event>
 7    1  0.5329250E-013  0.5052893E+02  0.7816164E-02  0.1300439E+00
        -11   -1    0    0    0    0  0.00000000000E+00  0.00000000000E+00  0.45593999997E+02  0.45594000000E+02  0.51100000000E-03 0. -1.
         11   -1    0    0    0    0 -0.00000000000E+00 -0.00000000000E+00 -0.45593999997E+02  0.45594000000E+02  0.51100000000E-03 0.  1.
    9900012    2    1    2    0    0 -0.41744349591E+01  0.26562904793E+02 -0.30498298333E+02  0.50528929432E+02  0.30000211501E+02 0.  0.
         12    1    1    2    0    0  0.41744349591E+01 -0.26562904793E+02  0.30498298333E+02  0.40659070568E+02  0.00000000000E+00 0. -1.
         11    1    3    3    0    0  0.10172776398E+02  0.88968673465E+01 -0.92125469059E+01  0.16355752779E+02  0.51100000000E-03 0. -1.
        -11    1    3    3    0    0 -0.11503202682E+01 -0.21553483489E+01 -0.42217296754E+01  0.48776802824E+01  0.51100000000E-03 0.  1.
         12    1    3    3    0    0 -0.13196891089E+02  0.19821385795E+02 -0.17064021751E+02  0.29295496370E+02  0.00000000000E+00 0. -1.
</event>
<event>
 7    1  0.5329250E-013  0.5052894E+02  0.7816164E-02  0.1300439E+00
        -11   -1    0    0    0    0  0.00000000000E+00  0.00000000000E+00  0.45593999997E+02  0.45594000000E+02  0.51100000000E-03 0.  1.
         11   -1    0    0    0    0 -0.00000000000E+00 -0.00000000000E+00 -0.45593999997E+02  0.45594000000E+02  0.51100000000E-03 0. -1.
    9900012    2    1    2    0    0  0.24746691708E+01 -0.36296034849E+02  0.18155808875E+02  0.50528935461E+02  0.30000229825E+02 0.  0.
         12    1    1    2    0    0 -0.24746691708E+01  0.36296034849E+02 -0.18155808875E+02  0.40659064539E+02  0.00000000000E+00 0. -1.
         11    1    3    3    0    0  0.34824995430E+01 -0.34372980584E+01  0.14249933354E+01  0.50964131775E+01  0.51100000000E-03 0. -1.
        -11    1    3    3    0    0  0.21215833521E+00 -0.29244051201E+02  0.23597024892E+02  0.37577641302E+02  0.51100000000E-03 0.  1.
         12    1    3    3    0    0 -0.12199887073E+01 -0.36146855898E+01 -0.68662093520E+01  0.78548809809E+01  0.00000000000E+00 0. -1.
</event>
<event>
 7    1  0.5329250E-013  0.5052885E+02  0.7816164E-02  0.1300439E+00
        -11   -1    0    0    0    0  0.00000000000E+00  0.00000000000E+00  0.45593999997E+02  0.45594000000E+02  0.51100000000E-03 0.  1.
         11   -1    0    0    0    0 -0.00000000000E+00 -0.00000000000E+00 -0.45593999997E+02  0.45594000000E+02  0.51100000000E-03 0. -1.
    9900012    2    1    2    0    0 -0.59258303740E+01  0.38615034705E+02  0.11266316500E+02  0.50528852710E+02  0.29999978297E+02 0.  0.
         12    1    1    2    0    0  0.59258303740E+01 -0.38615034705E+02 -0.11266316500E+02  0.40659147290E+02  0.00000000000E+00 0. -1.
         11    1    3    3    0    0 -0.48682262457E+01  0.10576279081E+02 -0.29457553001E+01  0.12009778538E+02  0.51100000000E-03 0. -1.
        -11    1    3    3    0    0  0.84848988726E+01  0.12285352770E+02 -0.51115905608E+00  0.14939366968E+02  0.51100000000E-03 0.  1.
        -12    1    3    3    0    0 -0.95425030008E+01  0.15753402854E+02  0.14723230856E+02  0.23579707205E+02  0.00000000000E+00 0.  1.
</event>
<event>
 7    1  0.5329250E-013  0.5052887E+02  0.7816164E-02  0.1300439E+00
        -11   -1    0    0    0    0  0.00000000000E+00  0.00000000000E+00  0.45593999997E+02  0.45594000000E+02  0.51100000000E-03 0. -1.
         11   -1    0    0    0    0 -0.00000000000E+00 -0.00000000000E+00 -0.45593999997E+02  0.45594000000E+02  0.51100000000E-03 0.  1.
    9900012    2    1    2    0    0 -0.97124675676E+01  0.39346552462E+02 -0.32682986229E+01  0.50528868273E+02  0.30000025602E+02 0.  0.
         12    1    1    2    0    0  0.97124675676E+01 -0.39346552462E+02  0.32682986229E+01  0.40659131727E+02  0.00000000000E+00 0. -1.
         11    1    3    3    0    0  0.30825681152E+01  0.44791297991E+01  0.17571835279E+01  0.57142387204E+01  0.51100000000E-03 0. -1.
        -11    1    3    3    0    0 -0.58966229021E+01  0.30954329138E+02  0.51335721372E+01  0.31926387475E+02  0.51100000000E-03 0.  1.
         12    1    3    3    0    0 -0.68984127807E+01  0.39130935250E+01 -0.10159054288E+02  0.12888242078E+02  0.00000000000E+00 0. -1.
</event>
<event>
 7    1  0.5329250E-013  0.5052886E+02  0.7816164E-02  0.1300439E+00
        -11   -1    0    0    0    0  0.00000000000E+00  0.00000000000E+00  0.45593999997E+02  0.45594000000E+02  0.51100000000E-03 0.  1.
         11   -1    0    0    0    0 -0.00000000000E+00 -0.00000000000E+00 -0.45593999997E+02  0.45594000000E+02  0.51100000000E-03 0. -1.
    9900012    2    1    2    0    0  0.23102735186E+02 -0.17832359090E+02  0.28309649176E+02  0.50528860311E+02  0.30000001402E+02 0.  0.
         12    1    1    2    0    0 -0.23102735186E+02  0.17832359090E+02 -0.28309649176E+02  0.40659139689E+02  0.00000000000E+00 0. -1.
         11    1    3    3    0    0  0.12213062247E+02 -0.10058937096E+02  0.13353229293E+02  0.20703860456E+02  0.51100000000E-03 0. -1.
        -11    1    3    3    0    0  0.24625617053E+01 -0.23780571649E+01  0.18797577626E+02  0.19106760346E+02  0.51100000000E-03 0.  1.
         12    1    3    3    0    0  0.84271112336E+01 -0.53953648287E+01 -0.38411577436E+01  0.10718239510E+02  0.00000000000E+00 0. -1.
</event>
<event>
 7    1  0.5329250E-013  0.5052888E+02  0.7816164E-02  0.1300439E+00
        -11   -1    0    0    0    0  0.00000000000E+00  0.00000000000E+00  0.45593999997E+02  0.45594000000E+02  0.51100000000E-03 0.  1.
         11   -1    0    0    0    0 -0.00000000000E+00 -0.00000000000E+00 -0.45593999997E+02  0.45594000000E+02  0.51100000000E-03 0. -1.
    9900012    2    1    2    0    0  0.31024345548E+02 -0.49895587332E+01  0.25802299892E+02  0.50528875652E+02  0.30000048032E+02 0.  0.
         12    1    1    2    0    0 -0.31024345548E+02  0.49895587332E+01 -0.25802299892E+02  0.40659124348E+02  0.00000000000E+00 0. -1.
         11    1    3    3    0    0 -0.12803298475E+00  0.59684490958E+01  0.85758229720E+00  0.60311047672E+01  0.51100000000E-03 0. -1.
        -11    1    3    3    0    0  0.69109277298E+01  0.26300351112E+01  0.11386350447E+02  0.13576707389E+02  0.51100000000E-03 0.  1.
         12    1    3    3    0    0  0.24241450803E+02 -0.13588042940E+02  0.13558367148E+02  0.30921063496E+02  0.00000000000E+00 0. -1.
</event>
<event>
 7    1  0.5329250E-013  0.5052886E+02  0.7816164E-02  0.1300439E+00
        -11   -1    0    0    0    0  0.00000000000E+00  0.00000000000E+00  0.45593999997E+02  0.45594000000E+02  0.51100000000E-03 0.  1.
         11   -1    0    0    0    0 -0.00000000000E+00 -0.00000000000E+00 -0.45593999997E+02  0.45594000000E+02  0.51100000000E-03 0. -1.
    9900012    2    1    2    0    0  0.68447943519E+01  0.39375022139E+02 -0.74781165566E+01  0.50528858280E+02  0.29999995227E+02 0.  0.
         12    1    1    2    0    0 -0.68447943519E+01 -0.39375022139E+02  0.74781165566E+01  0.40659141720E+02  0.00000000000E+00 0. -1.
         11    1    3    3    0    0  0.40617230076E+00 -0.10969897067E+01  0.38823919438E+01  0.40547909713E+01  0.51100000000E-03 0. -1.
        -11    1    3    3    0    0 -0.16505314714E+01  0.51238213339E+01  0.43831680902E+01  0.69418990174E+01  0.51100000000E-03 0.  1.
        -12    1    3    3    0    0  0.80891535225E+01  0.35348190512E+02 -0.15743676591E+02  0.39532168291E+02  0.00000000000E+00 0.  1.
</event>
<event>
 7    1  0.5329250E-013  0.5052886E+02  0.7816164E-02  0.1300439E+00
        -11   -1    0    0    0    0  0.00000000000E+00  0.00000000000E+00  0.45593999997E+02  0.45594000000E+02  0.51100000000E-03 0.  1.
         11   -1    0    0    0    0 -0.00000000000E+00 -0.00000000000E+00 -0.45593999997E+02  0.45594000000E+02  0.51100000000E-03 0. -1.
    9900012    2    1    2    0    0  0.16765412219E+02  0.17832387121E+02  0.32466796063E+02  0.50528856823E+02  0.29999990799E+02 0.  0.
         12    1    1    2    0    0 -0.16765412219E+02 -0.17832387121E+02 -0.32466796063E+02  0.40659143177E+02  0.00000000000E+00 0. -1.
         11    1    3    3    0    0  0.54685676348E+01  0.34695812790E+01  0.65786883522E+01  0.92315961201E+01  0.51100000000E-03 0.  1.
        -11    1    3    3    0    0 -0.42126455700E+01  0.81018762013E+01  0.22430530163E+02  0.24218081351E+02  0.51100000000E-03 0. -1.
         12    1    3    3    0    0  0.15509490155E+02  0.62609296412E+01  0.34575775474E+01  0.17079179352E+02  0.00000000000E+00 0. -1.
</event>
<event>
 7    1  0.5329250E-013  0.5052886E+02  0.7816164E-02  0.1300439E+00
        -11   -1    0    0    0    0  0.00000000000E+00  0.00000000000E+00  0.45593999997E+02  0.45594000000E+02  0.51100000000E-03 0.  1.
         11   -1    0    0    0    0 -0.00000000000E+00 -0.00000000000E+00 -0.45593999997E+02  0.45594000000E+02  0.51100000000E-03 0. -1.
    9900012    2    1    2    0    0 -0.30716784964E+01  0.76606285380E+01  0.39812629065E+02  0.50528857468E+02  0.29999992759E+02 0.  0.
         12    1    1    2    0    0  0.30716784964E+01 -0.76606285380E+01 -0.39812629065E+02  0.40659142532E+02  0.00000000000E+00 0. -1.
         11    1    3    3    0    0  0.92628538344E+01 -0.37098743553E+01  0.10019223502E+02  0.14140313601E+02  0.51100000000E-03 0. -1.
        -11    1    3    3    0    0 -0.63354092415E+01  0.89229956508E+01  0.77422310451E+01  0.13405200612E+02  0.51100000000E-03 0.  1.
        -12    1    3    3    0    0 -0.59991230892E+01  0.24475072424E+01  0.22051174518E+02  0.22983343254E+02  0.00000000000E+00 0.  1.
</event>
<event>
 7    1  0.5329250E-013  0.5052888E+02  0.7816164E-02  0.1300439E+00
        -11   -1    0    0    0    0  0.00000000000E+00  0.00000000000E+00  0.45593999997E+02  0.45594000000E+02  0.51100000000E-03 0.  1.
         11   -1    0    0    0    0 -0.00000000000E+00 -0.00000000000E+00 -0.45593999997E+02  0.45594000000E+02  0.51100000000E-03 0. -1.
    9900012    2    1    2    0    0  0.33972291721E+01 -0.13837491216E+02  0.38080787707E+02  0.50528883906E+02  0.30000073120E+02 0.  0.
         12    1    1    2    0    0 -0.33972291721E+01  0.13837491216E+02 -0.38080787707E+02  0.40659116094E+02  0.00000000000E+00 0. -1.
         11    1    3    3    0    0  0.18731030342E+01 -0.66072033961E+01  0.64855001142E+00  0.68981351880E+01  0.51100000000E-03 0. -1.
        -11    1    3    3    0    0  0.76572099394E+01 -0.10092816852E+02  0.33471459232E+02  0.35788774769E+02  0.51100000000E-03 0.  1.
         12    1    3    3    0    0 -0.61330838015E+01  0.28625290324E+01  0.39607784633E+01  0.78419739487E+01  0.00000000000E+00 0. -1.
</event>
<event>
 7    1  0.5329250E-013  0.5052893E+02  0.7816164E-02  0.1300439E+00
        -11   -1    0    0    0    0  0.00000000000E+00  0.00000000000E+00  0.45593999997E+02  0.45594000000E+02  0.51100000000E-03 0. -1.
         11   -1    0    0    0    0 -0.00000000000E+00 -0.00000000000E+00 -0.45593999997E+02  0.45594000000E+02  0.51100000000E-03 0.  1.
    9900012    2    1    2    0    0 -0.13599765088E+02 -0.38718743401E+01 -0.38121055573E+02  0.50528930909E+02  0.30000215990E+02 0.  0.
         12    1    1    2    0    0  0.13599765088E+02  0.38718743401E+01  0.38121055573E+02  0.40659069091E+02  0.00000000000E+00 0. -1.
         11    1    3    3    0    0  0.19480014539E+01 -0.31446870287E+01  0.13903185644E+01  0.39518036571E+01  0.51100000000E-03 0. -1.
        -11    1    3    3    0    0 -0.14794626049E+02 -0.35061472069E+01 -0.13277680303E+02  0.20185906535E+02  0.51100000000E-03 0.  1.
        -12    1    3    3    0    0 -0.75314049288E+00  0.27789598955E+01 -0.26233693835E+02  0.26391220717E+02  0.00000000000E+00 0.  1.
</event>
<event>
 7    1  0.5329250E-013  0.5052885E+02  0.7816164E-02  0.1300439E+00
        -11   -1    0    0    0    0  0.00000000000E+00  0.00000000000E+00  0.45593999997E+02  0.45594000000E+02  0.51100000000E-03 0.  1.
         11   -1    0    0    0    0 -0.00000000000E+00 -0.00000000000E+00 -0.45593999997E+02  0.45594000000E+02  0.51100000000E-03 0. -1.
    9900012    2    1    2    0    0  0.10029757917E+02 -0.45320993888E+01  0.39141161071E+02  0.50528850246E+02  0.29999970807E+02 0.  0.
         12    1    1    2    0    0 -0.10029757917E+02  0.45320993888E+01 -0.39141161071E+02  0.40659149754E+02  0.00000000000E+00 0. -1.
         11    1    3    3    0    0 -0.58580878810E+01 -0.17706836269E+00  0.90406838356E+00  0.59300831976E+01  0.51100000000E-03 0. -1.
        -11    1    3    3    0    0  0.81565525209E-01 -0.58722858219E+01  0.17636885815E+02  0.18588978865E+02  0.51100000000E-03 0.  1.
        -12    1    3    3    0    0  0.15806280272E+02  0.15172547957E+01  0.20600206873E+02  0.26009788184E+02  0.00000000000E+00 0.  1.
</event>
<event>
 7    1  0.5329250E-013  0.5052887E+02  0.7816164E-02  0.1300439E+00
        -11   -1    0    0    0    0  0.00000000000E+00  0.00000000000E+00  0.45593999997E+02  0.45594000000E+02  0.51100000000E-03 0.  1.
         11   -1    0    0    0    0 -0.00000000000E+00 -0.00000000000E+00 -0.45593999997E+02  0.45594000000E+02  0.51100000000E-03 0. -1.
    9900012    2    1    2    0    0 -0.40771450009E+01 -0.74324731290E+01  0.39765562270E+02  0.50528871740E+02  0.30000036141E+02 0.  0.
         12    1    1    2    0    0  0.40771450009E+01  0.74324731290E+01 -0.39765562270E+02  0.40659128260E+02  0.00000000000E+00 0. -1.
         11    1    3    3    0    0 -0.53568399991E+01 -0.56046552115E+01  0.11625588534E+02  0.13973625293E+02  0.51100000000E-03 0.  1.
        -11    1    3    3    0    0  0.39622566327E+01 -0.11823071855E+02  0.11518468787E+02  0.16975265216E+02  0.51100000000E-03 0. -1.
         12    1    3    3    0    0 -0.26825616345E+01  0.99952539374E+01  0.16621504950E+02  0.19579981231E+02  0.00000000000E+00 0. -1.
</event>
<event>
 7    1  0.5329250E-013  0.5052883E+02  0.7816164E-02  0.1300439E+00
        -11   -1    0    0    0    0  0.00000000000E+00  0.00000000000E+00  0.45593999997E+02  0.45594000000E+02  0.51100000000E-03 0.  1.
         11   -1    0    0    0    0 -0.00000000000E+00 -0.00000000000E+00 -0.45593999997E+02  0.45594000000E+02  0.51100000000E-03 0. -1.
    9900012    2    1    2    0    0 -0.73426183007E+01 -0.10509528479E+02  0.38585017869E+02  0.50528833305E+02  0.29999919314E+02 0.  0.
         12    1    1    2    0    0  0.73426183007E+01  0.10509528479E+02 -0.38585017869E+02  0.40659166695E+02  0.00000000000E+00 0. -1.
         11    1    3    3    0    0 -0.32030182750E+01  0.14970200488E+01 -0.40898714748E+01  0.54062412116E+01  0.51100000000E-03 0. -1.
        -11    1    3    3    0    0  0.64941049471E+00  0.62695767965E-01  0.91150847059E+01  0.91384043578E+01  0.51100000000E-03 0.  1.
        -12    1    3    3    0    0 -0.47890105204E+01 -0.12069244296E+02  0.33559804638E+02  0.35984187736E+02  0.00000000000E+00 0.  1.
</event>
<event>
 7    1  0.5329250E-013  0.5052887E+02  0.7816164E-02  0.1300439E+00
        -11   -1    0    0    0    0  0.00000000000E+00  0.00000000000E+00  0.45593999997E+02  0.45594000000E+02  0.51100000000E-03 0. -1.
         11   -1    0    0    0    0 -0.00000000000E+00 -0.00000000000E+00 -0.45593999997E+02  0.45594000000E+02  0.51100000000E-03 0.  1.
    9900012    2    1    2    0    0  0.85728811935E+01 -0.37778672557E+02 -0.12346765998E+02  0.50528867905E+02  0.30000024484E+02 0.  0.
         12    1    1    2    0    0 -0.85728811935E+01  0.37778672557E+02  0.12346765998E+02  0.40659132095E+02  0.00000000000E+00 0. -1.
         11    1    3    3    0    0  0.77396959682E+00  0.21504675032E+01  0.39558441949E+00  0.23194884593E+01  0.51100000000E-03 0. -1.
        -11    1    3    3    0    0  0.13289057244E+02 -0.20107488937E+02 -0.13504091734E+02  0.27627353250E+02  0.51100000000E-03 0.  1.
         12    1    3    3    0    0 -0.54901456475E+01 -0.19821651123E+02  0.76174131629E+00  0.20582026196E+02  0.00000000000E+00 0. -1.
</event>
<event>
 7    1  0.5329250E-013  0.5052886E+02  0.7816164E-02  0.1300439E+00
        -11   -1    0    0    0    0  0.00000000000E+00  0.00000000000E+00  0.45593999997E+02  0.45594000000E+02  0.51100000000E-03 0.  1.
         11   -1    0    0    0    0 -0.00000000000E+00 -0.00000000000E+00 -0.45593999997E+02  0.45594000000E+02  0.51100000000E-03 0. -1.
    9900012    2    1    2    0    0  0.14442984733E+02 -0.33187007795E+02  0.18525335063E+02  0.50528864083E+02  0.30000012866E+02 0.  0.
         12    1    1    2    0    0 -0.14442984733E+02  0.33187007795E+02 -0.18525335063E+02  0.40659135917E+02  0.00000000000E+00 0. -1.
         11    1    3    3    0    0  0.85902187477E+01 -0.64900341598E+00 -0.30195746603E+01  0.91285757355E+01  0.51100000000E-03 0. -1.
        -11    1    3    3    0    0  0.74519014381E+01 -0.11839036650E+02  0.50083274123E+01  0.14858565461E+02  0.51100000000E-03 0.  1.
         12    1    3    3    0    0 -0.15991354529E+01 -0.20698967729E+02  0.16536582311E+02  0.26541722886E+02  0.00000000000E+00 0. -1.
</event>
<event>
 7    1  0.5329250E-013  0.5052888E+02  0.7816164E-02  0.1300439E+00
        -11   -1    0    0    0    0  0.00000000000E+00  0.00000000000E+00  0.45593999997E+02  0.45594000000E+02  0.51100000000E-03 0.  1.
         11   -1    0    0    0    0 -0.00000000000E+00 -0.00000000000E+00 -0.45593999997E+02  0.45594000000E+02  0.51100000000E-03 0. -1.
    9900012    2    1    2    0    0 -0.20079389863E+01  0.38585904430E+02  0.12659400129E+02  0.50528877392E+02  0.30000053320E+02 0.  0.
         12    1    1    2    0    0  0.20079389863E+01 -0.38585904430E+02 -0.12659400129E+02  0.40659122608E+02  0.00000000000E+00 0. -1.
         11    1    3    3    0    0 -0.89793300404E+01  0.21757613345E+02 -0.10074496176E+01  0.23559224551E+02  0.51100000000E-03 0. -1.
        -11    1    3    3    0    0  0.10167523788E+02  0.11425341939E+02  0.46552714846E+01  0.15987136431E+02  0.51100000000E-03 0.  1.
        -12    1    3    3    0    0 -0.31961327338E+01  0.54029491456E+01  0.90115782623E+01  0.10982516410E+02  0.00000000000E+00 0.  1.
</event>
<event>
 7    1  0.5329250E-013  0.5052886E+02  0.7816164E-02  0.1300439E+00
        -11   -1    0    0    0    0  0.00000000000E+00  0.00000000000E+00  0.45593999997E+02  0.45594000000E+02  0.51100000000E-03 0.  1.
         11   -1    0    0    0    0 -0.00000000000E+00 -0.00000000000E+00 -0.45593999997E+02  0.45594000000E+02  0.51100000000E-03 0. -1.
    9900012    2    1    2    0    0 -0.17577133869E+02  0.12688073849E+02  0.34398007820E+02  0.50528858407E+02  0.29999995615E+02 0.  0.
         12    1    1    2    0    0  0.17577133869E+02 -0.12688073849E+02 -0.34398007820E+02  0.40659141593E+02  0.00000000000E+00 0. -1.
         11    1    3    3    0    0 -0.43555480003E+01  0.72377243603E+01 -0.20915725239E+00  0.84498046910E+01  0.51100000000E-03 0. -1.
        -11    1    3    3    0    0 -0.59804620766E+01 -0.65790185162E+01  0.78444997483E+01  0.11856879347E+02  0.51100000000E-03 0.  1.
        -12    1    3    3    0    0 -0.72411237924E+01  0.12029368005E+02  0.26762665324E+02  0.30222174370E+02  0.00000000000E+00 0.  1.
</event>
<event>
 7    1  0.5329250E-013  0.5052886E+02  0.7816164E-02  0.1300439E+00
        -11   -1    0    0    0    0  0.00000000000E+00  0.00000000000E+00  0.45593999997E+02  0.45594000000E+02  0.51100000000E-03 0.  1.
         11   -1    0    0    0    0 -0.00000000000E+00 -0.00000000000E+00 -0.45593999997E+02  0.45594000000E+02  0.51100000000E-03 0. -1.
    9900012    2    1    2    0    0  0.15404781876E+02  0.25415042302E+02  0.27747690721E+02  0.50528855638E+02  0.29999987199E+02 0.  0.
         12    1    1    2    0    0 -0.15404781876E+02 -0.25415042302E+02 -0.27747690721E+02  0.40659144362E+02  0.00000000000E+00 0. -1.
         11    1    3    3    0    0 -0.18250012297E+00 -0.52592331466E+00 -0.22420409102E+01  0.23101188999E+01  0.51100000000E-03 0. -1.
        -11    1    3    3    0    0  0.16914491513E+02  0.16784189581E+02  0.30787753194E+02  0.38931925074E+02  0.51100000000E-03 0.  1.
         12    1    3    3    0    0 -0.13272095140E+01  0.91567760364E+01 -0.79802156259E+00  0.92868116643E+01  0.00000000000E+00 0. -1.
</event>
<event>
 7    1  0.5329250E-013  0.5052886E+02  0.7816164E-02  0.1300439E+00
        -11   -1    0    0    0    0  0.00000000000E+00  0.00000000000E+00  0.45593999997E+02  0.45594000000E+02  0.51100000000E-03 0.  1.
         11   -1    0    0    0    0 -0.00000000000E+00 -0.00000000000E+00 -0.45593999997E+02  0.45594000000E+02  0.51100000000E-03 0. -1.
    9900012    2    1    2    0    0 -0.31779072092E+02  0.22845237542E+02  0.11015966853E+02  0.50528858013E+02  0.29999994416E+02 0.  0.
         12    1    1    2    0    0  0.31779072092E+02 -0.22845237542E+02 -0.11015966853E+02  0.40659141987E+02  0.00000000000E+00 0. -1.
         11    1    3    3    0    0 -0.10100957468E+02  0.11933193614E+02  0.14106473631E+02  0.21057612641E+02  0.51100000000E-03 0. -1.
        -11    1    3    3    0    0 -0.14309124721E+02  0.28570918353E+01  0.54853303035E+01  0.15588549414E+02  0.51100000000E-03 0.  1.
         12    1    3    3    0    0 -0.73689899038E+01  0.80549520928E+01 -0.85758370807E+01  0.13882695958E+02  0.00000000000E+00 0. -1.
</event>
