<event>
 7    1  0.3622165E-015  0.9000789E+02  0.7816164E-02  0.1186339E+00
        -11   -1    0    0    0    0  0.00000000000E+00  0.00000000000E+00  0.45593999997E+02  0.45594000000E+02  0.51100000000E-03 0.  1.
         11   -1    0    0    0    0 -0.00000000000E+00 -0.00000000000E+00 -0.45593999997E+02  0.45594000000E+02  0.51100000000E-03 0. -1.
    9900012    2    1    2    0    0 -0.61922397462E+00 -0.18665527255E+00 -0.98710350089E+00  0.90007893292E+02  0.90000156683E+02 0.  0.
        -12    1    1    2    0    0  0.61922397462E+00  0.18665527255E+00  0.98710350089E+00  0.11801067083E+01  0.00000000000E+00 0.  1.
         11    1    3    3    0    0 -0.72946159140E+01  0.12663354566E+01  0.20373955552E+00  0.74065198905E+01  0.51100000000E-03 0. -1.
        -11    1    3    3    0    0 -0.17335304411E+02 -0.33711101796E+02  0.12821559049E+02  0.40016790726E+02  0.51100000000E-03 0.  1.
         12    1    3    3    0    0  0.24010696350E+02  0.32258111067E+02 -0.14012402105E+02  0.42584582675E+02  0.00000000000E+00 0. -1.
</event>
<event>
 7    1  0.3622165E-015  0.9000776E+02  0.7816164E-02  0.1186339E+00
        -11   -1    0    0    0    0  0.00000000000E+00  0.00000000000E+00  0.45593999997E+02  0.45594000000E+02  0.51100000000E-03 0.  1.
         11   -1    0    0    0    0 -0.00000000000E+00 -0.00000000000E+00 -0.45593999997E+02  0.45594000000E+02  0.51100000000E-03 0. -1.
    9900012    2    1    2    0    0 -0.80391844068E+00  0.67243941087E+00 -0.54267993993E+00  0.90007762254E+02  0.90000023915E+02 0.  0.
        -12    1    1    2    0    0  0.80391844068E+00 -0.67243941087E+00  0.54267993993E+00  0.11802377463E+01  0.00000000000E+00 0.  1.
         11    1    3    3    0    0  0.58177768167E+01  0.15861921291E+01 -0.11808431184E+02  0.13259018812E+02  0.51100000000E-03 0. -1.
        -11    1    3    3    0    0  0.28335420775E+02  0.64975324773E+01 -0.14700792663E+02  0.32576483911E+02  0.51100000000E-03 0.  1.
         12    1    3    3    0    0 -0.34957116032E+02 -0.74112851956E+01  0.25966543908E+02  0.44172259531E+02  0.00000000000E+00 0. -1.
</event>
<event>
 7    1  0.3622165E-015  0.9000777E+02  0.7816164E-02  0.1186339E+00
        -11   -1    0    0    0    0  0.00000000000E+00  0.00000000000E+00  0.45593999997E+02  0.45594000000E+02  0.51100000000E-03 0.  1.
         11   -1    0    0    0    0 -0.00000000000E+00 -0.00000000000E+00 -0.45593999997E+02  0.45594000000E+02  0.51100000000E-03 0. -1.
    9900012    2    1    2    0    0 -0.11532354482E+01 -0.11057340057E+00  0.22532830092E+00  0.90007766413E+02  0.90000028130E+02 0.  0.
        -12    1    1    2    0    0  0.11532354482E+01  0.11057340057E+00 -0.22532830092E+00  0.11802335866E+01  0.00000000000E+00 0.  1.
         11    1    3    3    0    0  0.42508943313E+01 -0.71739671778E+01 -0.67128405839E+01  0.10705051922E+02  0.51100000000E-03 0. -1.
        -11    1    3    3    0    0  0.36485457917E+02  0.12015542573E+01  0.43397600450E+00  0.36507817074E+02  0.51100000000E-03 0.  1.
         12    1    3    3    0    0 -0.41889587697E+02  0.58618395199E+01  0.65041928803E+01  0.42794897418E+02  0.00000000000E+00 0. -1.
</event>
<event>
 7    1  0.3622165E-015  0.9000768E+02  0.7816164E-02  0.1186339E+00
        -11   -1    0    0    0    0  0.00000000000E+00  0.00000000000E+00  0.45593999997E+02  0.45594000000E+02  0.51100000000E-03 0.  1.
         11   -1    0    0    0    0 -0.00000000000E+00 -0.00000000000E+00 -0.45593999997E+02  0.45594000000E+02  0.51100000000E-03 0. -1.
    9900012    2    1    2    0    0 -0.44202986303E-01 -0.11022364755E+01 -0.41985219709E+00  0.90007680120E+02  0.89999940697E+02 0.  0.
        -12    1    1    2    0    0  0.44202986303E-01  0.11022364755E+01  0.41985219709E+00  0.11803198801E+01  0.00000000000E+00 0.  1.
         11    1    3    3    0    0 -0.65631955987E+01  0.53127156522E+01  0.55266397776E+01  0.10091790305E+02  0.51100000000E-03 0. -1.
        -11    1    3    3    0    0 -0.85221851527E+01  0.26872580647E+02  0.20467746499E+02  0.34838080852E+02  0.51100000000E-03 0.  1.
         12    1    3    3    0    0  0.15041177765E+02 -0.33287532775E+02 -0.26414238473E+02  0.45077808963E+02  0.00000000000E+00 0. -1.
</event>
<event>
 7    1  0.3622165E-015  0.9000770E+02  0.7816164E-02  0.1186339E+00
        -11   -1    0    0    0    0  0.00000000000E+00  0.00000000000E+00  0.45593999997E+02  0.45594000000E+02  0.51100000000E-03 0. -1.
         11   -1    0    0    0    0 -0.00000000000E+00 -0.00000000000E+00 -0.45593999997E+02  0.45594000000E+02  0.51100000000E-03 0.  1.
    9900012    2    1    2    0    0  0.47006078292E+00 -0.12815176837E+00  0.10750449241E+01  0.90007702748E+02  0.89999963624E+02 0.  0.
        -12    1    1    2    0    0 -0.47006078292E+00  0.12815176837E+00 -0.10750449241E+01  0.11802972525E+01  0.00000000000E+00 0.  1.
         11    1    3    3    0    0  0.25536059058E+02  0.26390351755E+02  0.14712173460E+02  0.39559942191E+02  0.51100000000E-03 0. -1.
        -11    1    3    3    0    0  0.44583577414E+01 -0.93027814211E+01  0.50606743944E+01  0.11490392574E+02  0.51100000000E-03 0.  1.
        -12    1    3    3    0    0 -0.29524356017E+02 -0.17215722102E+02 -0.18697802930E+02  0.38957367982E+02  0.00000000000E+00 0.  1.
</event>
<event>
 7    1  0.3622165E-015  0.9000779E+02  0.7816164E-02  0.1186339E+00
        -11   -1    0    0    0    0  0.00000000000E+00  0.00000000000E+00  0.45593999997E+02  0.45594000000E+02  0.51100000000E-03 0.  1.
         11   -1    0    0    0    0 -0.00000000000E+00 -0.00000000000E+00 -0.45593999997E+02  0.45594000000E+02  0.51100000000E-03 0. -1.
    9900012    2    1    2    0    0  0.10650230272E+01 -0.37780436637E+00  0.34042112602E+00  0.90007789540E+02  0.90000051562E+02 0.  0.
        -12    1    1    2    0    0 -0.10650230272E+01  0.37780436637E+00 -0.34042112602E+00  0.11802104603E+01  0.00000000000E+00 0.  1.
         11    1    3    3    0    0  0.73960083757E+01  0.37686921392E+01 -0.40121995716E+01  0.92196380622E+01  0.51100000000E-03 0. -1.
        -11    1    3    3    0    0  0.35649401256E+02 -0.11829077387E+02  0.62079594716E+01  0.38070272429E+02  0.51100000000E-03 0.  1.
         12    1    3    3    0    0 -0.41980386604E+02  0.76825808818E+01 -0.18553387739E+01  0.42717879049E+02  0.00000000000E+00 0. -1.
</event>
<event>
 7    1  0.3622165E-015  0.9000770E+02  0.7816164E-02  0.1186339E+00
        -11   -1    0    0    0    0  0.00000000000E+00  0.00000000000E+00  0.45593999997E+02  0.45594000000E+02  0.51100000000E-03 0.  1.
         11   -1    0    0    0    0 -0.00000000000E+00 -0.00000000000E+00 -0.45593999997E+02  0.45594000000E+02  0.51100000000E-03 0. -1.
    9900012    2    1    2    0    0  0.23064962418E-01 -0.87143241413E+00 -0.79572792280E+00  0.90007699457E+02  0.89999960290E+02 0.  0.
        -12    1    1    2    0    0 -0.23064962418E-01  0.87143241413E+00  0.79572792280E+00  0.11803005431E+01  0.00000000000E+00 0.  1.
         11    1    3    3    0    0  0.21882114404E+02  0.27162459331E+02  0.99801831173E+00  0.34894443232E+02  0.51100000000E-03 0. -1.
        -11    1    3    3    0    0  0.37207489992E+01  0.88743023384E+01  0.26692919537E+01  0.99861070945E+01  0.51100000000E-03 0.  1.
        -12    1    3    3    0    0 -0.25579798441E+02 -0.36908194083E+02 -0.44630381882E+01  0.45127149130E+02  0.00000000000E+00 0.  1.
</event>
<event>
 7    1  0.3622165E-015  0.9000772E+02  0.7816164E-02  0.1186339E+00
        -11   -1    0    0    0    0  0.00000000000E+00  0.00000000000E+00  0.45593999997E+02  0.45594000000E+02  0.51100000000E-03 0.  1.
         11   -1    0    0    0    0 -0.00000000000E+00 -0.00000000000E+00 -0.45593999997E+02  0.45594000000E+02  0.51100000000E-03 0. -1.
    9900012    2    1    2    0    0  0.33102600588E-01 -0.95501537936E-01 -0.11759436791E+01  0.90007720430E+02  0.89999981540E+02 0.  0.
        -12    1    1    2    0    0 -0.33102600588E-01  0.95501537936E-01  0.11759436791E+01  0.11802795696E+01  0.00000000000E+00 0.  1.
         11    1    3    3    0    0  0.18119360613E+02  0.33814215435E+02 -0.43229841405E+01  0.38605706658E+02  0.51100000000E-03 0. -1.
        -11    1    3    3    0    0  0.50239642704E+01  0.92642282621E+00  0.78158459144E+01  0.93373402991E+01  0.51100000000E-03 0.  1.
        -12    1    3    3    0    0 -0.23110222282E+02 -0.34836139799E+02 -0.46688054529E+01  0.42064673473E+02  0.00000000000E+00 0.  1.
</event>
<event>
 7    1  0.3622165E-015  0.9000782E+02  0.7816164E-02  0.1186339E+00
        -11   -1    0    0    0    0  0.00000000000E+00  0.00000000000E+00  0.45593999997E+02  0.45594000000E+02  0.51100000000E-03 0. -1.
         11   -1    0    0    0    0 -0.00000000000E+00 -0.00000000000E+00 -0.45593999997E+02  0.45594000000E+02  0.51100000000E-03 0.  1.
    9900012    2    1    2    0    0 -0.27594553450E+00 -0.11104032768E+01 -0.28929442737E+00  0.90007816692E+02  0.90000079072E+02 0.  0.
        -12    1    1    2    0    0  0.27594553450E+00  0.11104032768E+01  0.28929442737E+00  0.11801833082E+01  0.00000000000E+00 0.  1.
         11    1    3    3    0    0  0.94482442929E+01 -0.63223347460E+01  0.70905328255E+01  0.13398391428E+02  0.51100000000E-03 0. -1.
        -11    1    3    3    0    0 -0.30317613006E+01  0.39698121119E+02  0.31432968301E+01  0.39937610247E+02  0.51100000000E-03 0.  1.
         12    1    3    3    0    0 -0.66924285268E+01 -0.34486189650E+02 -0.10523124083E+02  0.36671815017E+02  0.00000000000E+00 0. -1.
</event>
<event>
 7    1  0.3622165E-015  0.9000773E+02  0.7816164E-02  0.1186339E+00
        -11   -1    0    0    0    0  0.00000000000E+00  0.00000000000E+00  0.45593999997E+02  0.45594000000E+02  0.51100000000E-03 0.  1.
         11   -1    0    0    0    0 -0.00000000000E+00 -0.00000000000E+00 -0.45593999997E+02  0.45594000000E+02  0.51100000000E-03 0. -1.
    9900012    2    1    2    0    0  0.57296250127E+00  0.62425944999E+00 -0.82160909075E+00  0.90007734188E+02  0.89999995479E+02 0.  0.
        -12    1    1    2    0    0 -0.57296250127E+00 -0.62425944999E+00  0.82160909075E+00  0.11802658119E+01  0.00000000000E+00 0.  1.
         11    1    3    3    0    0 -0.16883628782E+02 -0.21432185233E+02 -0.28218127803E+02  0.39251219365E+02  0.51100000000E-03 0. -1.
        -11    1    3    3    0    0 -0.36448909561E+00 -0.78771401975E+01  0.53660527049E+01  0.95381713072E+01  0.51100000000E-03 0.  1.
        -12    1    3    3    0    0  0.17821080379E+02  0.29933584880E+02  0.22030466007E+02  0.41218343516E+02  0.00000000000E+00 0.  1.
</event>
<event>
 7    1  0.3622165E-015  0.9000775E+02  0.7816164E-02  0.1186339E+00
        -11   -1    0    0    0    0  0.00000000000E+00  0.00000000000E+00  0.45593999997E+02  0.45594000000E+02  0.51100000000E-03 0.  1.
         11   -1    0    0    0    0 -0.00000000000E+00 -0.00000000000E+00 -0.45593999997E+02  0.45594000000E+02  0.51100000000E-03 0. -1.
    9900012    2    1    2    0    0 -0.35026717337E+00 -0.11265248777E+01  0.35361420168E-01  0.90007747560E+02  0.90000009028E+02 0.  0.
        -12    1    1    2    0    0  0.35026717337E+00  0.11265248777E+01 -0.35361420168E-01  0.11802524403E+01  0.00000000000E+00 0.  1.
         11    1    3    3    0    0 -0.44627913014E+01  0.18196792760E+02 -0.31296075999E+02  0.36475802200E+02  0.51100000000E-03 0. -1.
        -11    1    3    3    0    0  0.37253538422E+01  0.93647367270E+01 -0.12075610890E+01  0.10150603886E+02  0.51100000000E-03 0.  1.
        -12    1    3    3    0    0  0.38717028590E+00 -0.28688054364E+02  0.32538998509E+02  0.43381341473E+02  0.00000000000E+00 0.  1.
</event>
<event>
 7    1  0.3622165E-015  0.9000763E+02  0.7816164E-02  0.1186339E+00
        -11   -1    0    0    0    0  0.00000000000E+00  0.00000000000E+00  0.45593999997E+02  0.45594000000E+02  0.51100000000E-03 0.  1.
         11   -1    0    0    0    0 -0.00000000000E+00 -0.00000000000E+00 -0.45593999997E+02  0.45594000000E+02  0.51100000000E-03 0. -1.
    9900012    2    1    2    0    0  0.98223882039E+00  0.64637160722E+00 -0.10334642165E+00  0.90007631482E+02  0.89999891418E+02 0.  0.
        -12    1    1    2    0    0 -0.98223882039E+00 -0.64637160722E+00  0.10334642165E+00  0.11803685178E+01  0.00000000000E+00 0.  1.
         11    1    3    3    0    0 -0.73334595140E+01  0.15444316104E-01 -0.57677137828E+01  0.93298654606E+01  0.51100000000E-03 0. -1.
        -11    1    3    3    0    0 -0.29574098484E+02 -0.34537046723E+01 -0.18965401976E+02  0.35302150777E+02  0.51100000000E-03 0.  1.
         12    1    3    3    0    0  0.37889796819E+02  0.40846319635E+01  0.24629769337E+02  0.45375615245E+02  0.00000000000E+00 0. -1.
</event>
<event>
 7    1  0.3622165E-015  0.9000776E+02  0.7816164E-02  0.1186339E+00
        -11   -1    0    0    0    0  0.00000000000E+00  0.00000000000E+00  0.45593999997E+02  0.45594000000E+02  0.51100000000E-03 0.  1.
         11   -1    0    0    0    0 -0.00000000000E+00 -0.00000000000E+00 -0.45593999997E+02  0.45594000000E+02  0.51100000000E-03 0. -1.
    9900012    2    1    2    0    0 -0.55320197681E+00 -0.10377398680E+01 -0.10016351399E+00  0.90007758842E+02  0.90000020459E+02 0.  0.
        -12    1    1    2    0    0  0.55320197681E+00  0.10377398680E+01  0.10016351399E+00  0.11802411577E+01  0.00000000000E+00 0.  1.
         11    1    3    3    0    0  0.28271973670E+01 -0.46416005166E+01  0.11606127293E+02  0.12815603431E+02  0.51100000000E-03 0. -1.
        -11    1    3    3    0    0 -0.38512066439E+01  0.27007866176E+02  0.22759721571E+02  0.35528320453E+02  0.51100000000E-03 0.  1.
         12    1    3    3    0    0  0.47080730009E+00 -0.23404005527E+02 -0.34466012378E+02  0.41663834958E+02  0.00000000000E+00 0. -1.
</event>
<event>
 7    1  0.3622165E-015  0.9000775E+02  0.7816164E-02  0.1186339E+00
        -11   -1    0    0    0    0  0.00000000000E+00  0.00000000000E+00  0.45593999997E+02  0.45594000000E+02  0.51100000000E-03 0.  1.
         11   -1    0    0    0    0 -0.00000000000E+00 -0.00000000000E+00 -0.45593999997E+02  0.45594000000E+02  0.51100000000E-03 0. -1.
    9900012    2    1    2    0    0 -0.39226135079E+00  0.10470288324E+01  0.37794811683E+00  0.90007752940E+02  0.90000014479E+02 0.  0.
        -12    1    1    2    0    0  0.39226135079E+00 -0.10470288324E+01 -0.37794811683E+00  0.11802470598E+01  0.00000000000E+00 0.  1.
         11    1    3    3    0    0  0.12625876192E+02 -0.61792955919E-01 -0.13848186656E+01  0.12701743620E+02  0.51100000000E-03 0. -1.
        -11    1    3    3    0    0 -0.24647888365E+02  0.24713076565E+01  0.34537433509E+02  0.42502471411E+02  0.51100000000E-03 0.  1.
         12    1    3    3    0    0  0.11629750822E+02 -0.13624858682E+01 -0.32774666727E+02  0.34803537909E+02  0.00000000000E+00 0. -1.
</event>
<event>
 7    1  0.3622165E-015  0.9000788E+02  0.7816164E-02  0.1186339E+00
        -11   -1    0    0    0    0  0.00000000000E+00  0.00000000000E+00  0.45593999997E+02  0.45594000000E+02  0.51100000000E-03 0.  1.
         11   -1    0    0    0    0 -0.00000000000E+00 -0.00000000000E+00 -0.45593999997E+02  0.45594000000E+02  0.51100000000E-03 0. -1.
    9900012    2    1    2    0    0 -0.69269529849E+00 -0.76160962535E+00 -0.57689950622E+00  0.90007877533E+02  0.90000140716E+02 0.  0.
        -12    1    1    2    0    0  0.69269529849E+00  0.76160962535E+00  0.57689950622E+00  0.11801224675E+01  0.00000000000E+00 0.  1.
         11    1    3    3    0    0  0.86874989637E+01  0.28105520664E+01  0.43324204358E+01  0.10106518107E+02  0.51100000000E-03 0. -1.
        -11    1    3    3    0    0  0.20863755207E+02  0.28671249566E+02 -0.36790530391E+00  0.35460854298E+02  0.51100000000E-03 0.  1.
         12    1    3    3    0    0 -0.30243949469E+02 -0.32243411258E+02 -0.45414146381E+01  0.44440505127E+02  0.00000000000E+00 0. -1.
</event>
<event>
 7    1  0.3622165E-015  0.9000771E+02  0.7816164E-02  0.1186339E+00
        -11   -1    0    0    0    0  0.00000000000E+00  0.00000000000E+00  0.45593999997E+02  0.45594000000E+02  0.51100000000E-03 0.  1.
         11   -1    0    0    0    0 -0.00000000000E+00 -0.00000000000E+00 -0.45593999997E+02  0.45594000000E+02  0.51100000000E-03 0. -1.
    9900012    2    1    2    0    0 -0.11651336732E+01 -0.18824843057E+00 -0.10964115617E-01  0.90007705901E+02  0.89999966819E+02 0.  0.
        -12    1    1    2    0    0  0.11651336732E+01  0.18824843057E+00  0.10964115617E-01  0.11802940989E+01  0.00000000000E+00 0.  1.
         11    1    3    3    0    0 -0.35028210188E+02  0.87814289293E+01 -0.85275302607E+01  0.37105360470E+02  0.51100000000E-03 0. -1.
        -11    1    3    3    0    0 -0.86256441860E+01 -0.90796918879E+00 -0.63991224351E+00  0.86968749337E+01  0.51100000000E-03 0.  1.
        -12    1    3    3    0    0  0.42488720701E+02 -0.80617081711E+01  0.91564783886E+01  0.44205470497E+02  0.00000000000E+00 0.  1.
</event>
<event>
 7    1  0.3622165E-015  0.9000781E+02  0.7816164E-02  0.1186339E+00
        -11   -1    0    0    0    0  0.00000000000E+00  0.00000000000E+00  0.45593999997E+02  0.45594000000E+02  0.51100000000E-03 0.  1.
         11   -1    0    0    0    0 -0.00000000000E+00 -0.00000000000E+00 -0.45593999997E+02  0.45594000000E+02  0.51100000000E-03 0. -1.
    9900012    2    1    2    0    0  0.40236809365E-01  0.10687861081E+01 -0.49891274263E+00  0.90007814985E+02  0.90000077342E+02 0.  0.
        -12    1    1    2    0    0 -0.40236809365E-01 -0.10687861081E+01  0.49891274263E+00  0.11801850154E+01  0.00000000000E+00 0.  1.
         11    1    3    3    0    0 -0.31792306980E+01 -0.55803719611E+01 -0.63607747737E+01  0.90392209309E+01  0.51100000000E-03 0. -1.
        -11    1    3    3    0    0 -0.36584541670E+02  0.12256949962E+02 -0.60250148599E+01  0.39050765881E+02  0.51100000000E-03 0.  1.
         12    1    3    3    0    0  0.39804009177E+02 -0.56077918929E+01  0.11886876891E+02  0.41917828173E+02  0.00000000000E+00 0. -1.
</event>
<event>
 7    1  0.3622165E-015  0.9000763E+02  0.7816164E-02  0.1186339E+00
        -11   -1    0    0    0    0  0.00000000000E+00  0.00000000000E+00  0.45593999997E+02  0.45594000000E+02  0.51100000000E-03 0.  1.
         11   -1    0    0    0    0 -0.00000000000E+00 -0.00000000000E+00 -0.45593999997E+02  0.45594000000E+02  0.51100000000E-03 0. -1.
    9900012    2    1    2    0    0  0.10423891025E+01 -0.41946343737E+00 -0.36157892072E+00  0.90007633984E+02  0.89999893952E+02 0.  0.
        -12    1    1    2    0    0 -0.10423891025E+01  0.41946343737E+00  0.36157892072E+00  0.11803660162E+01  0.00000000000E+00 0.  1.
         11    1    3    3    0    0 -0.31276907024E+01 -0.36363418827E+01  0.62574546459E+01  0.78842355574E+01  0.51100000000E-03 0. -1.
        -11    1    3    3    0    0 -0.29276972760E+01  0.40260075104E+02  0.89042031749E+01  0.41336786198E+02  0.51100000000E-03 0.  1.
         12    1    3    3    0    0  0.70977770809E+01 -0.37043196659E+02 -0.15523236741E+02  0.40786612229E+02  0.00000000000E+00 0. -1.
</event>
<event>
 7    1  0.3622165E-015  0.9000787E+02  0.7816164E-02  0.1186339E+00
        -11   -1    0    0    0    0  0.00000000000E+00  0.00000000000E+00  0.45593999997E+02  0.45594000000E+02  0.51100000000E-03 0.  1.
         11   -1    0    0    0    0 -0.00000000000E+00 -0.00000000000E+00 -0.45593999997E+02  0.45594000000E+02  0.51100000000E-03 0. -1.
    9900012    2    1    2    0    0 -0.81065029599E+00 -0.70744989690E+00  0.48484614564E+00  0.90007866514E+02  0.90000129552E+02 0.  0.
        -12    1    1    2    0    0  0.81065029599E+00  0.70744989690E+00 -0.48484614564E+00  0.11801334857E+01  0.00000000000E+00 0.  1.
         11    1    3    3    0    0 -0.11860190458E+02 -0.30297089980E+02 -0.19666596325E+02  0.38017795704E+02  0.51100000000E-03 0. -1.
        -11    1    3    3    0    0  0.14553919800E+02 -0.25271628920E+01  0.10981671168E+02  0.18406526988E+02  0.51100000000E-03 0.  1.
        -12    1    3    3    0    0 -0.35043796384E+01  0.32116802975E+02  0.91697713020E+01  0.33583543823E+02  0.00000000000E+00 0.  1.
</event>
<event>
 7    1  0.3622165E-015  0.9000779E+02  0.7816164E-02  0.1186339E+00
        -11   -1    0    0    0    0  0.00000000000E+00  0.00000000000E+00  0.45593999997E+02  0.45594000000E+02  0.51100000000E-03 0.  1.
         11   -1    0    0    0    0 -0.00000000000E+00 -0.00000000000E+00 -0.45593999997E+02  0.45594000000E+02  0.51100000000E-03 0. -1.
    9900012    2    1    2    0    0 -0.12272359260E+00  0.18193979481E+00 -0.11596301993E+01  0.90007785880E+02  0.90000047854E+02 0.  0.
        -12    1    1    2    0    0  0.12272359260E+00 -0.18193979481E+00  0.11596301993E+01  0.11802141197E+01  0.00000000000E+00 0.  1.
         11    1    3    3    0    0 -0.11059244202E+02 -0.31731308870E+02  0.20448620880E+02  0.39336102261E+02  0.51100000000E-03 0. -1.
        -11    1    3    3    0    0  0.84285395408E+01 -0.20416943087E+01  0.24149233308E+01  0.90022580165E+01  0.51100000000E-03 0.  1.
        -12    1    3    3    0    0  0.25079810686E+01  0.33954942973E+02 -0.24023174410E+02  0.41669425603E+02  0.00000000000E+00 0.  1.
</event>
<event>
 7    1  0.3622165E-015  0.9000775E+02  0.7816164E-02  0.1186339E+00
        -11   -1    0    0    0    0  0.00000000000E+00  0.00000000000E+00  0.45593999997E+02  0.45594000000E+02  0.51100000000E-03 0.  1.
         11   -1    0    0    0    0 -0.00000000000E+00 -0.00000000000E+00 -0.45593999997E+02  0.45594000000E+02  0.51100000000E-03 0. -1.
    9900012    2    1    2    0    0 -0.32854622630E+00 -0.55086387033E-01 -0.11322649706E+01  0.90007745326E+02  0.90000006764E+02 0.  0.
        -12    1    1    2    0    0  0.32854622630E+00  0.55086387033E-01  0.11322649706E+01  0.11802546744E+01  0.00000000000E+00 0.  1.
         11    1    3    3    0    0 -0.19739713809E+02 -0.51966897897E+01 -0.33404882070E+02  0.39147771742E+02  0.51100000000E-03 0. -1.
        -11    1    3    3    0    0  0.52043233221E+01  0.16175202384E+01 -0.70445129506E+01  0.89065434336E+01  0.51100000000E-03 0.  1.
        -12    1    3    3    0    0  0.14206844260E+02  0.35240831642E+01  0.39317130050E+02  0.41953430150E+02  0.00000000000E+00 0.  1.
</event>
<event>
 7    1  0.3622165E-015  0.9000776E+02  0.7816164E-02  0.1186339E+00
        -11   -1    0    0    0    0  0.00000000000E+00  0.00000000000E+00  0.45593999997E+02  0.45594000000E+02  0.51100000000E-03 0.  1.
         11   -1    0    0    0    0 -0.00000000000E+00 -0.00000000000E+00 -0.45593999997E+02  0.45594000000E+02  0.51100000000E-03 0. -1.
    9900012    2    1    2    0    0  0.10376518150E+01 -0.14891494383E+00  0.54228896329E+00  0.90007756691E+02  0.90000018279E+02 0.  0.
        -12    1    1    2    0    0 -0.10376518150E+01  0.14891494383E+00 -0.54228896329E+00  0.11802433094E+01  0.00000000000E+00 0.  1.
         11    1    3    3    0    0  0.38472936972E+00 -0.78917504950E+01 -0.92864692086E+00  0.79555092815E+01  0.51100000000E-03 0. -1.
        -11    1    3    3    0    0 -0.40507569435E+02  0.35734500591E+01  0.10831719509E+01  0.40679306638E+02  0.51100000000E-03 0.  1.
         12    1    3    3    0    0  0.41160491880E+02  0.41693854921E+01  0.38776393322E+00  0.41372940771E+02  0.00000000000E+00 0. -1.
</event>
<event>
 7    1  0.3622165E-015  0.9000779E+02  0.7816164E-02  0.1186339E+00
        -11   -1    0    0    0    0  0.00000000000E+00  0.00000000000E+00  0.45593999997E+02  0.45594000000E+02  0.51100000000E-03 0.  1.
         11   -1    0    0    0    0 -0.00000000000E+00 -0.00000000000E+00 -0.45593999997E+02  0.45594000000E+02  0.51100000000E-03 0. -1.
    9900012    2    1    2    0    0 -0.36249240210E+00  0.10673007156E+01  0.34980953968E+00  0.90007788886E+02  0.90000050899E+02 0.  0.
        -12    1    1    2    0    0  0.36249240210E+00 -0.10673007156E+01 -0.34980953968E+00  0.11802111138E+01  0.00000000000E+00 0.  1.
         11    1    3    3    0    0  0.87714783221E+01 -0.33219766450E+01  0.24258958729E+01  0.96881025919E+01  0.51100000000E-03 0. -1.
        -11    1    3    3    0    0 -0.24595250886E+02 -0.12397056199E+02  0.30146363171E+02  0.40834012554E+02  0.51100000000E-03 0.  1.
         12    1    3    3    0    0  0.15461280162E+02  0.16786333560E+02 -0.32222449505E+02  0.39485673740E+02  0.00000000000E+00 0. -1.
</event>
<event>
 7    1  0.3622165E-015  0.9000774E+02  0.7816164E-02  0.1186339E+00
        -11   -1    0    0    0    0  0.00000000000E+00  0.00000000000E+00  0.45593999997E+02  0.45594000000E+02  0.51100000000E-03 0.  1.
         11   -1    0    0    0    0 -0.00000000000E+00 -0.00000000000E+00 -0.45593999997E+02  0.45594000000E+02  0.51100000000E-03 0. -1.
    9900012    2    1    2    0    0 -0.19295119229E+00 -0.14876084913E-01 -0.11642835667E+01  0.90007742535E+02  0.90000003936E+02 0.  0.
        -12    1    1    2    0    0  0.19295119229E+00  0.14876084913E-01  0.11642835667E+01  0.11802574652E+01  0.00000000000E+00 0.  1.
         11    1    3    3    0    0  0.61897849811E+01  0.98922088355E+01  0.52394033511E+01  0.12791426093E+02  0.51100000000E-03 0. -1.
        -11    1    3    3    0    0 -0.20627435997E+02  0.26346778433E+01  0.29800697898E+02  0.36338880536E+02  0.51100000000E-03 0.  1.
         12    1    3    3    0    0  0.14244699823E+02 -0.12541762764E+02 -0.36204384816E+02  0.40877435905E+02  0.00000000000E+00 0. -1.
</event>
<event>
 7    1  0.3622165E-015  0.9000785E+02  0.7816164E-02  0.1186339E+00
        -11   -1    0    0    0    0  0.00000000000E+00  0.00000000000E+00  0.45593999997E+02  0.45594000000E+02  0.51100000000E-03 0.  1.
         11   -1    0    0    0    0 -0.00000000000E+00 -0.00000000000E+00 -0.45593999997E+02  0.45594000000E+02  0.51100000000E-03 0. -1.
    9900012    2    1    2    0    0  0.41928804602E+00 -0.86470610794E+00  0.68500294376E+00  0.90007852487E+02  0.90000115340E+02 0.  0.
        -12    1    1    2    0    0 -0.41928804602E+00  0.86470610794E+00 -0.68500294376E+00  0.11801475127E+01  0.00000000000E+00 0.  1.
         11    1    3    3    0    0  0.88419822690E+01  0.19171802549E+01  0.31377004759E+01  0.95760845397E+01  0.51100000000E-03 0. -1.
        -11    1    3    3    0    0 -0.25568485223E-01  0.14918787646E+02  0.35065020588E+02  0.38106778238E+02  0.51100000000E-03 0.  1.
         12    1    3    3    0    0 -0.83971257377E+01 -0.17700674009E+02 -0.37517718120E+02  0.42324989710E+02  0.00000000000E+00 0. -1.
</event>
<event>
 7    1  0.3622165E-015  0.9000760E+02  0.7816164E-02  0.1186339E+00
        -11   -1    0    0    0    0  0.00000000000E+00  0.00000000000E+00  0.45593999997E+02  0.45594000000E+02  0.51100000000E-03 0. -1.
         11   -1    0    0    0    0 -0.00000000000E+00 -0.00000000000E+00 -0.45593999997E+02  0.45594000000E+02  0.51100000000E-03 0.  1.
    9900012    2    1    2    0    0 -0.10814255100E+01  0.34657067243E+00  0.32210570330E+00  0.90007599878E+02  0.89999859396E+02 0.  0.
        -12    1    1    2    0    0  0.10814255100E+01 -0.34657067243E+00 -0.32210570330E+00  0.11804001223E+01  0.00000000000E+00 0.  1.
         11    1    3    3    0    0 -0.75362693512E+01  0.32880277640E+01 -0.18662841169E+01  0.84314588878E+01  0.51100000000E-03 0. -1.
        -11    1    3    3    0    0 -0.25333527044E+01  0.38536950549E+02 -0.33963645290E+01  0.38769185262E+02  0.51100000000E-03 0.  1.
         12    1    3    3    0    0  0.89881965457E+01 -0.41478407641E+02  0.55847543492E+01  0.42806955728E+02  0.00000000000E+00 0. -1.
</event>
<event>
 7    1  0.3622165E-015  0.9000766E+02  0.7816164E-02  0.1186339E+00
        -11   -1    0    0    0    0  0.00000000000E+00  0.00000000000E+00  0.45593999997E+02  0.45594000000E+02  0.51100000000E-03 0.  1.
         11   -1    0    0    0    0 -0.00000000000E+00 -0.00000000000E+00 -0.45593999997E+02  0.45594000000E+02  0.51100000000E-03 0. -1.
    9900012    2    1    2    0    0  0.61821354007E+00  0.18882661735E+00 -0.98759771416E+00  0.90007664151E+02  0.89999924517E+02 0.  0.
        -12    1    1    2    0    0 -0.61821354007E+00 -0.18882661735E+00  0.98759771416E+00  0.11803358495E+01  0.00000000000E+00 0.  1.
         11    1    3    3    0    0  0.10567178380E+02  0.28829406722E+02 -0.18766065225E+02  0.35985624285E+02  0.51100000000E-03 0. -1.
        -11    1    3    3    0    0  0.29455923781E+01  0.42960286992E+01 -0.84922956582E+01  0.99625028406E+01  0.51100000000E-03 0.  1.
        -12    1    3    3    0    0 -0.12894557218E+02 -0.32936608804E+02  0.26270763169E+02  0.44059537025E+02  0.00000000000E+00 0.  1.
</event>
<event>
 7    1  0.3622165E-015  0.9000773E+02  0.7816164E-02  0.1186339E+00
        -11   -1    0    0    0    0  0.00000000000E+00  0.00000000000E+00  0.45593999997E+02  0.45594000000E+02  0.51100000000E-03 0.  1.
         11   -1    0    0    0    0 -0.00000000000E+00 -0.00000000000E+00 -0.45593999997E+02  0.45594000000E+02  0.51100000000E-03 0. -1.
    9900012    2    1    2    0    0 -0.49837751576E-02 -0.10002409034E+01 -0.62652099239E+00  0.90007730854E+02  0.89999992101E+02 0.  0.
        -12    1    1    2    0    0  0.49837751576E-02  0.10002409034E+01  0.62652099239E+00  0.11802691459E+01  0.00000000000E+00 0.  1.
         11    1    3    3    0    0 -0.20673961179E+02  0.22920304399E+02  0.80580644865E+01  0.31901182237E+02  0.51100000000E-03 0. -1.
        -11    1    3    3    0    0 -0.76405288028E+01  0.63313230345E+01  0.86794053966E+01  0.13183148715E+02  0.51100000000E-03 0.  1.
        -12    1    3    3    0    0  0.28309506207E+02 -0.30251868337E+02 -0.17363990876E+02  0.44923399901E+02  0.00000000000E+00 0.  1.
</event>
<event>
 7    1  0.3622165E-015  0.9000778E+02  0.7816164E-02  0.1186339E+00
        -11   -1    0    0    0    0  0.00000000000E+00  0.00000000000E+00  0.45593999997E+02  0.45594000000E+02  0.51100000000E-03 0. -1.
         11   -1    0    0    0    0 -0.00000000000E+00 -0.00000000000E+00 -0.45593999997E+02  0.45594000000E+02  0.51100000000E-03 0.  1.
    9900012    2    1    2    0    0  0.23585158952E+00  0.93600715023E+00  0.67911162773E+00  0.90007776309E+02  0.90000038156E+02 0.  0.
        -12    1    1    2    0    0 -0.23585158952E+00 -0.93600715023E+00 -0.67911162773E+00  0.11802236909E+01  0.00000000000E+00 0.  1.
         11    1    3    3    0    0  0.26967870038E+01  0.93812017004E+01  0.10046829490E+02  0.14007797419E+02  0.51100000000E-03 0. -1.
        -11    1    3    3    0    0  0.21003030244E+02  0.21740491075E+02  0.11620437699E+02  0.32385348604E+02  0.51100000000E-03 0.  1.
         12    1    3    3    0    0 -0.23463965658E+02 -0.30185685625E+02 -0.20988155561E+02  0.43614630286E+02  0.00000000000E+00 0. -1.
</event>
<event>
 7    1  0.3622165E-015  0.9000770E+02  0.7816164E-02  0.1186339E+00
        -11   -1    0    0    0    0  0.00000000000E+00  0.00000000000E+00  0.45593999997E+02  0.45594000000E+02  0.51100000000E-03 0.  1.
         11   -1    0    0    0    0 -0.00000000000E+00 -0.00000000000E+00 -0.45593999997E+02  0.45594000000E+02  0.51100000000E-03 0. -1.
    9900012    2    1    2    0    0  0.80489280505E-01 -0.11507490076E+01 -0.24981012837E+00  0.90007700503E+02  0.89999961350E+02 0.  0.
        -12    1    1    2    0    0 -0.80489280505E-01  0.11507490076E+01  0.24981012837E+00  0.11802994971E+01  0.00000000000E+00 0.  1.
         11    1    3    3    0    0  0.43143050093E+01  0.91563821412E+00  0.14689667685E+02  0.15337469087E+02  0.51100000000E-03 0. -1.
        -11    1    3    3    0    0  0.76700492828E+01  0.14243959100E+02  0.25080062815E+02  0.29845093029E+02  0.51100000000E-03 0.  1.
         12    1    3    3    0    0 -0.11903865012E+02 -0.16310346322E+02 -0.40019540628E+02  0.44825138387E+02  0.00000000000E+00 0. -1.
</event>
<event>
 7    1  0.3622165E-015  0.9000773E+02  0.7816164E-02  0.1186339E+00
        -11   -1    0    0    0    0  0.00000000000E+00  0.00000000000E+00  0.45593999997E+02  0.45594000000E+02  0.51100000000E-03 0.  1.
         11   -1    0    0    0    0 -0.00000000000E+00 -0.00000000000E+00 -0.45593999997E+02  0.45594000000E+02  0.51100000000E-03 0. -1.
    9900012    2    1    2    0    0 -0.76742150572E+00 -0.30230814893E+00 -0.84421983824E+00  0.90007731759E+02  0.89999993019E+02 0.  0.
        -12    1    1    2    0    0  0.76742150572E+00  0.30230814893E+00  0.84421983824E+00  0.11802682405E+01  0.00000000000E+00 0.  1.
         11    1    3    3    0    0 -0.93569984393E+01 -0.18212498055E+00  0.67133635729E+00  0.93828184501E+01  0.51100000000E-03 0. -1.
        -11    1    3    3    0    0 -0.15537029202E+02 -0.16890755160E+02  0.29845989165E+02  0.37649435000E+02  0.51100000000E-03 0.  1.
         12    1    3    3    0    0  0.24126606136E+02  0.16770571992E+02 -0.31361545360E+02  0.42975478310E+02  0.00000000000E+00 0. -1.
</event>
<event>
 7    1  0.3622165E-015  0.9000777E+02  0.7816164E-02  0.1186339E+00
        -11   -1    0    0    0    0  0.00000000000E+00  0.00000000000E+00  0.45593999997E+02  0.45594000000E+02  0.51100000000E-03 0. -1.
         11   -1    0    0    0    0 -0.00000000000E+00 -0.00000000000E+00 -0.45593999997E+02  0.45594000000E+02  0.51100000000E-03 0.  1.
    9900012    2    1    2    0    0  0.66393447481E+00  0.19291580879E+00 -0.95650983161E+00  0.90007772668E+02  0.90000034468E+02 0.  0.
        -12    1    1    2    0    0 -0.66393447481E+00 -0.19291580879E+00  0.95650983161E+00  0.11802273315E+01  0.00000000000E+00 0.  1.
         11    1    3    3    0    0 -0.22801337533E+01 -0.21204201882E+02  0.37062346398E+02  0.42760200048E+02  0.51100000000E-03 0. -1.
        -11    1    3    3    0    0 -0.50535677698E+01  0.68875114810E+01 -0.40506440200E+01  0.94543153556E+01  0.51100000000E-03 0.  1.
        -12    1    3    3    0    0  0.79976359979E+01  0.14509606209E+02 -0.33968212210E+02  0.37793257264E+02  0.00000000000E+00 0.  1.
</event>
<event>
 7    1  0.3622165E-015  0.9000773E+02  0.7816164E-02  0.1186339E+00
        -11   -1    0    0    0    0  0.00000000000E+00  0.00000000000E+00  0.45593999997E+02  0.45594000000E+02  0.51100000000E-03 0.  1.
         11   -1    0    0    0    0 -0.00000000000E+00 -0.00000000000E+00 -0.45593999997E+02  0.45594000000E+02  0.51100000000E-03 0. -1.
    9900012    2    1    2    0    0 -0.10078223489E+01 -0.32664634395E+00 -0.52023134386E+00  0.90007726993E+02  0.89999988189E+02 0.  0.
        -12    1    1    2    0    0  0.10078223489E+01  0.32664634395E+00  0.52023134386E+00  0.11802730074E+01  0.00000000000E+00 0.  1.
         11    1    3    3    0    0 -0.39014720815E+02 -0.75339413524E+01 -0.24321945027E+01  0.39809851581E+02  0.51100000000E-03 0. -1.
        -11    1    3    3    0    0  0.53446172938E+00 -0.28188175901E+01  0.10145312382E+02  0.10543184791E+02  0.51100000000E-03 0.  1.
        -12    1    3    3    0    0  0.37472436737E+02  0.10026112598E+02 -0.82333492227E+01  0.39654690621E+02  0.00000000000E+00 0.  1.
</event>
<event>
 7    1  0.3622165E-015  0.9000774E+02  0.7816164E-02  0.1186339E+00
        -11   -1    0    0    0    0  0.00000000000E+00  0.00000000000E+00  0.45593999997E+02  0.45594000000E+02  0.51100000000E-03 0. -1.
         11   -1    0    0    0    0 -0.00000000000E+00 -0.00000000000E+00 -0.45593999997E+02  0.45594000000E+02  0.51100000000E-03 0.  1.
    9900012    2    1    2    0    0  0.36063138624E+00  0.10152303686E+01  0.48194550762E+00  0.90007737669E+02  0.89999999006E+02 0.  0.
        -12    1    1    2    0    0 -0.36063138624E+00 -0.10152303686E+01 -0.48194550762E+00  0.11802623312E+01  0.00000000000E+00 0.  1.
         11    1    3    3    0    0  0.12577900971E+02 -0.31416137472E+02  0.12847039997E+02  0.36197012631E+02  0.51100000000E-03 0. -1.
        -11    1    3    3    0    0  0.54157831188E+01 -0.70811438919E+01 -0.42459990712E+00  0.89248860469E+01  0.51100000000E-03 0.  1.
        -12    1    3    3    0    0 -0.17633052704E+02  0.39512511732E+02 -0.11940494582E+02  0.44885838991E+02  0.00000000000E+00 0.  1.
</event>
<event>
 7    1  0.3622165E-015  0.9000792E+02  0.7816164E-02  0.1186339E+00
        -11   -1    0    0    0    0  0.00000000000E+00  0.00000000000E+00  0.45593999997E+02  0.45594000000E+02  0.51100000000E-03 0.  1.
         11   -1    0    0    0    0 -0.00000000000E+00 -0.00000000000E+00 -0.45593999997E+02  0.45594000000E+02  0.51100000000E-03 0. -1.
    9900012    2    1    2    0    0 -0.10356279014E+01  0.48275265563E+00 -0.29496943540E+00  0.90007922780E+02  0.90000186561E+02 0.  0.
        -12    1    1    2    0    0  0.10356279014E+01 -0.48275265563E+00  0.29496943540E+00  0.11800772198E+01  0.00000000000E+00 0.  1.
         11    1    3    3    0    0  0.37238744947E+02 -0.63661403546E+01 -0.55372233543E+01  0.38182623155E+02  0.51100000000E-03 0. -1.
        -11    1    3    3    0    0  0.16091817654E+01 -0.63973810764E+01  0.71859071208E+01  0.97546507882E+01  0.51100000000E-03 0.  1.
        -12    1    3    3    0    0 -0.39883554614E+02  0.13246274087E+02 -0.19436532019E+01  0.42070648837E+02  0.00000000000E+00 0.  1.
</event>
<event>
 7    1  0.3622165E-015  0.9000774E+02  0.7816164E-02  0.1186339E+00
        -11   -1    0    0    0    0  0.00000000000E+00  0.00000000000E+00  0.45593999997E+02  0.45594000000E+02  0.51100000000E-03 0.  1.
         11   -1    0    0    0    0 -0.00000000000E+00 -0.00000000000E+00 -0.45593999997E+02  0.45594000000E+02  0.51100000000E-03 0. -1.
    9900012    2    1    2    0    0  0.68395375832E+00  0.32858633126E+00 -0.90402529553E+00  0.90007735853E+02  0.89999997167E+02 0.  0.
        -12    1    1    2    0    0 -0.68395375832E+00 -0.32858633126E+00  0.90402529553E+00  0.11802641465E+01  0.00000000000E+00 0.  1.
         11    1    3    3    0    0  0.23307863121E+02  0.21468800428E+02 -0.18092296859E+02  0.36489684583E+02  0.51100000000E-03 0. -1.
        -11    1    3    3    0    0 -0.18168756834E+01  0.89958052739E+01 -0.52464600937E+01  0.10571229519E+02  0.51100000000E-03 0.  1.
        -12    1    3    3    0    0 -0.20807033679E+02 -0.30136019371E+02  0.22434731657E+02  0.42946821751E+02  0.00000000000E+00 0.  1.
</event>
<event>
 7    1  0.3622165E-015  0.9000778E+02  0.7816164E-02  0.1186339E+00
        -11   -1    0    0    0    0  0.00000000000E+00  0.00000000000E+00  0.45593999997E+02  0.45594000000E+02  0.51100000000E-03 0.  1.
         11   -1    0    0    0    0 -0.00000000000E+00 -0.00000000000E+00 -0.45593999997E+02  0.45594000000E+02  0.51100000000E-03 0. -1.
    9900012    2    1    2    0    0 -0.54772655773E-01  0.34997247168E+00 -0.11258052199E+01  0.90007780458E+02  0.90000042360E+02 0.  0.
        -12    1    1    2    0    0  0.54772655773E-01 -0.34997247168E+00  0.11258052199E+01  0.11802195422E+01  0.00000000000E+00 0.  1.
         11    1    3    3    0    0 -0.51837513965E+01 -0.58186950643E+01 -0.11404715497E+01  0.78758597251E+01  0.51100000000E-03 0. -1.
        -11    1    3    3    0    0  0.35961875145E+02 -0.15934215055E+02  0.13923794898E+02  0.41725624477E+02  0.51100000000E-03 0.  1.
         12    1    3    3    0    0 -0.30832896405E+02  0.22102882591E+02 -0.13909128568E+02  0.40406296255E+02  0.00000000000E+00 0. -1.
</event>
<event>
 7    1  0.3622165E-015  0.9000764E+02  0.7816164E-02  0.1186339E+00
        -11   -1    0    0    0    0  0.00000000000E+00  0.00000000000E+00  0.45593999997E+02  0.45594000000E+02  0.51100000000E-03 0. -1.
         11   -1    0    0    0    0 -0.00000000000E+00 -0.00000000000E+00 -0.45593999997E+02  0.45594000000E+02  0.51100000000E-03 0.  1.
    9900012    2    1    2    0    0 -0.37714840616E+00 -0.76001927293E+00  0.82060325062E+00  0.90007635687E+02  0.89999895678E+02 0.  0.
        -12    1    1    2    0    0  0.37714840616E+00  0.76001927293E+00 -0.82060325062E+00  0.11803643126E+01  0.00000000000E+00 0.  1.
         11    1    3    3    0    0 -0.29131621453E+02  0.14210138778E+02  0.20067904394E+02  0.38122174645E+02  0.51100000000E-03 0. -1.
        -11    1    3    3    0    0  0.77895323219E+01  0.21513818884E+01  0.94516702039E+01  0.12435406215E+02  0.51100000000E-03 0.  1.
        -12    1    3    3    0    0  0.20964940725E+02 -0.17121539940E+02 -0.28698971348E+02  0.39450054828E+02  0.00000000000E+00 0.  1.
</event>
<event>
 7    1  0.3622165E-015  0.9000776E+02  0.7816164E-02  0.1186339E+00
        -11   -1    0    0    0    0  0.00000000000E+00  0.00000000000E+00  0.45593999997E+02  0.45594000000E+02  0.51100000000E-03 0. -1.
         11   -1    0    0    0    0 -0.00000000000E+00 -0.00000000000E+00 -0.45593999997E+02  0.45594000000E+02  0.51100000000E-03 0.  1.
    9900012    2    1    2    0    0 -0.66447956227E+00 -0.79219513020E+00 -0.56908825710E+00  0.90007759492E+02  0.90000021117E+02 0.  0.
        -12    1    1    2    0    0  0.66447956227E+00  0.79219513020E+00  0.56908825710E+00  0.11802405083E+01  0.00000000000E+00 0.  1.
         11    1    3    3    0    0  0.35105260311E+02 -0.18097127171E+02  0.12106994253E+02  0.41309376944E+02  0.51100000000E-03 0. -1.
        -11    1    3    3    0    0 -0.92067096167E+01 -0.54885957606E+01  0.17121638220E+01  0.10854477906E+02  0.51100000000E-03 0.  1.
        -12    1    3    3    0    0 -0.26563030257E+02  0.22793527802E+02 -0.14388246332E+02  0.37843904642E+02  0.00000000000E+00 0.  1.
</event>
<event>
 7    1  0.3622165E-015  0.9000779E+02  0.7816164E-02  0.1186339E+00
        -11   -1    0    0    0    0  0.00000000000E+00  0.00000000000E+00  0.45593999997E+02  0.45594000000E+02  0.51100000000E-03 0.  1.
         11   -1    0    0    0    0 -0.00000000000E+00 -0.00000000000E+00 -0.45593999997E+02  0.45594000000E+02  0.51100000000E-03 0. -1.
    9900012    2    1    2    0    0  0.48210216717E-01  0.21451115563E-01 -0.11790258380E+01  0.90007793958E+02  0.90000056038E+02 0.  0.
        -12    1    1    2    0    0 -0.48210216717E-01 -0.21451115563E-01  0.11790258380E+01  0.11802060421E+01  0.00000000000E+00 0.  1.
         11    1    3    3    0    0  0.10574138724E+02  0.34050617618E+00 -0.34574185005E+02  0.36156640098E+02  0.51100000000E-03 0. -1.
        -11    1    3    3    0    0  0.31164789928E+01 -0.17160373398E+01 -0.87954401022E+01  0.94877285120E+01  0.51100000000E-03 0.  1.
        -12    1    3    3    0    0 -0.13642407500E+02  0.13969822792E+01  0.42190599269E+02  0.44363425347E+02  0.00000000000E+00 0.  1.
</event>
<event>
 7    1  0.3622165E-015  0.9000770E+02  0.7816164E-02  0.1186339E+00
        -11   -1    0    0    0    0  0.00000000000E+00  0.00000000000E+00  0.45593999997E+02  0.45594000000E+02  0.51100000000E-03 0. -1.
         11   -1    0    0    0    0 -0.00000000000E+00 -0.00000000000E+00 -0.45593999997E+02  0.45594000000E+02  0.51100000000E-03 0.  1.
    9900012    2    1    2    0    0  0.89180173174E+00  0.67927529593E+00  0.36931369357E+00  0.90007695861E+02  0.89999956646E+02 0.  0.
        -12    1    1    2    0    0 -0.89180173174E+00 -0.67927529593E+00 -0.36931369357E+00  0.11803041390E+01  0.00000000000E+00 0.  1.
         11    1    3    3    0    0  0.10880606627E+01  0.65808916406E+01 -0.73564511506E+01  0.99302258073E+01  0.51100000000E-03 0. -1.
        -11    1    3    3    0    0  0.25739415881E+02  0.25751897931E+00 -0.26335035817E+02  0.36825506889E+02  0.51100000000E-03 0.  1.
         12    1    3    3    0    0 -0.25935674812E+02 -0.61591353240E+01  0.34060800661E+02  0.43251963164E+02  0.00000000000E+00 0. -1.
</event>
<event>
 7    1  0.3622165E-015  0.9000712E+02  0.7816164E-02  0.1186340E+00
        -11   -1    0    0    0    0  0.00000000000E+00  0.00000000000E+00  0.45593999997E+02  0.45594000000E+02  0.51100000000E-03 0. -1.
         11   -1    0    0    0    0 -0.00000000000E+00 -0.00000000000E+00 -0.45593999997E+02  0.45594000000E+02  0.51100000000E-03 0.  1.
    9900012    2    1    2    0    0  0.90760218304E+00 -0.69764097946E+00  0.28986618214E+00  0.90007124451E+02  0.89999377692E+02 0.  0.
        -12    1    1    2    0    0 -0.90760218304E+00  0.69764097946E+00 -0.28986618214E+00  0.11808755491E+01  0.00000000000E+00 0.  1.
         11    1    3    3    0    0  0.10609798542E+02 -0.62281650018E-01  0.14848207900E+01  0.10713374685E+02  0.51100000000E-03 0. -1.
        -11    1    3    3    0    0  0.28105743747E+02  0.17723941510E+02 -0.12932781093E+02  0.35655683436E+02  0.51100000000E-03 0.  1.
         12    1    3    3    0    0 -0.37807940106E+02 -0.18359300840E+02  0.11737826486E+02  0.43638066330E+02  0.00000000000E+00 0. -1.
</event>
<event>
 7    1  0.3622165E-015  0.9000772E+02  0.7816164E-02  0.1186339E+00
        -11   -1    0    0    0    0  0.00000000000E+00  0.00000000000E+00  0.45593999997E+02  0.45594000000E+02  0.51100000000E-03 0.  1.
         11   -1    0    0    0    0 -0.00000000000E+00 -0.00000000000E+00 -0.45593999997E+02  0.45594000000E+02  0.51100000000E-03 0. -1.
    9900012    2    1    2    0    0  0.93663681321E+00  0.46200702637E+00 -0.54983060886E+00  0.90007723460E+02  0.89999984610E+02 0.  0.
        -12    1    1    2    0    0 -0.93663681321E+00 -0.46200702637E+00  0.54983060886E+00  0.11802765399E+01  0.00000000000E+00 0.  1.
         11    1    3    3    0    0  0.34627095130E+01  0.84158396611E+01 -0.20612853977E+01  0.93308955693E+01  0.51100000000E-03 0. -1.
        -11    1    3    3    0    0  0.16627227852E+02  0.30548571876E+02  0.11306542114E+02  0.36572091061E+02  0.51100000000E-03 0.  1.
         12    1    3    3    0    0 -0.19153300552E+02 -0.38502404511E+02 -0.97950873247E+01  0.44104736830E+02  0.00000000000E+00 0. -1.
</event>
<event>
 7    1  0.3622165E-015  0.9000765E+02  0.7816164E-02  0.1186339E+00
        -11   -1    0    0    0    0  0.00000000000E+00  0.00000000000E+00  0.45593999997E+02  0.45594000000E+02  0.51100000000E-03 0.  1.
         11   -1    0    0    0    0 -0.00000000000E+00 -0.00000000000E+00 -0.45593999997E+02  0.45594000000E+02  0.51100000000E-03 0. -1.
    9900012    2    1    2    0    0  0.57187747706E+00  0.71277318219E+00 -0.74708018211E+00  0.90007653332E+02  0.89999913556E+02 0.  0.
        -12    1    1    2    0    0 -0.57187747706E+00 -0.71277318219E+00  0.74708018211E+00  0.11803466679E+01  0.00000000000E+00 0.  1.
         11    1    3    3    0    0 -0.15886009467E+02  0.35771734583E+02 -0.75825783515E+01  0.39868255374E+02  0.51100000000E-03 0. -1.
        -11    1    3    3    0    0 -0.83218710257E+01 -0.27653790618E+01 -0.47840991492E+00  0.87823536157E+01  0.51100000000E-03 0.  1.
        -12    1    3    3    0    0  0.24779757969E+02 -0.32293582339E+02  0.73139080843E+01  0.41357044343E+02  0.00000000000E+00 0.  1.
</event>
<event>
 7    1  0.3622165E-015  0.9000770E+02  0.7816164E-02  0.1186339E+00
        -11   -1    0    0    0    0  0.00000000000E+00  0.00000000000E+00  0.45593999997E+02  0.45594000000E+02  0.51100000000E-03 0.  1.
         11   -1    0    0    0    0 -0.00000000000E+00 -0.00000000000E+00 -0.45593999997E+02  0.45594000000E+02  0.51100000000E-03 0. -1.
    9900012    2    1    2    0    0  0.72484947824E+00  0.90993751234E+00  0.19926063640E+00  0.90007704341E+02  0.89999965238E+02 0.  0.
        -12    1    1    2    0    0 -0.72484947824E+00 -0.90993751234E+00 -0.19926063640E+00  0.11802956594E+01  0.00000000000E+00 0.  1.
         11    1    3    3    0    0  0.56367332495E+01  0.83799133855E+01  0.16868459329E+01  0.10239197212E+02  0.51100000000E-03 0. -1.
        -11    1    3    3    0    0  0.25506510452E+02 -0.28192424347E+02  0.13049344155E+02  0.40195525238E+02  0.51100000000E-03 0.  1.
         12    1    3    3    0    0 -0.30418394223E+02  0.20722448474E+02 -0.14536929452E+02  0.39572981891E+02  0.00000000000E+00 0. -1.
</event>
<event>
 7    1  0.3622165E-015  0.9000770E+02  0.7816164E-02  0.1186339E+00
        -11   -1    0    0    0    0  0.00000000000E+00  0.00000000000E+00  0.45593999997E+02  0.45594000000E+02  0.51100000000E-03 0.  1.
         11   -1    0    0    0    0 -0.00000000000E+00 -0.00000000000E+00 -0.45593999997E+02  0.45594000000E+02  0.51100000000E-03 0. -1.
    9900012    2    1    2    0    0 -0.11404934471E+00  0.11735725933E+01 -0.53215006341E-01  0.90007698462E+02  0.89999959281E+02 0.  0.
        -12    1    1    2    0    0  0.11404934471E+00 -0.11735725933E+01  0.53215006341E-01  0.11803015384E+01  0.00000000000E+00 0.  1.
         11    1    3    3    0    0  0.19721692663E+01 -0.24464029751E+02 -0.25440433991E+02  0.35349595262E+02  0.51100000000E-03 0. -1.
        -11    1    3    3    0    0 -0.20448654938E+01 -0.28668249590E+01 -0.91928430807E+01  0.98442127365E+01  0.51100000000E-03 0.  1.
        -12    1    3    3    0    0 -0.41353117180E-01  0.28504427303E+02  0.34580062066E+02  0.44813890463E+02  0.00000000000E+00 0.  1.
</event>
<event>
 7    1  0.3622165E-015  0.9000776E+02  0.7816164E-02  0.1186339E+00
        -11   -1    0    0    0    0  0.00000000000E+00  0.00000000000E+00  0.45593999997E+02  0.45594000000E+02  0.51100000000E-03 0. -1.
         11   -1    0    0    0    0 -0.00000000000E+00 -0.00000000000E+00 -0.45593999997E+02  0.45594000000E+02  0.51100000000E-03 0.  1.
    9900012    2    1    2    0    0  0.62759205426E+00  0.63241812581E+00  0.77405018830E+00  0.90007755040E+02  0.90000016606E+02 0.  0.
        -12    1    1    2    0    0 -0.62759205426E+00 -0.63241812581E+00 -0.77405018830E+00  0.11802449603E+01  0.00000000000E+00 0.  1.
         11    1    3    3    0    0  0.67661794827E+01  0.15235634977E+02  0.22965763989E+01  0.16827953570E+02  0.51100000000E-03 0. -1.
        -11    1    3    3    0    0  0.99351548047E+01  0.18658990435E+02 -0.22356065438E+02  0.30767822269E+02  0.51100000000E-03 0.  1.
         12    1    3    3    0    0 -0.16073742233E+02 -0.33262207287E+02  0.20833539227E+02  0.42411979200E+02  0.00000000000E+00 0. -1.
</event>
<event>
 7    1  0.3622165E-015  0.9000775E+02  0.7816164E-02  0.1186339E+00
        -11   -1    0    0    0    0  0.00000000000E+00  0.00000000000E+00  0.45593999997E+02  0.45594000000E+02  0.51100000000E-03 0.  1.
         11   -1    0    0    0    0 -0.00000000000E+00 -0.00000000000E+00 -0.45593999997E+02  0.45594000000E+02  0.51100000000E-03 0. -1.
    9900012    2    1    2    0    0  0.10573657838E+01  0.48770279189E+00 -0.19262410907E+00  0.90007754067E+02  0.90000015621E+02 0.  0.
        -12    1    1    2    0    0 -0.10573657838E+01 -0.48770279189E+00  0.19262410907E+00  0.11802459326E+01  0.00000000000E+00 0.  1.
         11    1    3    3    0    0  0.39580684700E+01  0.12374049437E+02 -0.40302162922E+02  0.42344394458E+02  0.51100000000E-03 0. -1.
        -11    1    3    3    0    0 -0.88651299834E+00 -0.90226182993E+01  0.18612322704E+01  0.92551462494E+01  0.51100000000E-03 0.  1.
        -12    1    3    3    0    0 -0.20141896879E+01 -0.28637283460E+01  0.38248306543E+02  0.38408213360E+02  0.00000000000E+00 0.  1.
</event>
<event>
 7    1  0.3644932E-015  0.9000780E+02  0.7816164E-02  0.1186339E+00
        -11   -1    0    0    0    0  0.00000000000E+00  0.00000000000E+00  0.45593999997E+02  0.45594000000E+02  0.51100000000E-03 0. -1.
         11   -1    0    0    0    0 -0.00000000000E+00 -0.00000000000E+00 -0.45593999997E+02  0.45594000000E+02  0.51100000000E-03 0.  1.
    9900012    2    1    2    0    0  0.43815730115E+00  0.88211465924E+00  0.65020922785E+00  0.90007796572E+02  0.90000058686E+02 0.  0.
        -12    1    1    2    0    0 -0.43815730115E+00 -0.88211465924E+00 -0.65020922785E+00  0.11802034285E+01  0.00000000000E+00 0.  1.
         11    1    3    3    0    0 -0.34203336113E+02 -0.11402596812E+02  0.22888331167E+02  0.42705539678E+02  0.51100000000E-03 0. -1.
        -11    1    3    3    0    0  0.67205612765E+00  0.65183459772E+01 -0.71186228220E+01  0.96754992047E+01  0.51100000000E-03 0.  1.
        -12    1    3    3    0    0  0.33969437287E+02  0.57663654938E+01 -0.15119499118E+02  0.37626757689E+02  0.00000000000E+00 0.  1.
</event>
<event>
 7    1  0.3622165E-015  0.9000785E+02  0.7816164E-02  0.1186339E+00
        -11   -1    0    0    0    0  0.00000000000E+00  0.00000000000E+00  0.45593999997E+02  0.45594000000E+02  0.51100000000E-03 0. -1.
         11   -1    0    0    0    0 -0.00000000000E+00 -0.00000000000E+00 -0.45593999997E+02  0.45594000000E+02  0.51100000000E-03 0.  1.
    9900012    2    1    2    0    0  0.36491058908E+00 -0.11158016427E+01  0.12076594413E+00  0.90007848545E+02  0.90000111346E+02 0.  0.
        -12    1    1    2    0    0 -0.36491058908E+00  0.11158016427E+01 -0.12076594413E+00  0.11801514552E+01  0.00000000000E+00 0.  1.
         11    1    3    3    0    0  0.69939620172E+01 -0.44956586470E+01  0.53535047370E+01  0.98887038887E+01  0.51100000000E-03 0. -1.
        -11    1    3    3    0    0  0.30244496724E+02  0.14990138115E+02 -0.19416048256E+02  0.38941196090E+02  0.51100000000E-03 0.  1.
         12    1    3    3    0    0 -0.36873548152E+02 -0.11610281111E+02  0.14183309463E+02  0.41177948566E+02  0.00000000000E+00 0. -1.
</event>
<event>
 7    1  0.3622165E-015  0.9000767E+02  0.7816164E-02  0.1186339E+00
        -11   -1    0    0    0    0  0.00000000000E+00  0.00000000000E+00  0.45593999997E+02  0.45594000000E+02  0.51100000000E-03 0. -1.
         11   -1    0    0    0    0 -0.00000000000E+00 -0.00000000000E+00 -0.45593999997E+02  0.45594000000E+02  0.51100000000E-03 0.  1.
    9900012    2    1    2    0    0 -0.10700974151E+01  0.60559205885E-01  0.49437132217E+00  0.90007670004E+02  0.89999930448E+02 0.  0.
        -12    1    1    2    0    0  0.10700974151E+01 -0.60559205885E-01 -0.49437132217E+00  0.11803299960E+01  0.00000000000E+00 0.  1.
         11    1    3    3    0    0  0.27399043000E-01 -0.44807693128E+01 -0.93095526027E+01  0.10331786596E+02  0.51100000000E-03 0. -1.
        -11    1    3    3    0    0 -0.19589000880E+02  0.16360293630E+02 -0.26792857114E+02  0.37003315469E+02  0.51100000000E-03 0.  1.
         12    1    3    3    0    0  0.18491504421E+02 -0.11818965112E+02  0.36596781039E+02  0.42672567939E+02  0.00000000000E+00 0. -1.
</event>
<event>
 7    1  0.3622165E-015  0.9000751E+02  0.7816164E-02  0.1186339E+00
        -11   -1    0    0    0    0  0.00000000000E+00  0.00000000000E+00  0.45593999997E+02  0.45594000000E+02  0.51100000000E-03 0.  1.
         11   -1    0    0    0    0 -0.00000000000E+00 -0.00000000000E+00 -0.45593999997E+02  0.45594000000E+02  0.51100000000E-03 0. -1.
    9900012    2    1    2    0    0 -0.17320645095E+00 -0.45464197612E+00 -0.10755683938E+01  0.90007514011E+02  0.89999772395E+02 0.  0.
        -12    1    1    2    0    0  0.17320645095E+00  0.45464197612E+00  0.10755683938E+01  0.11804859892E+01  0.00000000000E+00 0.  1.
         11    1    3    3    0    0 -0.36811962446E+01 -0.92340271488E+01 -0.34025104108E+02  0.35447512931E+02  0.51100000000E-03 0. -1.
        -11    1    3    3    0    0  0.17901514720E+02 -0.91739100323E+01  0.11886989364E+02  0.23365045922E+02  0.51100000000E-03 0.  1.
        -12    1    3    3    0    0 -0.14393524926E+02  0.17953295205E+02  0.21062546350E+02  0.31194955157E+02  0.00000000000E+00 0.  1.
</event>
<event>
 7    1  0.3622165E-015  0.9000769E+02  0.7816164E-02  0.1186339E+00
        -11   -1    0    0    0    0  0.00000000000E+00  0.00000000000E+00  0.45593999997E+02  0.45594000000E+02  0.51100000000E-03 0.  1.
         11   -1    0    0    0    0 -0.00000000000E+00 -0.00000000000E+00 -0.45593999997E+02  0.45594000000E+02  0.51100000000E-03 0. -1.
    9900012    2    1    2    0    0 -0.36184827014E+00 -0.10198615156E+01 -0.47125517145E+00  0.90007689398E+02  0.89999950098E+02 0.  0.
        -12    1    1    2    0    0  0.36184827014E+00  0.10198615156E+01  0.47125517145E+00  0.11803106024E+01  0.00000000000E+00 0.  1.
         11    1    3    3    0    0 -0.26879325474E+02 -0.15783458088E+02 -0.23214586893E+02  0.38865572581E+02  0.51100000000E-03 0. -1.
        -11    1    3    3    0    0 -0.76668500185E+01  0.50191566082E+01  0.43152585867E+00  0.91738071209E+01  0.51100000000E-03 0.  1.
        -12    1    3    3    0    0  0.34184327222E+02  0.97444399642E+01  0.22311805863E+02  0.41968309696E+02  0.00000000000E+00 0.  1.
</event>
<event>
 7    1  0.3622165E-015  0.9000771E+02  0.7816164E-02  0.1186339E+00
        -11   -1    0    0    0    0  0.00000000000E+00  0.00000000000E+00  0.45593999997E+02  0.45594000000E+02  0.51100000000E-03 0. -1.
         11   -1    0    0    0    0 -0.00000000000E+00 -0.00000000000E+00 -0.45593999997E+02  0.45594000000E+02  0.51100000000E-03 0.  1.
    9900012    2    1    2    0    0 -0.46557134573E+00 -0.83388054794E+00  0.69351583626E+00  0.90007712890E+02  0.89999973900E+02 0.  0.
        -12    1    1    2    0    0  0.46557134573E+00  0.83388054794E+00 -0.69351583626E+00  0.11802871097E+01  0.00000000000E+00 0.  1.
         11    1    3    3    0    0 -0.36144080897E+01 -0.22605470813E+01 -0.93454557628E+01  0.10271882136E+02  0.51100000000E-03 0. -1.
        -11    1    3    3    0    0 -0.34117443392E+02  0.93015584426E+01 -0.99286686756E+01  0.36730061189E+02  0.51100000000E-03 0.  1.
         12    1    3    3    0    0  0.37266280136E+02 -0.78748919092E+01  0.19967640275E+02  0.43005769565E+02  0.00000000000E+00 0. -1.
</event>
<event>
 7    1  0.3622165E-015  0.9000775E+02  0.7816164E-02  0.1186339E+00
        -11   -1    0    0    0    0  0.00000000000E+00  0.00000000000E+00  0.45593999997E+02  0.45594000000E+02  0.51100000000E-03 0. -1.
         11   -1    0    0    0    0 -0.00000000000E+00 -0.00000000000E+00 -0.45593999997E+02  0.45594000000E+02  0.51100000000E-03 0.  1.
    9900012    2    1    2    0    0 -0.13396501192E+00 -0.26301880097E+00  0.11427422712E+01  0.90007751970E+02  0.90000013496E+02 0.  0.
        -12    1    1    2    0    0  0.13396501192E+00  0.26301880097E+00 -0.11427422712E+01  0.11802480300E+01  0.00000000000E+00 0.  1.
         11    1    3    3    0    0  0.82100028134E+01  0.32042313395E+02 -0.11124690962E+02  0.34898033514E+02  0.51100000000E-03 0. -1.
        -11    1    3    3    0    0  0.11127525196E+02 -0.53768405170E+00 -0.70055350677E+01  0.13160108015E+02  0.51100000000E-03 0.  1.
        -12    1    3    3    0    0 -0.19471493021E+02 -0.31767648144E+02  0.19272968301E+02  0.41949610441E+02  0.00000000000E+00 0.  1.
</event>
<event>
 7    1  0.3622165E-015  0.9000766E+02  0.7816164E-02  0.1186339E+00
        -11   -1    0    0    0    0  0.00000000000E+00  0.00000000000E+00  0.45593999997E+02  0.45594000000E+02  0.51100000000E-03 0. -1.
         11   -1    0    0    0    0 -0.00000000000E+00 -0.00000000000E+00 -0.45593999997E+02  0.45594000000E+02  0.51100000000E-03 0.  1.
    9900012    2    1    2    0    0  0.71952717727E+00  0.75954175945E+00  0.54643366368E+00  0.90007655647E+02  0.89999915901E+02 0.  0.
        -12    1    1    2    0    0 -0.71952717727E+00 -0.75954175945E+00 -0.54643366368E+00  0.11803443531E+01  0.00000000000E+00 0.  1.
         11    1    3    3    0    0 -0.58316352178E+01  0.12064989096E+02  0.73327710752E+01  0.15275518423E+02  0.51100000000E-03 0. -1.
        -11    1    3    3    0    0  0.20007025584E+02 -0.22299806316E+02  0.24660826661E+02  0.38803592698E+02  0.51100000000E-03 0.  1.
         12    1    3    3    0    0 -0.13455863189E+02  0.10994358979E+02 -0.31447164072E+02  0.35928544525E+02  0.00000000000E+00 0. -1.
</event>
<event>
 7    1  0.3622165E-015  0.9000779E+02  0.7816164E-02  0.1186339E+00
        -11   -1    0    0    0    0  0.00000000000E+00  0.00000000000E+00  0.45593999997E+02  0.45594000000E+02  0.51100000000E-03 0.  1.
         11   -1    0    0    0    0 -0.00000000000E+00 -0.00000000000E+00 -0.45593999997E+02  0.45594000000E+02  0.51100000000E-03 0. -1.
    9900012    2    1    2    0    0  0.11188199391E+01 -0.63494243849E-01 -0.37026438440E+00  0.90007794387E+02  0.90000056473E+02 0.  0.
        -12    1    1    2    0    0 -0.11188199391E+01  0.63494243849E-01  0.37026438440E+00  0.11802056132E+01  0.00000000000E+00 0.  1.
         11    1    3    3    0    0 -0.15173746421E+02 -0.34113841537E+02  0.95380583755E+01  0.38535325647E+02  0.51100000000E-03 0. -1.
        -11    1    3    3    0    0 -0.74809931484E+01 -0.25505534042E+00 -0.59221862073E+01  0.95447682763E+01  0.51100000000E-03 0.  1.
        -12    1    3    3    0    0  0.23773559508E+02  0.34305402634E+02 -0.39861365526E+01  0.41927700464E+02  0.00000000000E+00 0.  1.
</event>
<event>
 7    1  0.3622165E-015  0.9000759E+02  0.7816164E-02  0.1186339E+00
        -11   -1    0    0    0    0  0.00000000000E+00  0.00000000000E+00  0.45593999997E+02  0.45594000000E+02  0.51100000000E-03 0.  1.
         11   -1    0    0    0    0 -0.00000000000E+00 -0.00000000000E+00 -0.45593999997E+02  0.45594000000E+02  0.51100000000E-03 0. -1.
    9900012    2    1    2    0    0  0.21890109067E+00  0.11488331318E+00 -0.11542338138E+01  0.90007588394E+02  0.89999847760E+02 0.  0.
        -12    1    1    2    0    0 -0.21890109067E+00 -0.11488331318E+00  0.11542338138E+01  0.11804116063E+01  0.00000000000E+00 0.  1.
         11    1    3    3    0    0 -0.37755936567E+02  0.58116829156E+01  0.15266688766E+02  0.41138281327E+02  0.51100000000E-03 0. -1.
        -11    1    3    3    0    0 -0.46529268301E+00 -0.61375206352E+00 -0.94397432987E+01  0.94711109530E+01  0.51100000000E-03 0.  1.
        -12    1    3    3    0    0  0.38440130341E+02 -0.50830475389E+01 -0.69811792807E+01  0.39398196114E+02  0.00000000000E+00 0.  1.
</event>
<event>
 7    1  0.3622165E-015  0.9000775E+02  0.7816164E-02  0.1186339E+00
        -11   -1    0    0    0    0  0.00000000000E+00  0.00000000000E+00  0.45593999997E+02  0.45594000000E+02  0.51100000000E-03 0.  1.
         11   -1    0    0    0    0 -0.00000000000E+00 -0.00000000000E+00 -0.45593999997E+02  0.45594000000E+02  0.51100000000E-03 0. -1.
    9900012    2    1    2    0    0  0.30342960996E+00  0.60071678109E+00 -0.96957170782E+00  0.90007746012E+02  0.90000007459E+02 0.  0.
        -12    1    1    2    0    0 -0.30342960996E+00 -0.60071678109E+00  0.96957170782E+00  0.11802539879E+01  0.00000000000E+00 0.  1.
         11    1    3    3    0    0  0.13887999206E+01  0.76283124737E+01  0.58977741974E+01  0.97418508077E+01  0.51100000000E-03 0. -1.
        -11    1    3    3    0    0  0.12598643069E+02 -0.12014657147E+02  0.33279965345E+02  0.37558406344E+02  0.51100000000E-03 0.  1.
         12    1    3    3    0    0 -0.13684013379E+02  0.49870614540E+01 -0.40147311250E+02  0.42707488860E+02  0.00000000000E+00 0. -1.
</event>
<event>
 7    1  0.3622165E-015  0.9000748E+02  0.7816164E-02  0.1186340E+00
        -11   -1    0    0    0    0  0.00000000000E+00  0.00000000000E+00  0.45593999997E+02  0.45594000000E+02  0.51100000000E-03 0. -1.
         11   -1    0    0    0    0 -0.00000000000E+00 -0.00000000000E+00 -0.45593999997E+02  0.45594000000E+02  0.51100000000E-03 0.  1.
    9900012    2    1    2    0    0  0.38681094037E+00  0.74931460031E+00  0.82614930011E+00  0.90007484121E+02  0.89999742111E+02 0.  0.
        -12    1    1    2    0    0 -0.38681094037E+00 -0.74931460031E+00 -0.82614930011E+00  0.11805158787E+01  0.00000000000E+00 0.  1.
         11    1    3    3    0    0 -0.92645333409E+01  0.34681737297E+01 -0.82658793909E+00  0.99268854595E+01  0.51100000000E-03 0. -1.
        -11    1    3    3    0    0 -0.30293929866E+02  0.13936202505E+01 -0.18112787249E+02  0.35323326943E+02  0.51100000000E-03 0.  1.
         12    1    3    3    0    0  0.39945274147E+02 -0.41124793799E+01  0.19765524489E+02  0.44757271718E+02  0.00000000000E+00 0. -1.
</event>
<event>
 7    1  0.3622165E-015  0.9000785E+02  0.7816164E-02  0.1186339E+00
        -11   -1    0    0    0    0  0.00000000000E+00  0.00000000000E+00  0.45593999997E+02  0.45594000000E+02  0.51100000000E-03 0.  1.
         11   -1    0    0    0    0 -0.00000000000E+00 -0.00000000000E+00 -0.45593999997E+02  0.45594000000E+02  0.51100000000E-03 0. -1.
    9900012    2    1    2    0    0  0.10716441494E+00  0.10593743916E+01  0.50891322797E+00  0.90007851286E+02  0.90000114123E+02 0.  0.
        -12    1    1    2    0    0 -0.10716441494E+00 -0.10593743916E+01 -0.50891322797E+00  0.11801487139E+01  0.00000000000E+00 0.  1.
         11    1    3    3    0    0 -0.16890160909E+02  0.29515824020E+02 -0.99508628510E+01  0.35432768377E+02  0.51100000000E-03 0. -1.
        -11    1    3    3    0    0 -0.27830510944E+01  0.88226203910E+01 -0.38399097254E+01  0.10016432045E+02  0.51100000000E-03 0.  1.
        -12    1    3    3    0    0  0.19780376418E+02 -0.37279070019E+02  0.14299685804E+02  0.44558650864E+02  0.00000000000E+00 0.  1.
</event>
<event>
 7    1  0.3622165E-015  0.9000773E+02  0.7816164E-02  0.1186339E+00
        -11   -1    0    0    0    0  0.00000000000E+00  0.00000000000E+00  0.45593999997E+02  0.45594000000E+02  0.51100000000E-03 0.  1.
         11   -1    0    0    0    0 -0.00000000000E+00 -0.00000000000E+00 -0.45593999997E+02  0.45594000000E+02  0.51100000000E-03 0. -1.
    9900012    2    1    2    0    0 -0.36785270613E+00  0.11214325544E+01 -0.10815132245E-01  0.90007727339E+02  0.89999988540E+02 0.  0.
        -12    1    1    2    0    0  0.36785270613E+00 -0.11214325544E+01  0.10815132245E-01  0.11802726611E+01  0.00000000000E+00 0.  1.
         11    1    3    3    0    0 -0.55973261209E+01 -0.60814094869E+01  0.95327972641E-01  0.82657539726E+01  0.51100000000E-03 0. -1.
        -11    1    3    3    0    0 -0.19048975290E+02  0.12253461606E+02  0.33217004995E+02  0.40204231146E+02  0.51100000000E-03 0.  1.
         12    1    3    3    0    0  0.24278448705E+02 -0.50506195650E+01 -0.33323148100E+02  0.41537742220E+02  0.00000000000E+00 0. -1.
</event>
<event>
 7    1  0.3622165E-015  0.9000775E+02  0.7816164E-02  0.1186339E+00
        -11   -1    0    0    0    0  0.00000000000E+00  0.00000000000E+00  0.45593999997E+02  0.45594000000E+02  0.51100000000E-03 0.  1.
         11   -1    0    0    0    0 -0.00000000000E+00 -0.00000000000E+00 -0.45593999997E+02  0.45594000000E+02  0.51100000000E-03 0. -1.
    9900012    2    1    2    0    0 -0.76270773622E+00  0.68238207632E+00 -0.58789135154E+00  0.90007752301E+02  0.90000013832E+02 0.  0.
        -12    1    1    2    0    0  0.76270773622E+00 -0.68238207632E+00  0.58789135154E+00  0.11802476987E+01  0.00000000000E+00 0.  1.
         11    1    3    3    0    0 -0.14068210350E+02 -0.28263063608E+01 -0.17328923355E+02  0.22498758522E+02  0.51100000000E-03 0. -1.
        -11    1    3    3    0    0  0.30156640244E+02 -0.12754068423E+02 -0.77245022319E+01  0.33641598463E+02  0.51100000000E-03 0.  1.
        -12    1    3    3    0    0 -0.16851137630E+02  0.16262756861E+02  0.24465534236E+02  0.33867395317E+02  0.00000000000E+00 0.  1.
</event>
<event>
 7    1  0.3622165E-015  0.9000793E+02  0.7816164E-02  0.1186339E+00
        -11   -1    0    0    0    0  0.00000000000E+00  0.00000000000E+00  0.45593999997E+02  0.45594000000E+02  0.51100000000E-03 0.  1.
         11   -1    0    0    0    0 -0.00000000000E+00 -0.00000000000E+00 -0.45593999997E+02  0.45594000000E+02  0.51100000000E-03 0. -1.
    9900012    2    1    2    0    0 -0.73197807619E+00 -0.27222955909E+00 -0.88468374995E+00  0.90007929589E+02  0.90000193460E+02 0.  0.
        -12    1    1    2    0    0  0.73197807619E+00  0.27222955909E+00  0.88468374995E+00  0.11800704107E+01  0.00000000000E+00 0.  1.
         11    1    3    3    0    0 -0.20099395365E+01 -0.84273627649E+00 -0.42041684007E+02  0.42098138389E+02  0.51100000000E-03 0. -1.
        -11    1    3    3    0    0  0.93931164500E+01  0.17024155480E+01  0.48842228706E+01  0.10723082050E+02  0.51100000000E-03 0.  1.
        -12    1    3    3    0    0 -0.81151549897E+01 -0.11319088306E+01  0.36272777387E+02  0.37186709151E+02  0.00000000000E+00 0.  1.
</event>
<event>
 7    1  0.3622165E-015  0.9000774E+02  0.7816164E-02  0.1186339E+00
        -11   -1    0    0    0    0  0.00000000000E+00  0.00000000000E+00  0.45593999997E+02  0.45594000000E+02  0.51100000000E-03 0. -1.
         11   -1    0    0    0    0 -0.00000000000E+00 -0.00000000000E+00 -0.45593999997E+02  0.45594000000E+02  0.51100000000E-03 0.  1.
    9900012    2    1    2    0    0 -0.37573480432E+00  0.75468471403E+00 -0.82601221497E+00  0.90007736538E+02  0.89999997860E+02 0.  0.
        -12    1    1    2    0    0  0.37573480432E+00 -0.75468471403E+00  0.82601221497E+00  0.11802634621E+01  0.00000000000E+00 0.  1.
         11    1    3    3    0    0  0.24904402280E+01 -0.22686451055E+01  0.69722935055E+01  0.77435082574E+01  0.51100000000E-03 0. -1.
        -11    1    3    3    0    0  0.13470016587E+02 -0.14125945478E+02 -0.38691823334E+02  0.43336368972E+02  0.51100000000E-03 0.  1.
         12    1    3    3    0    0 -0.16336191619E+02  0.17149275297E+02  0.30893517614E+02  0.38927859309E+02  0.00000000000E+00 0. -1.
</event>
<event>
 7    1  0.3622165E-015  0.9000781E+02  0.7816164E-02  0.1186339E+00
        -11   -1    0    0    0    0  0.00000000000E+00  0.00000000000E+00  0.45593999997E+02  0.45594000000E+02  0.51100000000E-03 0.  1.
         11   -1    0    0    0    0 -0.00000000000E+00 -0.00000000000E+00 -0.45593999997E+02  0.45594000000E+02  0.51100000000E-03 0. -1.
    9900012    2    1    2    0    0  0.33292863765E+00 -0.10753791440E+01 -0.35436110368E+00  0.90007807824E+02  0.90000070087E+02 0.  0.
        -12    1    1    2    0    0 -0.33292863765E+00  0.10753791440E+01  0.35436110368E+00  0.11801921763E+01  0.00000000000E+00 0.  1.
         11    1    3    3    0    0  0.78440161324E+01 -0.20227082153E+02  0.31540480835E+02  0.38281397219E+02  0.51100000000E-03 0. -1.
        -11    1    3    3    0    0 -0.37986989726E+01  0.52903107941E+01  0.74209933341E+01  0.98736338047E+01  0.51100000000E-03 0.  1.
        -12    1    3    3    0    0 -0.37123885221E+01  0.13861392215E+02 -0.39315835273E+02  0.41852776800E+02  0.00000000000E+00 0.  1.
</event>
<event>
 7    1  0.3622165E-015  0.9000778E+02  0.7816164E-02  0.1186339E+00
        -11   -1    0    0    0    0  0.00000000000E+00  0.00000000000E+00  0.45593999997E+02  0.45594000000E+02  0.51100000000E-03 0.  1.
         11   -1    0    0    0    0 -0.00000000000E+00 -0.00000000000E+00 -0.45593999997E+02  0.45594000000E+02  0.51100000000E-03 0. -1.
    9900012    2    1    2    0    0 -0.94736782717E-01  0.98815383343E+00  0.63834755330E+00  0.90007783640E+02  0.90000045584E+02 0.  0.
        -12    1    1    2    0    0  0.94736782717E-01 -0.98815383343E+00 -0.63834755330E+00  0.11802163595E+01  0.00000000000E+00 0.  1.
         11    1    3    3    0    0 -0.17713949050E+02 -0.20503341194E+02 -0.34607023864E+02  0.43952441253E+02  0.51100000000E-03 0. -1.
        -11    1    3    3    0    0  0.48483099179E+01  0.24353595407E+00  0.56666571315E+01  0.74616634960E+01  0.51100000000E-03 0.  1.
        -12    1    3    3    0    0  0.12770902349E+02  0.21247959073E+02  0.29578714286E+02  0.38593678892E+02  0.00000000000E+00 0.  1.
</event>
<event>
 7    1  0.3622165E-015  0.9000798E+02  0.7816164E-02  0.1186339E+00
        -11   -1    0    0    0    0  0.00000000000E+00  0.00000000000E+00  0.45593999997E+02  0.45594000000E+02  0.51100000000E-03 0. -1.
         11   -1    0    0    0    0 -0.00000000000E+00 -0.00000000000E+00 -0.45593999997E+02  0.45594000000E+02  0.51100000000E-03 0.  1.
    9900012    2    1    2    0    0  0.11309095754E+01 -0.25707777207E+00  0.21769824232E+00  0.90007983910E+02  0.90000248497E+02 0.  0.
        -12    1    1    2    0    0 -0.11309095754E+01  0.25707777207E+00 -0.21769824232E+00  0.11800160903E+01  0.00000000000E+00 0.  1.
         11    1    3    3    0    0 -0.17827575081E+02 -0.31659672946E+02  0.63535522994E+01  0.36885294514E+02  0.51100000000E-03 0. -1.
        -11    1    3    3    0    0 -0.72554921211E+01 -0.40928246096E+01  0.11164762402E+01  0.84047545271E+01  0.51100000000E-03 0.  1.
        -12    1    3    3    0    0  0.26213976778E+02  0.35495419784E+02 -0.72523302972E+01  0.44717934868E+02  0.00000000000E+00 0.  1.
</event>
<event>
 7    1  0.3622165E-015  0.9000774E+02  0.7816164E-02  0.1186339E+00
        -11   -1    0    0    0    0  0.00000000000E+00  0.00000000000E+00  0.45593999997E+02  0.45594000000E+02  0.51100000000E-03 0.  1.
         11   -1    0    0    0    0 -0.00000000000E+00 -0.00000000000E+00 -0.45593999997E+02  0.45594000000E+02  0.51100000000E-03 0. -1.
    9900012    2    1    2    0    0 -0.53736110373E+00  0.41571738764E+00 -0.96510504591E+00  0.90007743396E+02  0.90000004809E+02 0.  0.
        -12    1    1    2    0    0  0.53736110373E+00 -0.41571738764E+00  0.96510504591E+00  0.11802566042E+01  0.00000000000E+00 0.  1.
         11    1    3    3    0    0 -0.85811455667E+01  0.23895631820E+01 -0.30712995863E+01  0.94222583730E+01  0.51100000000E-03 0. -1.
        -11    1    3    3    0    0 -0.11484257770E+01 -0.36924984232E+02 -0.15887274191E+02  0.40214161981E+02  0.51100000000E-03 0.  1.
         12    1    3    3    0    0  0.91922102399E+01  0.34951138438E+02  0.17993468731E+02  0.40371323042E+02  0.00000000000E+00 0. -1.
</event>
<event>
 7    1  0.3622165E-015  0.9000814E+02  0.7816164E-02  0.1186338E+00
        -11   -1    0    0    0    0  0.00000000000E+00  0.00000000000E+00  0.45593999997E+02  0.45594000000E+02  0.51100000000E-03 0. -1.
         11   -1    0    0    0    0 -0.00000000000E+00 -0.00000000000E+00 -0.45593999997E+02  0.45594000000E+02  0.51100000000E-03 0.  1.
    9900012    2    1    2    0    0  0.61412497067E+00  0.65849388793E+00  0.76242986489E+00  0.90008142814E+02  0.90000409498E+02 0.  0.
        -12    1    1    2    0    0 -0.61412497067E+00 -0.65849388793E+00 -0.76242986489E+00  0.11798571858E+01  0.00000000000E+00 0.  1.
         11    1    3    3    0    0 -0.43920615249E+01  0.47251474909E+00  0.93645726935E+01  0.10354163251E+02  0.51100000000E-03 0. -1.
        -11    1    3    3    0    0  0.71741906284E+01 -0.37213810495E+02  0.79069450185E+01  0.38715067901E+02  0.51100000000E-03 0.  1.
         12    1    3    3    0    0 -0.21680041328E+01  0.37399789634E+02 -0.16509087847E+02  0.40938911663E+02  0.00000000000E+00 0. -1.
</event>
<event>
 7    1  0.3622165E-015  0.9000779E+02  0.7816164E-02  0.1186339E+00
        -11   -1    0    0    0    0  0.00000000000E+00  0.00000000000E+00  0.45593999997E+02  0.45594000000E+02  0.51100000000E-03 0.  1.
         11   -1    0    0    0    0 -0.00000000000E+00 -0.00000000000E+00 -0.45593999997E+02  0.45594000000E+02  0.51100000000E-03 0. -1.
    9900012    2    1    2    0    0  0.89833972478E+00 -0.90473736928E-01  0.76006591098E+00  0.90007788177E+02  0.90000050181E+02 0.  0.
        -12    1    1    2    0    0 -0.89833972478E+00  0.90473736928E-01 -0.76006591098E+00  0.11802118230E+01  0.00000000000E+00 0.  1.
         11    1    3    3    0    0  0.15099007446E+02 -0.78488216365E+01 -0.27255472848E+02  0.32131679498E+02  0.51100000000E-03 0. -1.
        -11    1    3    3    0    0  0.64563612239E+01 -0.16478895911E+02  0.44219075940E+01  0.18242584184E+02  0.51100000000E-03 0.  1.
        -12    1    3    3    0    0 -0.20657028945E+02  0.24237243810E+02  0.23593631165E+02  0.39633524495E+02  0.00000000000E+00 0.  1.
</event>
<event>
 7    1  0.3622165E-015  0.9000775E+02  0.7816164E-02  0.1186339E+00
        -11   -1    0    0    0    0  0.00000000000E+00  0.00000000000E+00  0.45593999997E+02  0.45594000000E+02  0.51100000000E-03 0.  1.
         11   -1    0    0    0    0 -0.00000000000E+00 -0.00000000000E+00 -0.45593999997E+02  0.45594000000E+02  0.51100000000E-03 0. -1.
    9900012    2    1    2    0    0 -0.97601861609E+00 -0.81803343170E-01 -0.65854682924E+00  0.90007750852E+02  0.90000012363E+02 0.  0.
        -12    1    1    2    0    0  0.97601861609E+00  0.81803343170E-01  0.65854682924E+00  0.11802491484E+01  0.00000000000E+00 0.  1.
         11    1    3    3    0    0 -0.85943406127E+01 -0.25425132597E+02 -0.33363609230E+02  0.42818576334E+02  0.51100000000E-03 0. -1.
        -11    1    3    3    0    0 -0.62758916212E+01  0.16017916299E+01  0.70584176381E+01  0.95798649198E+01  0.51100000000E-03 0.  1.
        -12    1    3    3    0    0  0.13894213618E+02  0.23741537624E+02  0.25646644763E+02  0.37609309598E+02  0.00000000000E+00 0.  1.
</event>
<event>
 7    1  0.3622165E-015  0.9000774E+02  0.7816164E-02  0.1186339E+00
        -11   -1    0    0    0    0  0.00000000000E+00  0.00000000000E+00  0.45593999997E+02  0.45594000000E+02  0.51100000000E-03 0.  1.
         11   -1    0    0    0    0 -0.00000000000E+00 -0.00000000000E+00 -0.45593999997E+02  0.45594000000E+02  0.51100000000E-03 0. -1.
    9900012    2    1    2    0    0 -0.53316262417E+00  0.83224041347E+00 -0.64508835098E+00  0.90007735000E+02  0.89999996302E+02 0.  0.
        -12    1    1    2    0    0  0.53316262417E+00 -0.83224041347E+00  0.64508835098E+00  0.11802650000E+01  0.00000000000E+00 0.  1.
         11    1    3    3    0    0  0.72085237553E+01  0.37917387042E+02 -0.58812276350E+01  0.39042027273E+02  0.51100000000E-03 0. -1.
        -11    1    3    3    0    0 -0.81377246757E+01  0.43695661891E+01  0.11597139550E+01  0.93091679702E+01  0.51100000000E-03 0.  1.
        -12    1    3    3    0    0  0.39603829626E+00 -0.41454712817E+02  0.40764253291E+01  0.41656539757E+02  0.00000000000E+00 0.  1.
</event>
<event>
 7    1  0.3622165E-015  0.9000769E+02  0.7816164E-02  0.1186339E+00
        -11   -1    0    0    0    0  0.00000000000E+00  0.00000000000E+00  0.45593999997E+02  0.45594000000E+02  0.51100000000E-03 0.  1.
         11   -1    0    0    0    0 -0.00000000000E+00 -0.00000000000E+00 -0.45593999997E+02  0.45594000000E+02  0.51100000000E-03 0. -1.
    9900012    2    1    2    0    0 -0.11204257679E+01 -0.78822080266E-01  0.36270635691E+00  0.90007693801E+02  0.89999954559E+02 0.  0.
        -12    1    1    2    0    0  0.11204257679E+01  0.78822080266E-01 -0.36270635691E+00  0.11803061989E+01  0.00000000000E+00 0.  1.
         11    1    3    3    0    0  0.11314932173E+02 -0.15455503836E+02 -0.30699245361E+01  0.19399090850E+02  0.51100000000E-03 0. -1.
        -11    1    3    3    0    0 -0.19510722301E+02 -0.47007404196E+01  0.30291639690E+02  0.36336602490E+02  0.51100000000E-03 0.  1.
         12    1    3    3    0    0  0.70753643605E+01  0.20077422175E+02 -0.26859008797E+02  0.34272000461E+02  0.00000000000E+00 0. -1.
</event>
<event>
 7    1  0.3622165E-015  0.9000781E+02  0.7816164E-02  0.1186339E+00
        -11   -1    0    0    0    0  0.00000000000E+00  0.00000000000E+00  0.45593999997E+02  0.45594000000E+02  0.51100000000E-03 0. -1.
         11   -1    0    0    0    0 -0.00000000000E+00 -0.00000000000E+00 -0.45593999997E+02  0.45594000000E+02  0.51100000000E-03 0.  1.
    9900012    2    1    2    0    0  0.17169480411E+00  0.33501891732E+00 -0.11185449300E+01  0.90007805295E+02  0.90000067525E+02 0.  0.
        -12    1    1    2    0    0 -0.17169480411E+00 -0.33501891732E+00  0.11185449300E+01  0.11801947048E+01  0.00000000000E+00 0.  1.
         11    1    3    3    0    0  0.63606583309E+01  0.56462731371E+01 -0.25509838912E+01  0.88795210352E+01  0.51100000000E-03 0. -1.
        -11    1    3    3    0    0  0.29709570061E+02  0.20690648025E+02 -0.41938517142E+01  0.36446534285E+02  0.51100000000E-03 0.  1.
         12    1    3    3    0    0 -0.35898533588E+02 -0.26001902245E+02  0.56262906754E+01  0.44681749975E+02  0.00000000000E+00 0. -1.
</event>
<event>
 7    1  0.3622165E-015  0.9000769E+02  0.7816164E-02  0.1186339E+00
        -11   -1    0    0    0    0  0.00000000000E+00  0.00000000000E+00  0.45593999997E+02  0.45594000000E+02  0.51100000000E-03 0.  1.
         11   -1    0    0    0    0 -0.00000000000E+00 -0.00000000000E+00 -0.45593999997E+02  0.45594000000E+02  0.51100000000E-03 0. -1.
    9900012    2    1    2    0    0  0.10897118056E+01 -0.24387318446E+00 -0.38233291360E+00  0.90007693088E+02  0.89999953837E+02 0.  0.
        -12    1    1    2    0    0 -0.10897118056E+01  0.24387318446E+00  0.38233291360E+00  0.11803069118E+01  0.00000000000E+00 0.  1.
         11    1    3    3    0    0 -0.24256359807E+02  0.16183359522E+02  0.21377993290E+02  0.36156475407E+02  0.51100000000E-03 0. -1.
        -11    1    3    3    0    0  0.25747835049E+00  0.69884408113E+01  0.63836193866E+01  0.94686428176E+01  0.51100000000E-03 0.  1.
        -12    1    3    3    0    0  0.25088593262E+02 -0.23415673517E+02 -0.28143945590E+02  0.44382574864E+02  0.00000000000E+00 0.  1.
</event>
<event>
 7    1  0.3622165E-015  0.9000771E+02  0.7816164E-02  0.1186339E+00
        -11   -1    0    0    0    0  0.00000000000E+00  0.00000000000E+00  0.45593999997E+02  0.45594000000E+02  0.51100000000E-03 0.  1.
         11   -1    0    0    0    0 -0.00000000000E+00 -0.00000000000E+00 -0.45593999997E+02  0.45594000000E+02  0.51100000000E-03 0. -1.
    9900012    2    1    2    0    0  0.11471480871E+00 -0.79251567210E+00 -0.86708510398E+00  0.90007713105E+02  0.89999974118E+02 0.  0.
        -12    1    1    2    0    0 -0.11471480871E+00  0.79251567210E+00  0.86708510398E+00  0.11802868954E+01  0.00000000000E+00 0.  1.
         11    1    3    3    0    0  0.10589614829E+02  0.27685199898E+02 -0.28323469282E+02  0.40997916387E+02  0.51100000000E-03 0. -1.
        -11    1    3    3    0    0  0.80400284370E+01 -0.34528736165E+01  0.24678029070E+01  0.90914490004E+01  0.51100000000E-03 0.  1.
        -12    1    3    3    0    0 -0.18514928457E+02 -0.25024841954E+02  0.24988581271E+02  0.39918347718E+02  0.00000000000E+00 0.  1.
</event>
<event>
 7    1  0.3622165E-015  0.9000769E+02  0.7816164E-02  0.1186339E+00
        -11   -1    0    0    0    0  0.00000000000E+00  0.00000000000E+00  0.45593999997E+02  0.45594000000E+02  0.51100000000E-03 0.  1.
         11   -1    0    0    0    0 -0.00000000000E+00 -0.00000000000E+00 -0.45593999997E+02  0.45594000000E+02  0.51100000000E-03 0. -1.
    9900012    2    1    2    0    0 -0.38667240140E+00  0.64240864923E+00  0.91155197599E+00  0.90007690115E+02  0.89999950825E+02 0.  0.
        -12    1    1    2    0    0  0.38667240140E+00 -0.64240864923E+00 -0.91155197599E+00  0.11803098845E+01  0.00000000000E+00 0.  1.
         11    1    3    3    0    0 -0.29698018000E+02 -0.23281485180E+02  0.12077723301E+02  0.39621600495E+02  0.51100000000E-03 0. -1.
        -11    1    3    3    0    0 -0.47372920609E+01  0.11805066765E+02 -0.52638203662E+01  0.13766239229E+02  0.51100000000E-03 0.  1.
        -12    1    3    3    0    0  0.34048637660E+02  0.12118827065E+02 -0.59023509592E+01  0.36619850392E+02  0.00000000000E+00 0.  1.
</event>
<event>
 7    1  0.3622165E-015  0.9000768E+02  0.7816164E-02  0.1186339E+00
        -11   -1    0    0    0    0  0.00000000000E+00  0.00000000000E+00  0.45593999997E+02  0.45594000000E+02  0.51100000000E-03 0.  1.
         11   -1    0    0    0    0 -0.00000000000E+00 -0.00000000000E+00 -0.45593999997E+02  0.45594000000E+02  0.51100000000E-03 0. -1.
    9900012    2    1    2    0    0  0.97706026296E+00 -0.59755669315E+00 -0.28538639548E+00  0.90007675403E+02  0.89999935919E+02 0.  0.
        -12    1    1    2    0    0 -0.97706026296E+00  0.59755669315E+00  0.28538639548E+00  0.11803245968E+01  0.00000000000E+00 0.  1.
         11    1    3    3    0    0 -0.20727253851E+01  0.48365372302E+01 -0.84570486289E+01  0.99604194025E+01  0.51100000000E-03 0. -1.
        -11    1    3    3    0    0  0.33912058080E+02  0.20466345336E+01  0.26763409406E+02  0.43249236749E+02  0.51100000000E-03 0.  1.
         12    1    3    3    0    0 -0.30862272432E+02 -0.74807284570E+01 -0.18591747173E+02  0.36798019251E+02  0.00000000000E+00 0. -1.
</event>
<event>
 7    1  0.3622165E-015  0.9000773E+02  0.7816164E-02  0.1186339E+00
        -11   -1    0    0    0    0  0.00000000000E+00  0.00000000000E+00  0.45593999997E+02  0.45594000000E+02  0.51100000000E-03 0. -1.
         11   -1    0    0    0    0 -0.00000000000E+00 -0.00000000000E+00 -0.45593999997E+02  0.45594000000E+02  0.51100000000E-03 0.  1.
    9900012    2    1    2    0    0 -0.87381766282E+00  0.10498220911E+00 -0.78642121523E+00  0.90007730158E+02  0.89999991396E+02 0.  0.
        -12    1    1    2    0    0  0.87381766282E+00 -0.10498220911E+00  0.78642121523E+00  0.11802698420E+01  0.00000000000E+00 0.  1.
         11    1    3    3    0    0 -0.56639783962E+01 -0.98286234932E+01  0.96238810854E+00  0.11384580896E+02  0.51100000000E-03 0. -1.
        -11    1    3    3    0    0 -0.32437460849E+02 -0.11396194577E+02  0.63436067200E+01  0.34961456830E+02  0.51100000000E-03 0.  1.
         12    1    3    3    0    0  0.37227621582E+02  0.21329800279E+02 -0.80924160438E+01  0.43661692432E+02  0.00000000000E+00 0. -1.
</event>
<event>
 7    1  0.3622165E-015  0.9000806E+02  0.7816164E-02  0.1186338E+00
        -11   -1    0    0    0    0  0.00000000000E+00  0.00000000000E+00  0.45593999997E+02  0.45594000000E+02  0.51100000000E-03 0. -1.
         11   -1    0    0    0    0 -0.00000000000E+00 -0.00000000000E+00 -0.45593999997E+02  0.45594000000E+02  0.51100000000E-03 0.  1.
    9900012    2    1    2    0    0 -0.97804466820E+00  0.65668919845E+00  0.66664149545E-01  0.90008060940E+02  0.90000326544E+02 0.  0.
        -12    1    1    2    0    0  0.97804466820E+00 -0.65668919845E+00 -0.66664149545E-01  0.11799390599E+01  0.00000000000E+00 0.  1.
         11    1    3    3    0    0  0.74521795828E+01 -0.21428181659E+01  0.41800092290E+01  0.88090367034E+01  0.51100000000E-03 0. -1.
        -11    1    3    3    0    0  0.23207603869E+02 -0.28147471259E+02 -0.56471076594E+01  0.36915617844E+02  0.51100000000E-03 0.  1.
         12    1    3    3    0    0 -0.31637828120E+02  0.30946978624E+02  0.15337625799E+01  0.44283406393E+02  0.00000000000E+00 0. -1.
</event>
<event>
 7    1  0.3622165E-015  0.9000770E+02  0.7816164E-02  0.1186339E+00
        -11   -1    0    0    0    0  0.00000000000E+00  0.00000000000E+00  0.45593999997E+02  0.45594000000E+02  0.51100000000E-03 0. -1.
         11   -1    0    0    0    0 -0.00000000000E+00 -0.00000000000E+00 -0.45593999997E+02  0.45594000000E+02  0.51100000000E-03 0.  1.
    9900012    2    1    2    0    0  0.55973773461E+00  0.92230331087E+00  0.47869339613E+00  0.90007704657E+02  0.89999965559E+02 0.  0.
        -12    1    1    2    0    0 -0.55973773461E+00 -0.92230331087E+00 -0.47869339613E+00  0.11802953428E+01  0.00000000000E+00 0.  1.
         11    1    3    3    0    0  0.79279029984E+01  0.68700529912E+01  0.48113477433E+01  0.11541158582E+02  0.51100000000E-03 0. -1.
        -11    1    3    3    0    0 -0.16902060125E+02  0.18593085456E+02 -0.31726873590E+02  0.40471928188E+02  0.51100000000E-03 0.  1.
         12    1    3    3    0    0  0.95338948609E+01 -0.24540835136E+02  0.27394219243E+02  0.37994617886E+02  0.00000000000E+00 0. -1.
</event>
<event>
 7    1  0.3622165E-015  0.9000783E+02  0.7816164E-02  0.1186339E+00
        -11   -1    0    0    0    0  0.00000000000E+00  0.00000000000E+00  0.45593999997E+02  0.45594000000E+02  0.51100000000E-03 0. -1.
         11   -1    0    0    0    0 -0.00000000000E+00 -0.00000000000E+00 -0.45593999997E+02  0.45594000000E+02  0.51100000000E-03 0.  1.
    9900012    2    1    2    0    0 -0.90516018126E+00  0.50676223700E-01  0.75559332722E+00  0.90007828695E+02  0.90000091234E+02 0.  0.
        -12    1    1    2    0    0  0.90516018126E+00 -0.50676223700E-01 -0.75559332722E+00  0.11801713052E+01  0.00000000000E+00 0.  1.
         11    1    3    3    0    0 -0.57941795527E+01  0.41572908153E+01  0.22661791932E+01  0.74827235689E+01  0.51100000000E-03 0. -1.
        -11    1    3    3    0    0 -0.17854502555E+02 -0.37033527862E+02 -0.82803932330E+01  0.41938411507E+02  0.51100000000E-03 0.  1.
         12    1    3    3    0    0  0.22743521926E+02  0.32926913271E+02  0.67698073670E+01  0.40586693619E+02  0.00000000000E+00 0. -1.
</event>
<event>
 7    1  0.3622165E-015  0.9000778E+02  0.7816164E-02  0.1186339E+00
        -11   -1    0    0    0    0  0.00000000000E+00  0.00000000000E+00  0.45593999997E+02  0.45594000000E+02  0.51100000000E-03 0.  1.
         11   -1    0    0    0    0 -0.00000000000E+00 -0.00000000000E+00 -0.45593999997E+02  0.45594000000E+02  0.51100000000E-03 0. -1.
    9900012    2    1    2    0    0 -0.78383446239E+00  0.78684751362E+00  0.39924671425E+00  0.90007778236E+02  0.90000040108E+02 0.  0.
        -12    1    1    2    0    0  0.78383446239E+00 -0.78684751362E+00 -0.39924671425E+00  0.11802217643E+01  0.00000000000E+00 0.  1.
         11    1    3    3    0    0  0.11638204586E+02 -0.67615147106E+01  0.17175783052E+01  0.13568933733E+02  0.51100000000E-03 0. -1.
        -11    1    3    3    0    0  0.31357408950E+02 -0.19565005183E+01  0.22417055686E+01  0.31498257642E+02  0.51100000000E-03 0.  1.
         12    1    3    3    0    0 -0.43779447998E+02  0.95048627425E+01 -0.35600371596E+01  0.44940586861E+02  0.00000000000E+00 0. -1.
</event>
<event>
 7    1  0.3622165E-015  0.9000785E+02  0.7816164E-02  0.1186339E+00
        -11   -1    0    0    0    0  0.00000000000E+00  0.00000000000E+00  0.45593999997E+02  0.45594000000E+02  0.51100000000E-03 0.  1.
         11   -1    0    0    0    0 -0.00000000000E+00 -0.00000000000E+00 -0.45593999997E+02  0.45594000000E+02  0.51100000000E-03 0. -1.
    9900012    2    1    2    0    0  0.90452129723E+00  0.43050812467E+00 -0.62391283024E+00  0.90007846094E+02  0.90000108862E+02 0.  0.
        -12    1    1    2    0    0 -0.90452129723E+00 -0.43050812467E+00  0.62391283024E+00  0.11801539062E+01  0.00000000000E+00 0.  1.
         11    1    3    3    0    0 -0.15017614619E+01 -0.68965362335E+01 -0.38981530798E+01  0.80630699614E+01  0.51100000000E-03 0. -1.
        -11    1    3    3    0    0 -0.17715782739E+02 -0.15923714794E+02 -0.28892211886E+02  0.37445608005E+02  0.51100000000E-03 0.  1.
         12    1    3    3    0    0  0.20122065498E+02  0.23250759152E+02  0.32166452136E+02  0.44499168128E+02  0.00000000000E+00 0. -1.
</event>
<event>
 8    1  0.3622165E-015  0.9000778E+02  0.7816164E-02  0.1186339E+00
        -11   -1    0    0    0    0  0.00000000000E+00  0.00000000000E+00  0.45593999997E+02  0.45594000000E+02  0.51100000000E-03 0. -1.
         11   -1    0    0    0    0 -0.00000000000E+00 -0.00000000000E+00 -0.45593999997E+02  0.45594000000E+02  0.51100000000E-03 0.  1.
    9900012    2    1    2    0    0  0.18962147103E+00  0.64045494973E+00  0.97302268964E+00  0.90007783071E+02  0.90000045008E+02 0.  0.
         23    2    3    3    0    0  0.28056302678E+01 -0.14776735267E+02  0.10361150462E+02  0.71768534203E+02  0.69405659685E+02 0.  0.
        -12    1    1    2    0    0 -0.18962147103E+00 -0.64045494973E+00 -0.97302268964E+00  0.11802169290E+01  0.00000000000E+00 0.  1.
         11    1    4    4    0    0 -0.30760276423E+01 -0.31913961065E+01 -0.29506268500E+02  0.29837339631E+02  0.51100000000E-03 0.  1.
        -11    1    4    4    0    0  0.58816579101E+01 -0.11585339161E+02  0.39867418962E+02  0.41931194572E+02  0.51100000000E-03 0. -1.
         12    1    3    3    0    0 -0.26160087968E+01  0.15417190217E+02 -0.93881277726E+01  0.18239248868E+02  0.00000000000E+00 0. -1.
</event>
<event>
 7    1  0.3622165E-015  0.9000763E+02  0.7816164E-02  0.1186339E+00
        -11   -1    0    0    0    0  0.00000000000E+00  0.00000000000E+00  0.45593999997E+02  0.45594000000E+02  0.51100000000E-03 0. -1.
         11   -1    0    0    0    0 -0.00000000000E+00 -0.00000000000E+00 -0.45593999997E+02  0.45594000000E+02  0.51100000000E-03 0.  1.
    9900012    2    1    2    0    0 -0.93983296790E+00 -0.11568918200E+00  0.70470368127E+00  0.90007628333E+02  0.89999888227E+02 0.  0.
        -12    1    1    2    0    0  0.93983296790E+00  0.11568918200E+00 -0.70470368127E+00  0.11803716672E+01  0.00000000000E+00 0.  1.
         11    1    3    3    0    0  0.79993520328E+01  0.75105634012E+01  0.34645203198E+02  0.36341275438E+02  0.51100000000E-03 0. -1.
        -11    1    3    3    0    0  0.12106777794E+02 -0.23687299945E+01  0.11735494071E+01  0.12392020368E+02  0.51100000000E-03 0.  1.
        -12    1    3    3    0    0 -0.21045962795E+02 -0.52575225887E+01 -0.35114048924E+02  0.41274332527E+02  0.00000000000E+00 0.  1.
</event>
<event>
 7    1  0.3622165E-015  0.9000773E+02  0.7816164E-02  0.1186339E+00
        -11   -1    0    0    0    0  0.00000000000E+00  0.00000000000E+00  0.45593999997E+02  0.45594000000E+02  0.51100000000E-03 0.  1.
         11   -1    0    0    0    0 -0.00000000000E+00 -0.00000000000E+00 -0.45593999997E+02  0.45594000000E+02  0.51100000000E-03 0. -1.
    9900012    2    1    2    0    0  0.10402674441E+01  0.13693524146E+00 -0.54049852746E+00  0.90007726187E+02  0.89999987373E+02 0.  0.
        -12    1    1    2    0    0 -0.10402674441E+01 -0.13693524146E+00  0.54049852746E+00  0.11802738131E+01  0.00000000000E+00 0.  1.
         11    1    3    3    0    0  0.11548847687E+02 -0.10719009062E+02 -0.32647616057E+02  0.36251067193E+02  0.51100000000E-03 0. -1.
        -11    1    3    3    0    0  0.77466374100E+01 -0.76205819261E+01 -0.18310903150E+01  0.11019825410E+02  0.51100000000E-03 0.  1.
        -12    1    3    3    0    0 -0.18255217653E+02  0.18476526229E+02  0.33938207845E+02  0.42736833584E+02  0.00000000000E+00 0.  1.
</event>
<event>
 7    1  0.3622165E-015  0.9000789E+02  0.7816164E-02  0.1186339E+00
        -11   -1    0    0    0    0  0.00000000000E+00  0.00000000000E+00  0.45593999997E+02  0.45594000000E+02  0.51100000000E-03 0.  1.
         11   -1    0    0    0    0 -0.00000000000E+00 -0.00000000000E+00 -0.45593999997E+02  0.45594000000E+02  0.51100000000E-03 0. -1.
    9900012    2    1    2    0    0 -0.67633493016E+00 -0.27863112554E+00 -0.92605853331E+00  0.90007894645E+02  0.90000158054E+02 0.  0.
        -12    1    1    2    0    0  0.67633493016E+00  0.27863112554E+00  0.92605853331E+00  0.11801053550E+01  0.00000000000E+00 0.  1.
         11    1    3    3    0    0 -0.21558124105E+02  0.28803240555E+02  0.79544280542E+01  0.36846333702E+02  0.51100000000E-03 0. -1.
        -11    1    3    3    0    0 -0.72770193178E+01  0.98240383048E+00  0.58775904675E+01  0.94056471017E+01  0.51100000000E-03 0.  1.
        -12    1    3    3    0    0  0.28158808492E+02 -0.30064275511E+02 -0.14758077055E+02  0.43755913841E+02  0.00000000000E+00 0.  1.
</event>
<event>
 7    1  0.3622165E-015  0.9000799E+02  0.7816164E-02  0.1186339E+00
        -11   -1    0    0    0    0  0.00000000000E+00  0.00000000000E+00  0.45593999997E+02  0.45594000000E+02  0.51100000000E-03 0. -1.
         11   -1    0    0    0    0 -0.00000000000E+00 -0.00000000000E+00 -0.45593999997E+02  0.45594000000E+02  0.51100000000E-03 0.  1.
    9900012    2    1    2    0    0  0.71331851845E+00  0.93629626102E+00 -0.83303694834E-01  0.90007994279E+02  0.90000259003E+02 0.  0.
        -12    1    1    2    0    0 -0.71331851845E+00 -0.93629626102E+00  0.83303694834E-01  0.11800057215E+01  0.00000000000E+00 0.  1.
         11    1    3    3    0    0 -0.54214196436E+01  0.37525116962E+02  0.13733945666E+02  0.40325518692E+02  0.51100000000E-03 0. -1.
        -11    1    3    3    0    0 -0.94013587198E+01 -0.23802913193E+01 -0.13938888432E+00  0.96990083032E+01  0.51100000000E-03 0.  1.
        -12    1    3    3    0    0  0.15536096882E+02 -0.34208529382E+02 -0.13677860477E+02  0.39983467283E+02  0.00000000000E+00 0.  1.
</event>
<event>
 7    1  0.3622165E-015  0.9000743E+02  0.7816164E-02  0.1186340E+00
        -11   -1    0    0    0    0  0.00000000000E+00  0.00000000000E+00  0.45593999997E+02  0.45594000000E+02  0.51100000000E-03 0. -1.
         11   -1    0    0    0    0 -0.00000000000E+00 -0.00000000000E+00 -0.45593999997E+02  0.45594000000E+02  0.51100000000E-03 0.  1.
    9900012    2    1    2    0    0 -0.88865822195E+00  0.67994556991E+00 -0.37643946929E+00  0.90007429762E+02  0.89999687034E+02 0.  0.
        -12    1    1    2    0    0  0.88865822195E+00 -0.67994556991E+00  0.37643946929E+00  0.11805702383E+01  0.00000000000E+00 0.  1.
         11    1    3    3    0    0  0.24524519804E+02 -0.19788491594E+02 -0.49310335428E+01  0.31895949011E+02  0.51100000000E-03 0. -1.
        -11    1    3    3    0    0  0.60850577245E+01 -0.98419060063E+01 -0.61536691499E+01  0.13105673795E+02  0.51100000000E-03 0.  1.
        -12    1    3    3    0    0 -0.31498235751E+02  0.30310343171E+02  0.10708263223E+02  0.45005806956E+02  0.00000000000E+00 0.  1.
</event>
<event>
 7    1  0.3622165E-015  0.9000772E+02  0.7816164E-02  0.1186339E+00
        -11   -1    0    0    0    0  0.00000000000E+00  0.00000000000E+00  0.45593999997E+02  0.45594000000E+02  0.51100000000E-03 0.  1.
         11   -1    0    0    0    0 -0.00000000000E+00 -0.00000000000E+00 -0.45593999997E+02  0.45594000000E+02  0.51100000000E-03 0. -1.
    9900012    2    1    2    0    0 -0.55983045627E+00 -0.93526779365E+00  0.45268887559E+00  0.90007719015E+02  0.89999980106E+02 0.  0.
        -12    1    1    2    0    0  0.55983045627E+00  0.93526779365E+00 -0.45268887559E+00  0.11802809851E+01  0.00000000000E+00 0.  1.
         11    1    3    3    0    0 -0.83002643991E+01  0.16294836864E+02 -0.30511881791E+02  0.35572335153E+02  0.51100000000E-03 0. -1.
        -11    1    3    3    0    0 -0.14646345240E+01 -0.27787455651E+01 -0.97601001384E+01  0.10253103734E+02  0.51100000000E-03 0.  1.
        -12    1    3    3    0    0  0.92050684668E+01 -0.14451359093E+02  0.40724670805E+02  0.44182280128E+02  0.00000000000E+00 0.  1.
</event>
<event>
 7    1  0.3622165E-015  0.9000770E+02  0.7816164E-02  0.1186339E+00
        -11   -1    0    0    0    0  0.00000000000E+00  0.00000000000E+00  0.45593999997E+02  0.45594000000E+02  0.51100000000E-03 0.  1.
         11   -1    0    0    0    0 -0.00000000000E+00 -0.00000000000E+00 -0.45593999997E+02  0.45594000000E+02  0.51100000000E-03 0. -1.
    9900012    2    1    2    0    0 -0.39948770010E+00  0.78289565586E+00 -0.78777415289E+00  0.90007701671E+02  0.89999962533E+02 0.  0.
        -12    1    1    2    0    0  0.39948770010E+00 -0.78289565586E+00  0.78777415289E+00  0.11802983294E+01  0.00000000000E+00 0.  1.
         11    1    3    3    0    0 -0.53969137241E+01  0.54627530584E+01  0.69538620921E+01  0.10359756126E+02  0.51100000000E-03 0. -1.
        -11    1    3    3    0    0  0.98921387087E+01 -0.12451034550E+02  0.33666638670E+02  0.37233388634E+02  0.51100000000E-03 0.  1.
         12    1    3    3    0    0 -0.48947126847E+01  0.77711771472E+01 -0.41408274915E+02  0.42414556911E+02  0.00000000000E+00 0. -1.
</event>
<event>
 7    1  0.3622165E-015  0.9000776E+02  0.7816164E-02  0.1186339E+00
        -11   -1    0    0    0    0  0.00000000000E+00  0.00000000000E+00  0.45593999997E+02  0.45594000000E+02  0.51100000000E-03 0. -1.
         11   -1    0    0    0    0 -0.00000000000E+00 -0.00000000000E+00 -0.45593999997E+02  0.45594000000E+02  0.51100000000E-03 0.  1.
    9900012    2    1    2    0    0 -0.65764229688E+00  0.16683754869E+00  0.96573628768E+00  0.90007756493E+02  0.90000018079E+02 0.  0.
        -12    1    1    2    0    0  0.65764229688E+00 -0.16683754869E+00 -0.96573628768E+00  0.11802435069E+01  0.00000000000E+00 0.  1.
         11    1    3    3    0    0 -0.83116810529E+01  0.15450389801E+01 -0.43987802863E+01  0.95299766864E+01  0.51100000000E-03 0. -1.
        -11    1    3    3    0    0  0.13719260946E+02  0.35052639030E+02  0.17624797118E+02  0.41563675218E+02  0.51100000000E-03 0.  1.
         12    1    3    3    0    0 -0.60652221896E+01 -0.36430840462E+02 -0.12260280543E+02  0.38914104589E+02  0.00000000000E+00 0. -1.
</event>
<event>
 7    1  0.3622165E-015  0.9000775E+02  0.7816164E-02  0.1186339E+00
        -11   -1    0    0    0    0  0.00000000000E+00  0.00000000000E+00  0.45593999997E+02  0.45594000000E+02  0.51100000000E-03 0.  1.
         11   -1    0    0    0    0 -0.00000000000E+00 -0.00000000000E+00 -0.45593999997E+02  0.45594000000E+02  0.51100000000E-03 0. -1.
    9900012    2    1    2    0    0  0.10953945508E+01 -0.35986701629E+00 -0.25216244414E+00  0.90007754521E+02  0.90000016081E+02 0.  0.
        -12    1    1    2    0    0 -0.10953945508E+01  0.35986701629E+00  0.25216244414E+00  0.11802454786E+01  0.00000000000E+00 0.  1.
         11    1    3    3    0    0  0.19844422027E+01  0.12490634418E+01 -0.86086812944E+01  0.89223071135E+01  0.51100000000E-03 0. -1.
        -11    1    3    3    0    0 -0.26921949602E+02 -0.27503004963E+02  0.18909557651E+02  0.42880975073E+02  0.51100000000E-03 0.  1.
         12    1    3    3    0    0  0.26032901950E+02  0.25894074505E+02 -0.10553038801E+02  0.38204472335E+02  0.00000000000E+00 0. -1.
</event>
<event>
 7    1  0.3622165E-015  0.9000774E+02  0.7816164E-02  0.1186339E+00
        -11   -1    0    0    0    0  0.00000000000E+00  0.00000000000E+00  0.45593999997E+02  0.45594000000E+02  0.51100000000E-03 0.  1.
         11   -1    0    0    0    0 -0.00000000000E+00 -0.00000000000E+00 -0.45593999997E+02  0.45594000000E+02  0.51100000000E-03 0. -1.
    9900012    2    1    2    0    0  0.57964841711E+00  0.76153251503E+00 -0.69071353973E+00  0.90007741870E+02  0.90000003263E+02 0.  0.
        -12    1    1    2    0    0 -0.57964841711E+00 -0.76153251503E+00  0.69071353973E+00  0.11802581298E+01  0.00000000000E+00 0.  1.
         11    1    3    3    0    0  0.25495554436E+01 -0.26448732587E+01  0.10825079164E+02  0.11431444646E+02  0.51100000000E-03 0. -1.
        -11    1    3    3    0    0 -0.50064768211E+01 -0.19807833609E+02  0.26784505773E+02  0.33687161237E+02  0.51100000000E-03 0.  1.
         12    1    3    3    0    0  0.30365697946E+01  0.23214239383E+02 -0.38300298477E+02  0.44889135987E+02  0.00000000000E+00 0. -1.
</event>
<event>
 7    1  0.3622165E-015  0.9000775E+02  0.7816164E-02  0.1186339E+00
        -11   -1    0    0    0    0  0.00000000000E+00  0.00000000000E+00  0.45593999997E+02  0.45594000000E+02  0.51100000000E-03 0. -1.
         11   -1    0    0    0    0 -0.00000000000E+00 -0.00000000000E+00 -0.45593999997E+02  0.45594000000E+02  0.51100000000E-03 0.  1.
    9900012    2    1    2    0    0 -0.38717496942E+00 -0.52292805289E+00  0.98470451723E+00  0.90007745285E+02  0.90000006723E+02 0.  0.
        -12    1    1    2    0    0  0.38717496942E+00  0.52292805289E+00 -0.98470451723E+00  0.11802547148E+01  0.00000000000E+00 0.  1.
         11    1    3    3    0    0 -0.20255682679E+02  0.59830110901E+01  0.25857165208E+02  0.33386855128E+02  0.51100000000E-03 0. -1.
        -11    1    3    3    0    0 -0.44475704891E+01  0.76016613104E+01  0.90067078729E+01  0.12597099861E+02  0.51100000000E-03 0.  1.
        -12    1    3    3    0    0  0.24316078199E+02 -0.14107600453E+02 -0.33879168563E+02  0.44023790296E+02  0.00000000000E+00 0.  1.
</event>
<event>
 7    1  0.3622165E-015  0.9000768E+02  0.7816164E-02  0.1186339E+00
        -11   -1    0    0    0    0  0.00000000000E+00  0.00000000000E+00  0.45593999997E+02  0.45594000000E+02  0.51100000000E-03 0.  1.
         11   -1    0    0    0    0 -0.00000000000E+00 -0.00000000000E+00 -0.45593999997E+02  0.45594000000E+02  0.51100000000E-03 0. -1.
    9900012    2    1    2    0    0  0.88846691083E+00  0.80648798928E-02 -0.77699564898E+00  0.90007677700E+02  0.89999938245E+02 0.  0.
        -12    1    1    2    0    0 -0.88846691083E+00 -0.80648798928E-02  0.77699564898E+00  0.11803223002E+01  0.00000000000E+00 0.  1.
         11    1    3    3    0    0 -0.12300691428E+02 -0.11652444608E+02 -0.35423244660E+02  0.39266942043E+02  0.51100000000E-03 0. -1.
        -11    1    3    3    0    0  0.59727478211E+00 -0.95615367363E+01  0.19482956578E+01  0.97762762930E+01  0.51100000000E-03 0.  1.
        -12    1    3    3    0    0  0.12591883557E+02  0.21222046224E+02  0.32697953353E+02  0.40964459363E+02  0.00000000000E+00 0.  1.
</event>
<event>
 7    1  0.3622165E-015  0.9000765E+02  0.7816164E-02  0.1186339E+00
        -11   -1    0    0    0    0  0.00000000000E+00  0.00000000000E+00  0.45593999997E+02  0.45594000000E+02  0.51100000000E-03 0.  1.
         11   -1    0    0    0    0 -0.00000000000E+00 -0.00000000000E+00 -0.45593999997E+02  0.45594000000E+02  0.51100000000E-03 0. -1.
    9900012    2    1    2    0    0 -0.84328826785E+00 -0.11511748263E+00 -0.81783249614E+00  0.90007645338E+02  0.89999905456E+02 0.  0.
        -12    1    1    2    0    0  0.84328826785E+00  0.11511748263E+00  0.81783249614E+00  0.11803546625E+01  0.00000000000E+00 0.  1.
         11    1    3    3    0    0 -0.11865497158E+02  0.27231004219E+02 -0.24765513797E+02  0.38673612289E+02  0.51100000000E-03 0. -1.
        -11    1    3    3    0    0 -0.26525153296E+01  0.73519576602E+01  0.64701546241E+01  0.10146428935E+02  0.51100000000E-03 0.  1.
        -12    1    3    3    0    0  0.13674724220E+02 -0.34698079362E+02  0.17477526677E+02  0.41187604114E+02  0.00000000000E+00 0.  1.
</event>
<event>
 7    1  0.3622165E-015  0.9000770E+02  0.7816164E-02  0.1186339E+00
        -11   -1    0    0    0    0  0.00000000000E+00  0.00000000000E+00  0.45593999997E+02  0.45594000000E+02  0.51100000000E-03 0. -1.
         11   -1    0    0    0    0 -0.00000000000E+00 -0.00000000000E+00 -0.45593999997E+02  0.45594000000E+02  0.51100000000E-03 0.  1.
    9900012    2    1    2    0    0 -0.85582604517E+00 -0.69437354314E+00 -0.42249936852E+00  0.90007704040E+02  0.89999964933E+02 0.  0.
        -12    1    1    2    0    0  0.85582604517E+00  0.69437354314E+00  0.42249936852E+00  0.11802959601E+01  0.00000000000E+00 0.  1.
         11    1    3    3    0    0  0.25477423063E+01  0.41822591401E+01  0.12936653777E+02  0.13832544726E+02  0.51100000000E-03 0. -1.
        -11    1    3    3    0    0  0.34053893276E+02  0.81935330764E+01 -0.96447346350E+01  0.36329361927E+02  0.51100000000E-03 0.  1.
         12    1    3    3    0    0 -0.37457461628E+02 -0.13070165760E+02 -0.37144185107E+01  0.39845797388E+02  0.00000000000E+00 0. -1.
</event>
<event>
 7    1  0.3622165E-015  0.9000777E+02  0.7816164E-02  0.1186339E+00
        -11   -1    0    0    0    0  0.00000000000E+00  0.00000000000E+00  0.45593999997E+02  0.45594000000E+02  0.51100000000E-03 0.  1.
         11   -1    0    0    0    0 -0.00000000000E+00 -0.00000000000E+00 -0.45593999997E+02  0.45594000000E+02  0.51100000000E-03 0. -1.
    9900012    2    1    2    0    0  0.11289071399E+01 -0.20173369796E+00 -0.27895236784E+00  0.90007770260E+02  0.90000032027E+02 0.  0.
        -12    1    1    2    0    0 -0.11289071399E+01  0.20173369796E+00  0.27895236784E+00  0.11802297399E+01  0.00000000000E+00 0.  1.
         11    1    3    3    0    0 -0.33427494435E+02 -0.14199877007E+02 -0.10533176838E+02  0.37815098913E+02  0.51100000000E-03 0. -1.
        -11    1    3    3    0    0  0.25135334898E+01 -0.93897113038E+01 -0.33084633809E+01  0.10267933540E+02  0.51100000000E-03 0.  1.
        -12    1    3    3    0    0  0.32042868085E+02  0.23387854613E+02  0.13562687851E+02  0.41924737808E+02  0.00000000000E+00 0.  1.
</event>
<event>
 7    1  0.3622165E-015  0.9000773E+02  0.7816164E-02  0.1186339E+00
        -11   -1    0    0    0    0  0.00000000000E+00  0.00000000000E+00  0.45593999997E+02  0.45594000000E+02  0.51100000000E-03 0. -1.
         11   -1    0    0    0    0 -0.00000000000E+00 -0.00000000000E+00 -0.45593999997E+02  0.45594000000E+02  0.51100000000E-03 0.  1.
    9900012    2    1    2    0    0  0.12851737337E+00  0.10946917562E+01 -0.42209700086E+00  0.90007731965E+02  0.89999993227E+02 0.  0.
        -12    1    1    2    0    0 -0.12851737337E+00 -0.10946917562E+01  0.42209700086E+00  0.11802680351E+01  0.00000000000E+00 0.  1.
         11    1    3    3    0    0 -0.51552330331E+01 -0.29702032898E+02  0.27936661896E+02  0.41100416836E+02  0.51100000000E-03 0. -1.
        -11    1    3    3    0    0 -0.49741885696E+01  0.88722877577E+01  0.17015867505E+01  0.10312877373E+02  0.51100000000E-03 0.  1.
        -12    1    3    3    0    0  0.10257938976E+02  0.21924436896E+02 -0.30060345648E+02  0.38594437756E+02  0.00000000000E+00 0.  1.
</event>
<event>
 7    1  0.3622165E-015  0.9000779E+02  0.7816164E-02  0.1186339E+00
        -11   -1    0    0    0    0  0.00000000000E+00  0.00000000000E+00  0.45593999997E+02  0.45594000000E+02  0.51100000000E-03 0. -1.
         11   -1    0    0    0    0 -0.00000000000E+00 -0.00000000000E+00 -0.45593999997E+02  0.45594000000E+02  0.51100000000E-03 0.  1.
    9900012    2    1    2    0    0 -0.39986653295E+00 -0.40073642284E+00  0.10355692639E+01  0.90007793821E+02  0.90000055899E+02 0.  0.
        -12    1    1    2    0    0  0.39986653295E+00  0.40073642284E+00 -0.10355692639E+01  0.11802061791E+01  0.00000000000E+00 0.  1.
         11    1    3    3    0    0 -0.29117050842E+01  0.32317200520E+01 -0.76949569961E+01  0.88393667434E+01  0.51100000000E-03 0. -1.
        -11    1    3    3    0    0  0.33759263228E+02 -0.24065916046E+02  0.13333495873E+02  0.43550410805E+02  0.51100000000E-03 0.  1.
         12    1    3    3    0    0 -0.31247424677E+02  0.20433459571E+02 -0.46029696127E+01  0.37618016272E+02  0.00000000000E+00 0. -1.
</event>
<event>
 7    1  0.3622165E-015  0.9000775E+02  0.7816164E-02  0.1186339E+00
        -11   -1    0    0    0    0  0.00000000000E+00  0.00000000000E+00  0.45593999997E+02  0.45594000000E+02  0.51100000000E-03 0. -1.
         11   -1    0    0    0    0 -0.00000000000E+00 -0.00000000000E+00 -0.45593999997E+02  0.45594000000E+02  0.51100000000E-03 0.  1.
    9900012    2    1    2    0    0  0.89334228350E+00  0.56163690718E+00  0.52866296115E+00  0.90007753849E+02  0.90000015400E+02 0.  0.
        -12    1    1    2    0    0 -0.89334228350E+00 -0.56163690718E+00 -0.52866296115E+00  0.11802461512E+01  0.00000000000E+00 0.  1.
         11    1    3    3    0    0  0.39251485441E+01  0.20499868492E+01 -0.76720988873E+01  0.88583485353E+01  0.51100000000E-03 0. -1.
        -11    1    3    3    0    0 -0.13331222873E+02 -0.38811917606E+01 -0.34484083692E+02  0.37174415679E+02  0.51100000000E-03 0.  1.
         12    1    3    3    0    0  0.10299416612E+02  0.23928418186E+01  0.42684845540E+02  0.43974989634E+02  0.00000000000E+00 0. -1.
</event>
<event>
 7    1  0.3622165E-015  0.9000784E+02  0.7816164E-02  0.1186339E+00
        -11   -1    0    0    0    0  0.00000000000E+00  0.00000000000E+00  0.45593999997E+02  0.45594000000E+02  0.51100000000E-03 0.  1.
         11   -1    0    0    0    0 -0.00000000000E+00 -0.00000000000E+00 -0.45593999997E+02  0.45594000000E+02  0.51100000000E-03 0. -1.
    9900012    2    1    2    0    0  0.79721334946E-01  0.11043804707E+01  0.40838398749E+00  0.90007835098E+02  0.90000097721E+02 0.  0.
        -12    1    1    2    0    0 -0.79721334946E-01 -0.11043804707E+01 -0.40838398749E+00  0.11801649023E+01  0.00000000000E+00 0.  1.
         11    1    3    3    0    0 -0.23884336405E+02 -0.77605575936E+01  0.36281722695E+02  0.44125402906E+02  0.51100000000E-03 0. -1.
        -11    1    3    3    0    0  0.64457093025E+01  0.38594823753E+01 -0.26046528389E+01  0.79515400578E+01  0.51100000000E-03 0.  1.
        -12    1    3    3    0    0  0.17518348437E+02  0.50054556890E+01 -0.33268685869E+02  0.37930892134E+02  0.00000000000E+00 0.  1.
</event>
<event>
 7    1  0.3622165E-015  0.9000741E+02  0.7816164E-02  0.1186340E+00
        -11   -1    0    0    0    0  0.00000000000E+00  0.00000000000E+00  0.45593999997E+02  0.45594000000E+02  0.51100000000E-03 0. -1.
         11   -1    0    0    0    0 -0.00000000000E+00 -0.00000000000E+00 -0.45593999997E+02  0.45594000000E+02  0.51100000000E-03 0.  1.
    9900012    2    1    2    0    0 -0.53933045752E-01 -0.10713733640E+01  0.49298445356E+00  0.90007413989E+02  0.89999671053E+02 0.  0.
        -12    1    1    2    0    0  0.53933045752E-01  0.10713733640E+01 -0.49298445356E+00  0.11805860112E+01  0.00000000000E+00 0.  1.
         11    1    3    3    0    0 -0.64385411540E+00  0.89129369364E+01  0.42062532497E+01  0.98766168102E+01  0.51100000000E-03 0. -1.
        -11    1    3    3    0    0 -0.25544882884E+02  0.15347046566E+02  0.20718071690E+02  0.36294784400E+02  0.51100000000E-03 0.  1.
         12    1    3    3    0    0  0.26134803953E+02 -0.25331356867E+02 -0.24431340486E+02  0.43836012779E+02  0.00000000000E+00 0. -1.
</event>
<event>
 7    1  0.3622165E-015  0.9000766E+02  0.7816164E-02  0.1186339E+00
        -11   -1    0    0    0    0  0.00000000000E+00  0.00000000000E+00  0.45593999997E+02  0.45594000000E+02  0.51100000000E-03 0. -1.
         11   -1    0    0    0    0 -0.00000000000E+00 -0.00000000000E+00 -0.45593999997E+02  0.45594000000E+02  0.51100000000E-03 0.  1.
    9900012    2    1    2    0    0 -0.11602996867E+01  0.17293100688E-01  0.21589859884E+00  0.90007658262E+02  0.89999918551E+02 0.  0.
        -12    1    1    2    0    0  0.11602996867E+01 -0.17293100688E-01 -0.21589859884E+00  0.11803417384E+01  0.00000000000E+00 0.  1.
         11    1    3    3    0    0 -0.31523913242E+02 -0.69277376656E+01 -0.26874352150E+01  0.32387852098E+02  0.51100000000E-03 0. -1.
        -11    1    3    3    0    0 -0.70747214977E+01 -0.13234489321E+02  0.30133948154E+00  0.15009803383E+02  0.51100000000E-03 0.  1.
        -12    1    3    3    0    0  0.37438335053E+02  0.20179520087E+02  0.26019943323E+01  0.42610002781E+02  0.00000000000E+00 0.  1.
</event>
<event>
 7    1  0.3622165E-015  0.9000770E+02  0.7816164E-02  0.1186339E+00
        -11   -1    0    0    0    0  0.00000000000E+00  0.00000000000E+00  0.45593999997E+02  0.45594000000E+02  0.51100000000E-03 0.  1.
         11   -1    0    0    0    0 -0.00000000000E+00 -0.00000000000E+00 -0.45593999997E+02  0.45594000000E+02  0.51100000000E-03 0. -1.
    9900012    2    1    2    0    0 -0.76172477902E+00 -0.85075980782E+00  0.29849571217E+00  0.90007696404E+02  0.89999957196E+02 0.  0.
        -12    1    1    2    0    0  0.76172477902E+00  0.85075980782E+00 -0.29849571217E+00  0.11803035964E+01  0.00000000000E+00 0.  1.
         11    1    3    3    0    0 -0.17282898742E+02 -0.15050901933E+02 -0.30892045072E+02  0.38464876016E+02  0.51100000000E-03 0. -1.
        -11    1    3    3    0    0 -0.73151549098E+01  0.55380188575E+01 -0.23710108967E+01  0.94764358888E+01  0.51100000000E-03 0.  1.
        -12    1    3    3    0    0  0.23836328872E+02  0.86621232678E+01  0.33561551681E+02  0.42066384499E+02  0.00000000000E+00 0.  1.
</event>
<event>
 7    1  0.3622165E-015  0.9000787E+02  0.7816164E-02  0.1186339E+00
        -11   -1    0    0    0    0  0.00000000000E+00  0.00000000000E+00  0.45593999997E+02  0.45594000000E+02  0.51100000000E-03 0. -1.
         11   -1    0    0    0    0 -0.00000000000E+00 -0.00000000000E+00 -0.45593999997E+02  0.45594000000E+02  0.51100000000E-03 0.  1.
    9900012    2    1    2    0    0  0.10469003153E+01 -0.30417713224E+00  0.45186415940E+00  0.90007870678E+02  0.90000133771E+02 0.  0.
        -12    1    1    2    0    0 -0.10469003153E+01  0.30417713224E+00 -0.45186415940E+00  0.11801293220E+01  0.00000000000E+00 0.  1.
         11    1    3    3    0    0 -0.85319402943E+01 -0.41788398331E+01 -0.62697740939E+01  0.11382740223E+02  0.51100000000E-03 0. -1.
        -11    1    3    3    0    0  0.28126967205E+02  0.86385588981E+00 -0.27650739864E+02  0.39451691300E+02  0.51100000000E-03 0.  1.
         12    1    3    3    0    0 -0.18548126595E+02  0.30108068110E+01  0.34372378117E+02  0.39173439155E+02  0.00000000000E+00 0. -1.
</event>
<event>
 7    1  0.3622165E-015  0.9000796E+02  0.7816164E-02  0.1186339E+00
        -11   -1    0    0    0    0  0.00000000000E+00  0.00000000000E+00  0.45593999997E+02  0.45594000000E+02  0.51100000000E-03 0. -1.
         11   -1    0    0    0    0 -0.00000000000E+00 -0.00000000000E+00 -0.45593999997E+02  0.45594000000E+02  0.51100000000E-03 0.  1.
    9900012    2    1    2    0    0  0.11725302950E+01 -0.10345935189E+00  0.83394676002E-01  0.90007963644E+02  0.90000227963E+02 0.  0.
        -12    1    1    2    0    0 -0.11725302950E+01  0.10345935189E+00 -0.83394676002E-01  0.11800363563E+01  0.00000000000E+00 0.  1.
         11    1    3    3    0    0 -0.23020233256E+01 -0.15137383256E+02  0.35366929541E+02  0.38539063152E+02  0.51100000000E-03 0. -1.
        -11    1    3    3    0    0 -0.74390762843E+01  0.25226621307E+01  0.40044566915E+01  0.88169923356E+01  0.51100000000E-03 0.  1.
        -12    1    3    3    0    0  0.10913629905E+02  0.12511261773E+02 -0.39287991556E+02  0.42651908156E+02  0.00000000000E+00 0.  1.
</event>
<event>
 7    1  0.4245497E-015  0.9000766E+02  0.7816164E-02  0.1186339E+00
        -11   -1    0    0    0    0  0.00000000000E+00  0.00000000000E+00  0.45593999997E+02  0.45594000000E+02  0.51100000000E-03 0.  1.
         11   -1    0    0    0    0 -0.00000000000E+00 -0.00000000000E+00 -0.45593999997E+02  0.45594000000E+02  0.51100000000E-03 0. -1.
    9900012    2    1    2    0    0  0.80808718130E+00  0.72565580133E+00 -0.46218401908E+00  0.90007663056E+02  0.89999923408E+02 0.  0.
        -12    1    1    2    0    0 -0.80808718130E+00 -0.72565580133E+00  0.46218401908E+00  0.11803369443E+01  0.00000000000E+00 0.  1.
         11    1    3    3    0    0  0.30239221322E+02 -0.21067813908E+02 -0.18267866237E+02  0.41133662931E+02  0.51100000000E-03 0. -1.
        -11    1    3    3    0    0  0.38718094802E+01  0.89294092950E+01  0.26334266235E+01  0.10082668052E+02  0.51100000000E-03 0.  1.
        -12    1    3    3    0    0 -0.33302943621E+02  0.12864060415E+02  0.15172255594E+02  0.38791332073E+02  0.00000000000E+00 0.  1.
</event>
<event>
 7    1  0.3622165E-015  0.9000773E+02  0.7816164E-02  0.1186339E+00
        -11   -1    0    0    0    0  0.00000000000E+00  0.00000000000E+00  0.45593999997E+02  0.45594000000E+02  0.51100000000E-03 0.  1.
         11   -1    0    0    0    0 -0.00000000000E+00 -0.00000000000E+00 -0.45593999997E+02  0.45594000000E+02  0.51100000000E-03 0. -1.
    9900012    2    1    2    0    0  0.49865557806E+00 -0.16943687526E+00 -0.10562537541E+01  0.90007729593E+02  0.89999990824E+02 0.  0.
        -12    1    1    2    0    0 -0.49865557806E+00  0.16943687526E+00  0.10562537541E+01  0.11802704068E+01  0.00000000000E+00 0.  1.
         11    1    3    3    0    0  0.15338400747E+01  0.71194034636E+01  0.62641284233E+01  0.96061374245E+01  0.51100000000E-03 0. -1.
        -11    1    3    3    0    0  0.26880199290E+02 -0.64013809231E+01  0.25295299459E+02  0.37461646608E+02  0.51100000000E-03 0.  1.
         12    1    3    3    0    0 -0.27915383787E+02 -0.88745941580E+00 -0.32615681636E+02  0.42939945561E+02  0.00000000000E+00 0. -1.
</event>
<event>
 7    1  0.3622165E-015  0.9000783E+02  0.7816164E-02  0.1186339E+00
        -11   -1    0    0    0    0  0.00000000000E+00  0.00000000000E+00  0.45593999997E+02  0.45594000000E+02  0.51100000000E-03 0. -1.
         11   -1    0    0    0    0 -0.00000000000E+00 -0.00000000000E+00 -0.45593999997E+02  0.45594000000E+02  0.51100000000E-03 0.  1.
    9900012    2    1    2    0    0 -0.32350456221E+00 -0.10601126190E+01  0.40534774568E+00  0.90007830198E+02  0.90000092757E+02 0.  0.
        -12    1    1    2    0    0  0.32350456221E+00  0.10601126190E+01 -0.40534774568E+00  0.11801698020E+01  0.00000000000E+00 0.  1.
         11    1    3    3    0    0  0.18512743476E+01 -0.36608450396E+02 -0.11196492166E+01  0.36672325693E+02  0.51100000000E-03 0. -1.
        -11    1    3    3    0    0 -0.45395529409E+01 -0.77298770472E+01  0.42222586029E+01  0.99088853076E+01  0.51100000000E-03 0.  1.
        -12    1    3    3    0    0  0.23647740311E+01  0.43278214824E+02 -0.26972616406E+01  0.43426619198E+02  0.00000000000E+00 0.  1.
</event>
<event>
 7    1  0.3622165E-015  0.9000745E+02  0.7816164E-02  0.1186340E+00
        -11   -1    0    0    0    0  0.00000000000E+00  0.00000000000E+00  0.45593999997E+02  0.45594000000E+02  0.51100000000E-03 0.  1.
         11   -1    0    0    0    0 -0.00000000000E+00 -0.00000000000E+00 -0.45593999997E+02  0.45594000000E+02  0.51100000000E-03 0. -1.
    9900012    2    1    2    0    0 -0.78158645971E-01 -0.85783678650E+00 -0.80728320882E+00  0.90007449745E+02  0.89999707281E+02 0.  0.
        -12    1    1    2    0    0  0.78158645971E-01  0.85783678650E+00  0.80728320882E+00  0.11805502554E+01  0.00000000000E+00 0.  1.
         11    1    3    3    0    0 -0.12932823555E+02 -0.80707809612E+01 -0.36016612693E+02  0.39109996427E+02  0.51100000000E-03 0. -1.
        -11    1    3    3    0    0  0.63133350964E+01 -0.17623222579E+01 -0.55893136185E+01  0.86141979759E+01  0.51100000000E-03 0.  1.
        -12    1    3    3    0    0  0.65413298124E+01  0.89752664326E+01  0.40798643103E+02  0.42283255341E+02  0.00000000000E+00 0.  1.
</event>
<event>
 7    1  0.3622165E-015  0.9000773E+02  0.7816164E-02  0.1186339E+00
        -11   -1    0    0    0    0  0.00000000000E+00  0.00000000000E+00  0.45593999997E+02  0.45594000000E+02  0.51100000000E-03 0.  1.
         11   -1    0    0    0    0 -0.00000000000E+00 -0.00000000000E+00 -0.45593999997E+02  0.45594000000E+02  0.51100000000E-03 0. -1.
    9900012    2    1    2    0    0 -0.57895552761E+00 -0.73289145867E+00  0.72160879303E+00  0.90007729419E+02  0.89999990648E+02 0.  0.
        -12    1    1    2    0    0  0.57895552761E+00  0.73289145867E+00 -0.72160879303E+00  0.11802705806E+01  0.00000000000E+00 0.  1.
         11    1    3    3    0    0 -0.89048674618E+01 -0.42645734957E+01  0.26519453411E+00  0.98769215859E+01  0.51100000000E-03 0. -1.
        -11    1    3    3    0    0 -0.28952370539E+02  0.21300060855E+02 -0.10425337042E+02  0.37424858115E+02  0.51100000000E-03 0.  1.
         12    1    3    3    0    0  0.37278282473E+02 -0.17768378818E+02  0.10881751301E+02  0.42705949718E+02  0.00000000000E+00 0. -1.
</event>
<event>
 7    1  0.3622165E-015  0.9000770E+02  0.7816164E-02  0.1186339E+00
        -11   -1    0    0    0    0  0.00000000000E+00  0.00000000000E+00  0.45593999997E+02  0.45594000000E+02  0.51100000000E-03 0.  1.
         11   -1    0    0    0    0 -0.00000000000E+00 -0.00000000000E+00 -0.45593999997E+02  0.45594000000E+02  0.51100000000E-03 0. -1.
    9900012    2    1    2    0    0 -0.95410190618E+00 -0.63018324107E+00  0.29270227201E+00  0.90007696656E+02  0.89999957451E+02 0.  0.
        -12    1    1    2    0    0  0.95410190618E+00  0.63018324107E+00 -0.29270227201E+00  0.11803033444E+01  0.00000000000E+00 0.  1.
         11    1    3    3    0    0 -0.55838586947E+01  0.10390688527E+00  0.68289872048E+01  0.88218672098E+01  0.51100000000E-03 0. -1.
        -11    1    3    3    0    0 -0.35865567092E+02 -0.25364608429E+01 -0.16321217595E+02  0.39486132761E+02  0.51100000000E-03 0.  1.
         12    1    3    3    0    0  0.40495323880E+02  0.18023707165E+01  0.97849326619E+01  0.41699696684E+02  0.00000000000E+00 0. -1.
</event>
<event>
 7    1  0.3622165E-015  0.9000778E+02  0.7816164E-02  0.1186339E+00
        -11   -1    0    0    0    0  0.00000000000E+00  0.00000000000E+00  0.45593999997E+02  0.45594000000E+02  0.51100000000E-03 0. -1.
         11   -1    0    0    0    0 -0.00000000000E+00 -0.00000000000E+00 -0.45593999997E+02  0.45594000000E+02  0.51100000000E-03 0.  1.
    9900012    2    1    2    0    0  0.40797787632E+00  0.78106069243E+00  0.78511893549E+00  0.90007782437E+02  0.90000044365E+02 0.  0.
        -12    1    1    2    0    0 -0.40797787632E+00 -0.78106069243E+00 -0.78511893549E+00  0.11802175629E+01  0.00000000000E+00 0.  1.
         11    1    3    3    0    0 -0.35384888584E+02 -0.16454820010E+02  0.13527472043E+02  0.41301863660E+02  0.51100000000E-03 0. -1.
        -11    1    3    3    0    0  0.16000752332E-01  0.10523123230E+02 -0.16464035121E+01  0.10651151267E+02  0.51100000000E-03 0.  1.
        -12    1    3    3    0    0  0.35776865708E+02  0.67127574728E+01 -0.11095949595E+02  0.38054767510E+02  0.00000000000E+00 0.  1.
</event>
<event>
 7    1  0.3622165E-015  0.9000834E+02  0.7816164E-02  0.1186338E+00
        -11   -1    0    0    0    0  0.00000000000E+00  0.00000000000E+00  0.45593999997E+02  0.45594000000E+02  0.51100000000E-03 0.  1.
         11   -1    0    0    0    0 -0.00000000000E+00 -0.00000000000E+00 -0.45593999997E+02  0.45594000000E+02  0.51100000000E-03 0. -1.
    9900012    2    1    2    0    0  0.83636212477E+00  0.80624771114E+00 -0.20509095407E+00  0.90008339339E+02  0.90000608616E+02 0.  0.
        -12    1    1    2    0    0 -0.83636212477E+00 -0.80624771114E+00  0.20509095407E+00  0.11796606609E+01  0.00000000000E+00 0.  1.
         11    1    3    3    0    0 -0.18986557781E+02 -0.17864116435E+02  0.29730525357E+02  0.39541372898E+02  0.51100000000E-03 0. -1.
        -11    1    3    3    0    0  0.83524917568E+01 -0.27171065390E+01  0.32401454719E+01  0.93619084290E+01  0.51100000000E-03 0.  1.
        -12    1    3    3    0    0  0.11470428149E+02  0.21387470685E+02 -0.33175761783E+02  0.41105058012E+02  0.00000000000E+00 0.  1.
</event>
<event>
 7    1  0.3622165E-015  0.9000781E+02  0.7816164E-02  0.1186339E+00
        -11   -1    0    0    0    0  0.00000000000E+00  0.00000000000E+00  0.45593999997E+02  0.45594000000E+02  0.51100000000E-03 0. -1.
         11   -1    0    0    0    0 -0.00000000000E+00 -0.00000000000E+00 -0.45593999997E+02  0.45594000000E+02  0.51100000000E-03 0.  1.
    9900012    2    1    2    0    0 -0.15769752306E+00 -0.54786731390E+00  0.10333505380E+01  0.90007813389E+02  0.90000075726E+02 0.  0.
        -12    1    1    2    0    0  0.15769752306E+00  0.54786731390E+00 -0.10333505380E+01  0.11801866110E+01  0.00000000000E+00 0.  1.
         11    1    3    3    0    0  0.49995596837E+01  0.17908022132E+02  0.34182975581E+02  0.38912320332E+02  0.51100000000E-03 0. -1.
        -11    1    3    3    0    0  0.82765880308E+01  0.53210317007E+00  0.23809196898E+01  0.86286628191E+01  0.51100000000E-03 0.  1.
        -12    1    3    3    0    0 -0.13433845237E+02 -0.18987992616E+02 -0.35530544733E+02  0.42466830238E+02  0.00000000000E+00 0.  1.
</event>
<event>
 7    1  0.6511685E-015  0.9000773E+02  0.7816164E-02  0.1186339E+00
        -11   -1    0    0    0    0  0.00000000000E+00  0.00000000000E+00  0.45593999997E+02  0.45594000000E+02  0.51100000000E-03 0. -1.
         11   -1    0    0    0    0 -0.00000000000E+00 -0.00000000000E+00 -0.45593999997E+02  0.45594000000E+02  0.51100000000E-03 0.  1.
    9900012    2    1    2    0    0 -0.87864180133E-01  0.81623121302E+00  0.84799188599E+00  0.90007727258E+02  0.89999988458E+02 0.  0.
        -12    1    1    2    0    0  0.87864180133E-01 -0.81623121302E+00 -0.84799188599E+00  0.11802727422E+01  0.00000000000E+00 0.  1.
         11    1    3    3    0    0 -0.91395654505E+01  0.40438369828E+01  0.37954875738E+02  0.39248654330E+02  0.51100000000E-03 0. -1.
        -11    1    3    3    0    0  0.48201090300E+01 -0.69186013345E+01  0.39560387749E+01  0.93140076517E+01  0.51100000000E-03 0.  1.
        -12    1    3    3    0    0  0.42315922404E+01  0.36909955647E+01 -0.41062922626E+02  0.41445065277E+02  0.00000000000E+00 0.  1.
</event>
<event>
 7    1  0.3622165E-015  0.9000762E+02  0.7816164E-02  0.1186339E+00
        -11   -1    0    0    0    0  0.00000000000E+00  0.00000000000E+00  0.45593999997E+02  0.45594000000E+02  0.51100000000E-03 0. -1.
         11   -1    0    0    0    0 -0.00000000000E+00 -0.00000000000E+00 -0.45593999997E+02  0.45594000000E+02  0.51100000000E-03 0.  1.
    9900012    2    1    2    0    0  0.10186205975E+01 -0.44755880837E+00  0.39420593961E+00  0.90007620768E+02  0.89999880562E+02 0.  0.
        -12    1    1    2    0    0 -0.10186205975E+01  0.44755880837E+00 -0.39420593961E+00  0.11803792320E+01  0.00000000000E+00 0.  1.
         11    1    3    3    0    0  0.12876726049E+02 -0.15827938275E-01  0.22499817927E+02  0.25923968278E+02  0.51100000000E-03 0. -1.
        -11    1    3    3    0    0 -0.83226504368E+01  0.18918416147E+02  0.12589322833E+02  0.24200496472E+02  0.51100000000E-03 0.  1.
        -12    1    3    3    0    0 -0.35354550149E+01 -0.19350147018E+02 -0.34694934821E+02  0.39883156018E+02  0.00000000000E+00 0.  1.
</event>
<event>
 7    1  0.3622165E-015  0.9000781E+02  0.7816164E-02  0.1186339E+00
        -11   -1    0    0    0    0  0.00000000000E+00  0.00000000000E+00  0.45593999997E+02  0.45594000000E+02  0.51100000000E-03 0. -1.
         11   -1    0    0    0    0 -0.00000000000E+00 -0.00000000000E+00 -0.45593999997E+02  0.45594000000E+02  0.51100000000E-03 0.  1.
    9900012    2    1    2    0    0 -0.70458363507E+00  0.94356379482E+00  0.78139667653E-01  0.90007806566E+02  0.90000068813E+02 0.  0.
        -12    1    1    2    0    0  0.70458363507E+00 -0.94356379482E+00 -0.78139667653E-01  0.11801934339E+01  0.00000000000E+00 0.  1.
         11    1    3    3    0    0 -0.87101692351E+01 -0.20969553510E+01  0.33483300369E+00  0.89652876836E+01  0.51100000000E-03 0. -1.
        -11    1    3    3    0    0 -0.62148628425E+01 -0.37118861921E+02  0.55616234533E+01  0.38044264826E+02  0.51100000000E-03 0.  1.
         12    1    3    3    0    0  0.14220448443E+02  0.40159381067E+02 -0.58183167894E+01  0.42998254056E+02  0.00000000000E+00 0. -1.
</event>
<event>
 7    1  0.3622165E-015  0.9000825E+02  0.7816164E-02  0.1186338E+00
        -11   -1    0    0    0    0  0.00000000000E+00  0.00000000000E+00  0.45593999997E+02  0.45594000000E+02  0.51100000000E-03 0.  1.
         11   -1    0    0    0    0 -0.00000000000E+00 -0.00000000000E+00 -0.45593999997E+02  0.45594000000E+02  0.51100000000E-03 0. -1.
    9900012    2    1    2    0    0 -0.55919079706E-01 -0.11756641711E+01 -0.80596828996E-01  0.90008250435E+02  0.90000518539E+02 0.  0.
        -12    1    1    2    0    0  0.55919079706E-01  0.11756641711E+01  0.80596828996E-01  0.11797495648E+01  0.00000000000E+00 0.  1.
         11    1    3    3    0    0  0.58040186558E+01 -0.36203033683E+01 -0.40199527719E+02  0.40777386603E+02  0.51100000000E-03 0. -1.
        -11    1    3    3    0    0 -0.31700216251E+01  0.56612852606E+01 -0.20880588895E+01  0.68160969838E+01  0.51100000000E-03 0.  1.
        -12    1    3    3    0    0 -0.26899161104E+01 -0.32166460635E+01  0.42206989780E+02  0.42414766849E+02  0.00000000000E+00 0.  1.
</event>
<event>
 7    1  0.3622165E-015  0.9000762E+02  0.7816164E-02  0.1186339E+00
        -11   -1    0    0    0    0  0.00000000000E+00  0.00000000000E+00  0.45593999997E+02  0.45594000000E+02  0.51100000000E-03 0.  1.
         11   -1    0    0    0    0 -0.00000000000E+00 -0.00000000000E+00 -0.45593999997E+02  0.45594000000E+02  0.51100000000E-03 0. -1.
    9900012    2    1    2    0    0 -0.48786131275E-01 -0.11333953127E+01 -0.32607978981E+00  0.90007621649E+02  0.89999881455E+02 0.  0.
        -12    1    1    2    0    0  0.48786131275E-01  0.11333953127E+01  0.32607978981E+00  0.11803783506E+01  0.00000000000E+00 0.  1.
         11    1    3    3    0    0  0.17991360083E+02 -0.28496509178E+02 -0.16569479310E+02  0.37553797648E+02  0.51100000000E-03 0. -1.
        -11    1    3    3    0    0  0.56483433856E+01 -0.58992386260E+01  0.65862441866E+01  0.10492064245E+02  0.51100000000E-03 0.  1.
        -12    1    3    3    0    0 -0.23688489599E+02  0.33262352491E+02  0.96571553332E+01  0.41961759757E+02  0.00000000000E+00 0.  1.
</event>
<event>
 7    1  0.3622165E-015  0.9000778E+02  0.7816164E-02  0.1186339E+00
        -11   -1    0    0    0    0  0.00000000000E+00  0.00000000000E+00  0.45593999997E+02  0.45594000000E+02  0.51100000000E-03 0.  1.
         11   -1    0    0    0    0 -0.00000000000E+00 -0.00000000000E+00 -0.45593999997E+02  0.45594000000E+02  0.51100000000E-03 0. -1.
    9900012    2    1    2    0    0  0.76187511100E+00 -0.90023080268E+00 -0.45272880204E-01  0.90007780183E+02  0.90000042081E+02 0.  0.
        -12    1    1    2    0    0 -0.76187511100E+00  0.90023080268E+00  0.45272880204E-01  0.11802198170E+01  0.00000000000E+00 0.  1.
         11    1    3    3    0    0  0.23627835756E+02 -0.25869971201E+02  0.13891673883E+02  0.37689635657E+02  0.51100000000E-03 0. -1.
        -11    1    3    3    0    0  0.14286543199E+01 -0.83178961155E+01 -0.59879407550E+01  0.10348134310E+02  0.51100000000E-03 0.  1.
        -12    1    3    3    0    0 -0.24294614965E+02  0.33287636514E+02 -0.79490060081E+01  0.41970010215E+02  0.00000000000E+00 0.  1.
</event>
<event>
 7    1  0.3622165E-015  0.9000771E+02  0.7816164E-02  0.1186339E+00
        -11   -1    0    0    0    0  0.00000000000E+00  0.00000000000E+00  0.45593999997E+02  0.45594000000E+02  0.51100000000E-03 0.  1.
         11   -1    0    0    0    0 -0.00000000000E+00 -0.00000000000E+00 -0.45593999997E+02  0.45594000000E+02  0.51100000000E-03 0. -1.
    9900012    2    1    2    0    0 -0.14883051523E-01  0.11766614891E+01  0.91263930485E-01  0.90007710684E+02  0.89999971665E+02 0.  0.
        -12    1    1    2    0    0  0.14883051523E-01 -0.11766614891E+01 -0.91263930485E-01  0.11802893162E+01  0.00000000000E+00 0.  1.
         11    1    3    3    0    0 -0.68411290243E+01 -0.34257115033E+02 -0.33215322141E+01  0.35091075122E+02  0.51100000000E-03 0. -1.
        -11    1    3    3    0    0 -0.31619988820E+00 -0.92185061851E+01  0.29843173580E+01  0.96946887010E+01  0.51100000000E-03 0.  1.
        -12    1    3    3    0    0  0.71424458609E+01  0.44652282707E+02  0.42847878661E+00  0.45221946861E+02  0.00000000000E+00 0.  1.
</event>
<event>
 7    1  0.3622165E-015  0.9000762E+02  0.7816164E-02  0.1186339E+00
        -11   -1    0    0    0    0  0.00000000000E+00  0.00000000000E+00  0.45593999997E+02  0.45594000000E+02  0.51100000000E-03 0.  1.
         11   -1    0    0    0    0 -0.00000000000E+00 -0.00000000000E+00 -0.45593999997E+02  0.45594000000E+02  0.51100000000E-03 0. -1.
    9900012    2    1    2    0    0 -0.12357800945E+00  0.92412983783E+00  0.72387736127E+00  0.90007624672E+02  0.89999884517E+02 0.  0.
        -12    1    1    2    0    0  0.12357800945E+00 -0.92412983783E+00 -0.72387736127E+00  0.11803753283E+01  0.00000000000E+00 0.  1.
         11    1    3    3    0    0  0.25126281375E+01  0.86357408177E+01 -0.12338696550E+01  0.90780919920E+01  0.51100000000E-03 0. -1.
        -11    1    3    3    0    0 -0.18399887411E+02  0.31587263378E+02 -0.80249928055E+01  0.37426081470E+02  0.51100000000E-03 0.  1.
         12    1    3    3    0    0  0.15763681264E+02 -0.39298874358E+02  0.99827398218E+01  0.43503451209E+02  0.00000000000E+00 0. -1.
</event>
<event>
 7    1  0.3622165E-015  0.9000794E+02  0.7816164E-02  0.1186339E+00
        -11   -1    0    0    0    0  0.00000000000E+00  0.00000000000E+00  0.45593999997E+02  0.45594000000E+02  0.51100000000E-03 0. -1.
         11   -1    0    0    0    0 -0.00000000000E+00 -0.00000000000E+00 -0.45593999997E+02  0.45594000000E+02  0.51100000000E-03 0.  1.
    9900012    2    1    2    0    0  0.15788767163E+00 -0.15709595274E+00  0.11588469753E+01  0.90007943236E+02  0.90000207286E+02 0.  0.
        -12    1    1    2    0    0 -0.15788767163E+00  0.15709595274E+00 -0.11588469753E+01  0.11800567645E+01  0.00000000000E+00 0.  1.
         11    1    3    3    0    0 -0.24060881828E+01 -0.22716090069E+02 -0.30897938527E+01  0.23051178596E+02  0.51100000000E-03 0. -1.
        -11    1    3    3    0    0  0.31432826035E+01 -0.14903482903E+02 -0.17844488765E+02  0.23461027423E+02  0.51100000000E-03 0.  1.
        -12    1    3    3    0    0 -0.57930674907E+00  0.37462477020E+02  0.22093129593E+02  0.43495737216E+02  0.00000000000E+00 0.  1.
</event>
<event>
 7    1  0.3622165E-015  0.9000787E+02  0.7816164E-02  0.1186339E+00
        -11   -1    0    0    0    0  0.00000000000E+00  0.00000000000E+00  0.45593999997E+02  0.45594000000E+02  0.51100000000E-03 0. -1.
         11   -1    0    0    0    0 -0.00000000000E+00 -0.00000000000E+00 -0.45593999997E+02  0.45594000000E+02  0.51100000000E-03 0.  1.
    9900012    2    1    2    0    0  0.86238533916E+00  0.19238761150E+00 -0.78230058904E+00  0.90007866246E+02  0.90000129280E+02 0.  0.
        -12    1    1    2    0    0 -0.86238533916E+00 -0.19238761150E+00  0.78230058904E+00  0.11801337542E+01  0.00000000000E+00 0.  1.
         11    1    3    3    0    0  0.68659208447E+01 -0.89404594928E+01 -0.31969050817E+01  0.11717204758E+02  0.51100000000E-03 0. -1.
        -11    1    3    3    0    0  0.12128514171E+02 -0.18833582192E+02 -0.26123091699E+02  0.34412506365E+02  0.51100000000E-03 0.  1.
         12    1    3    3    0    0 -0.18132049677E+02  0.27966429296E+02  0.28537696191E+02  0.43878155122E+02  0.00000000000E+00 0. -1.
</event>
<event>
 7    1  0.3622165E-015  0.9000778E+02  0.7816164E-02  0.1186339E+00
        -11   -1    0    0    0    0  0.00000000000E+00  0.00000000000E+00  0.45593999997E+02  0.45594000000E+02  0.51100000000E-03 0.  1.
         11   -1    0    0    0    0 -0.00000000000E+00 -0.00000000000E+00 -0.45593999997E+02  0.45594000000E+02  0.51100000000E-03 0. -1.
    9900012    2    1    2    0    0  0.11355349777E+01 -0.29580093628E+00  0.12639332945E+00  0.90007782582E+02  0.90000044512E+02 0.  0.
        -12    1    1    2    0    0 -0.11355349777E+01  0.29580093628E+00 -0.12639332945E+00  0.11802174178E+01  0.00000000000E+00 0.  1.
         11    1    3    3    0    0  0.90568327802E+01  0.33585598978E+01 -0.16631086647E+01  0.98016363576E+01  0.51100000000E-03 0. -1.
        -11    1    3    3    0    0  0.21680657326E+02 -0.36354142609E+01  0.31404006410E+02  0.38333780896E+02  0.51100000000E-03 0.  1.
         12    1    3    3    0    0 -0.29601955129E+02 -0.18946573111E-01 -0.29614504416E+02  0.41872365328E+02  0.00000000000E+00 0. -1.
</event>
<event>
 7    1  0.3622165E-015  0.9000775E+02  0.7816164E-02  0.1186339E+00
        -11   -1    0    0    0    0  0.00000000000E+00  0.00000000000E+00  0.45593999997E+02  0.45594000000E+02  0.51100000000E-03 0. -1.
         11   -1    0    0    0    0 -0.00000000000E+00 -0.00000000000E+00 -0.45593999997E+02  0.45594000000E+02  0.51100000000E-03 0.  1.
    9900012    2    1    2    0    0 -0.51862207242E+00 -0.13837313076E+00  0.10511253183E+01  0.90007754088E+02  0.90000015642E+02 0.  0.
        -12    1    1    2    0    0  0.51862207242E+00  0.13837313076E+00 -0.10511253183E+01  0.11802459117E+01  0.00000000000E+00 0.  1.
         11    1    3    3    0    0  0.85048327571E+01  0.22095489736E+01  0.61057610903E+01  0.10700215215E+02  0.51100000000E-03 0. -1.
        -11    1    3    3    0    0  0.27835501497E+02  0.78320265007E+01  0.18564074762E+02  0.34362489064E+02  0.51100000000E-03 0.  1.
         12    1    3    3    0    0 -0.36858956326E+02 -0.10179948605E+02 -0.23618710534E+02  0.44945049809E+02  0.00000000000E+00 0. -1.
</event>
<event>
 7    1  0.3622165E-015  0.9000809E+02  0.7816164E-02  0.1186338E+00
        -11   -1    0    0    0    0  0.00000000000E+00  0.00000000000E+00  0.45593999997E+02  0.45594000000E+02  0.51100000000E-03 0.  1.
         11   -1    0    0    0    0 -0.00000000000E+00 -0.00000000000E+00 -0.45593999997E+02  0.45594000000E+02  0.51100000000E-03 0. -1.
    9900012    2    1    2    0    0  0.11448385975E+00 -0.45244978306E+00 -0.10836803400E+01  0.90008093038E+02  0.90000359065E+02 0.  0.
        -12    1    1    2    0    0 -0.11448385975E+00  0.45244978306E+00  0.10836803400E+01  0.11799069623E+01  0.00000000000E+00 0.  1.
         11    1    3    3    0    0  0.26523373343E+00  0.19165298226E+02 -0.28202199898E+02  0.34099018818E+02  0.51100000000E-03 0. -1.
        -11    1    3    3    0    0 -0.24902890621E+01  0.88277894944E+01 -0.69185207473E+01  0.11489009381E+02  0.51100000000E-03 0.  1.
        -12    1    3    3    0    0  0.23395391884E+01 -0.28445537503E+02  0.34037040305E+02  0.44420064838E+02  0.00000000000E+00 0.  1.
</event>
<event>
 7    1  0.3622165E-015  0.9000770E+02  0.7816164E-02  0.1186339E+00
        -11   -1    0    0    0    0  0.00000000000E+00  0.00000000000E+00  0.45593999997E+02  0.45594000000E+02  0.51100000000E-03 0.  1.
         11   -1    0    0    0    0 -0.00000000000E+00 -0.00000000000E+00 -0.45593999997E+02  0.45594000000E+02  0.51100000000E-03 0. -1.
    9900012    2    1    2    0    0 -0.10659019842E+01 -0.71231566545E-01 -0.50187770943E+00  0.90007702490E+02  0.89999963363E+02 0.  0.
        -12    1    1    2    0    0  0.10659019842E+01  0.71231566545E-01  0.50187770943E+00  0.11802975096E+01  0.00000000000E+00 0.  1.
         11    1    3    3    0    0  0.72508501900E+01  0.17264984572E+02 -0.36848498394E+02  0.41333598378E+02  0.51100000000E-03 0. -1.
        -11    1    3    3    0    0  0.55114336460E+01  0.36747725125E+01  0.41492104661E+01  0.78163803392E+01  0.51100000000E-03 0.  1.
        -12    1    3    3    0    0 -0.13828185820E+02 -0.21010988651E+02  0.32197410218E+02  0.40857723773E+02  0.00000000000E+00 0.  1.
</event>
<event>
 7    1  0.3622165E-015  0.9000783E+02  0.7816164E-02  0.1186339E+00
        -11   -1    0    0    0    0  0.00000000000E+00  0.00000000000E+00  0.45593999997E+02  0.45594000000E+02  0.51100000000E-03 0. -1.
         11   -1    0    0    0    0 -0.00000000000E+00 -0.00000000000E+00 -0.45593999997E+02  0.45594000000E+02  0.51100000000E-03 0.  1.
    9900012    2    1    2    0    0 -0.77619382353E+00 -0.49122721360E+00  0.74096195510E+00  0.90007828129E+02  0.90000090660E+02 0.  0.
        -12    1    1    2    0    0  0.77619382353E+00  0.49122721360E+00 -0.74096195510E+00  0.11801718714E+01  0.00000000000E+00 0.  1.
         11    1    3    3    0    0 -0.13990840555E+01 -0.79743361519E+00  0.19084608125E+02  0.19152430762E+02  0.51100000000E-03 0. -1.
        -11    1    3    3    0    0 -0.14055938914E+02  0.29959554137E+02 -0.14506762835E+00  0.33093282517E+02  0.51100000000E-03 0.  1.
        -12    1    3    3    0    0  0.14678829146E+02 -0.29653347735E+02 -0.18198578541E+02  0.37762114850E+02  0.00000000000E+00 0.  1.
</event>
<event>
 7    1  0.3622165E-015  0.9000776E+02  0.7816164E-02  0.1186339E+00
        -11   -1    0    0    0    0  0.00000000000E+00  0.00000000000E+00  0.45593999997E+02  0.45594000000E+02  0.51100000000E-03 0.  1.
         11   -1    0    0    0    0 -0.00000000000E+00 -0.00000000000E+00 -0.45593999997E+02  0.45594000000E+02  0.51100000000E-03 0. -1.
    9900012    2    1    2    0    0  0.97650033247E+00 -0.65231401306E-01  0.65967418643E+00  0.90007755082E+02  0.90000016649E+02 0.  0.
        -12    1    1    2    0    0 -0.97650033247E+00  0.65231401306E-01 -0.65967418643E+00  0.11802449183E+01  0.00000000000E+00 0.  1.
         11    1    3    3    0    0 -0.28620883418E+02  0.19255298571E+02  0.90626451384E+01  0.35665852406E+02  0.51100000000E-03 0. -1.
        -11    1    3    3    0    0 -0.68544890168E+01  0.61187920321E+01 -0.56945830070E+00  0.92058632746E+01  0.51100000000E-03 0.  1.
        -12    1    3    3    0    0  0.36451872768E+02 -0.25439322005E+02 -0.78335126513E+01  0.45136039401E+02  0.00000000000E+00 0.  1.
</event>
<event>
 7    1  0.3622165E-015  0.9000774E+02  0.7816164E-02  0.1186339E+00
        -11   -1    0    0    0    0  0.00000000000E+00  0.00000000000E+00  0.45593999997E+02  0.45594000000E+02  0.51100000000E-03 0.  1.
         11   -1    0    0    0    0 -0.00000000000E+00 -0.00000000000E+00 -0.45593999997E+02  0.45594000000E+02  0.51100000000E-03 0. -1.
    9900012    2    1    2    0    0 -0.43593163287E-02 -0.91652356481E+00 -0.74362874619E+00  0.90007738097E+02  0.89999999439E+02 0.  0.
        -12    1    1    2    0    0  0.43593163287E-02  0.91652356481E+00  0.74362874619E+00  0.11802619034E+01  0.00000000000E+00 0.  1.
         11    1    3    3    0    0  0.31597705621E+02 -0.13216107666E+02  0.67842334356E+01  0.34915703142E+02  0.51100000000E-03 0. -1.
        -11    1    3    3    0    0  0.75963959780E+01 -0.61282585264E+01  0.35467818542E+01  0.10384625472E+02  0.51100000000E-03 0.  1.
        -12    1    3    3    0    0 -0.39198460915E+02  0.18427842628E+02 -0.11074644036E+02  0.44707409482E+02  0.00000000000E+00 0.  1.
</event>
<event>
 7    1  0.3622165E-015  0.9000790E+02  0.7816164E-02  0.1186339E+00
        -11   -1    0    0    0    0  0.00000000000E+00  0.00000000000E+00  0.45593999997E+02  0.45594000000E+02  0.51100000000E-03 0.  1.
         11   -1    0    0    0    0 -0.00000000000E+00 -0.00000000000E+00 -0.45593999997E+02  0.45594000000E+02  0.51100000000E-03 0. -1.
    9900012    2    1    2    0    0 -0.71558256948E+00  0.24611604197E+00 -0.90554720008E+00  0.90007895237E+02  0.90000158654E+02 0.  0.
        -12    1    1    2    0    0  0.71558256948E+00 -0.24611604197E+00  0.90554720008E+00  0.11801047629E+01  0.00000000000E+00 0.  1.
         11    1    3    3    0    0  0.45984636451E+01  0.86652664787E+01 -0.15908497259E+01  0.99379834048E+01  0.51100000000E-03 0. -1.
        -11    1    3    3    0    0  0.28944458115E+02 -0.99623117553E+00  0.24298743990E+02  0.37804802498E+02  0.51100000000E-03 0.  1.
         12    1    3    3    0    0 -0.34258504330E+02 -0.74229192612E+01 -0.23613441464E+02  0.42265109335E+02  0.00000000000E+00 0. -1.
</event>
<event>
 7    1  0.3622165E-015  0.9000774E+02  0.7816164E-02  0.1186339E+00
        -11   -1    0    0    0    0  0.00000000000E+00  0.00000000000E+00  0.45593999997E+02  0.45594000000E+02  0.51100000000E-03 0.  1.
         11   -1    0    0    0    0 -0.00000000000E+00 -0.00000000000E+00 -0.45593999997E+02  0.45594000000E+02  0.51100000000E-03 0. -1.
    9900012    2    1    2    0    0  0.32715863869E+00 -0.11184267046E+01  0.18733829540E+00  0.90007742949E+02  0.90000004356E+02 0.  0.
        -12    1    1    2    0    0 -0.32715863869E+00  0.11184267046E+01 -0.18733829540E+00  0.11802570506E+01  0.00000000000E+00 0.  1.
         11    1    3    3    0    0  0.19017666963E+01 -0.49199221175E+01  0.81044065802E+01  0.96697340443E+01  0.51100000000E-03 0. -1.
        -11    1    3    3    0    0 -0.20682772384E+02  0.34953777885E+02  0.63465347611E+01  0.41107446597E+02  0.51100000000E-03 0.  1.
         12    1    3    3    0    0  0.19108164327E+02 -0.31152282472E+02 -0.14263603046E+02  0.39230562308E+02  0.00000000000E+00 0. -1.
</event>
<event>
 7    1  0.3622165E-015  0.9000782E+02  0.7816164E-02  0.1186339E+00
        -11   -1    0    0    0    0  0.00000000000E+00  0.00000000000E+00  0.45593999997E+02  0.45594000000E+02  0.51100000000E-03 0.  1.
         11   -1    0    0    0    0 -0.00000000000E+00 -0.00000000000E+00 -0.45593999997E+02  0.45594000000E+02  0.51100000000E-03 0. -1.
    9900012    2    1    2    0    0 -0.62068279649E+00  0.64875616677E+00 -0.76595897779E+00  0.90007819991E+02  0.90000082415E+02 0.  0.
        -12    1    1    2    0    0  0.62068279649E+00 -0.64875616677E+00  0.76595897779E+00  0.11801800089E+01  0.00000000000E+00 0.  1.
         11    1    3    3    0    0  0.12462970366E+02  0.33076940293E+02  0.15679995546E+02  0.38668745391E+02  0.51100000000E-03 0. -1.
        -11    1    3    3    0    0  0.43324603351E+01 -0.23734633177E+01  0.76195944610E+01  0.90808458134E+01  0.51100000000E-03 0.  1.
        -12    1    3    3    0    0 -0.17416113497E+02 -0.30054720809E+02 -0.24065548985E+02  0.42258228787E+02  0.00000000000E+00 0.  1.
</event>
<event>
 7    1  0.3622165E-015  0.9000775E+02  0.7816164E-02  0.1186339E+00
        -11   -1    0    0    0    0  0.00000000000E+00  0.00000000000E+00  0.45593999997E+02  0.45594000000E+02  0.51100000000E-03 0.  1.
         11   -1    0    0    0    0 -0.00000000000E+00 -0.00000000000E+00 -0.45593999997E+02  0.45594000000E+02  0.51100000000E-03 0. -1.
    9900012    2    1    2    0    0  0.36859462276E+00 -0.96770520257E+00 -0.56628044854E+00  0.90007750492E+02  0.90000011998E+02 0.  0.
        -12    1    1    2    0    0 -0.36859462276E+00  0.96770520257E+00  0.56628044854E+00  0.11802495081E+01  0.00000000000E+00 0.  1.
         11    1    3    3    0    0  0.86068659056E+01  0.11892890444E+01 -0.15975585984E+01  0.88342935703E+01  0.51100000000E-03 0. -1.
        -11    1    3    3    0    0 -0.89679505843E+01 -0.33724720214E+02  0.23803831347E+02  0.42242197839E+02  0.51100000000E-03 0.  1.
         12    1    3    3    0    0  0.72967930140E+00  0.31567725967E+02 -0.22772553198E+02  0.38931259083E+02  0.00000000000E+00 0. -1.
</event>
<event>
 7    1  0.3622165E-015  0.9000772E+02  0.7816164E-02  0.1186339E+00
        -11   -1    0    0    0    0  0.00000000000E+00  0.00000000000E+00  0.45593999997E+02  0.45594000000E+02  0.51100000000E-03 0. -1.
         11   -1    0    0    0    0 -0.00000000000E+00 -0.00000000000E+00 -0.45593999997E+02  0.45594000000E+02  0.51100000000E-03 0.  1.
    9900012    2    1    2    0    0 -0.39518098060E+00 -0.10897763379E+01 -0.22199013398E+00  0.90007720332E+02  0.89999981441E+02 0.  0.
        -12    1    1    2    0    0  0.39518098060E+00  0.10897763379E+01  0.22199013398E+00  0.11802796676E+01  0.00000000000E+00 0.  1.
         11    1    3    3    0    0 -0.88950469526E+01 -0.40986413311E+02  0.49679149808E+01  0.42233731968E+02  0.51100000000E-03 0. -1.
        -11    1    3    3    0    0 -0.15139634715E+01  0.48628912848E+01 -0.98022331739E+01  0.11046428042E+02  0.51100000000E-03 0.  1.
        -12    1    3    3    0    0  0.10013829443E+02  0.35033745689E+02  0.46123280591E+01  0.36727560322E+02  0.00000000000E+00 0.  1.
</event>
<event>
 7    1  0.3622165E-015  0.9000774E+02  0.7816164E-02  0.1186339E+00
        -11   -1    0    0    0    0  0.00000000000E+00  0.00000000000E+00  0.45593999997E+02  0.45594000000E+02  0.51100000000E-03 0.  1.
         11   -1    0    0    0    0 -0.00000000000E+00 -0.00000000000E+00 -0.45593999997E+02  0.45594000000E+02  0.51100000000E-03 0. -1.
    9900012    2    1    2    0    0  0.77136046978E+00 -0.28528120777E+00  0.84654756469E+00  0.90007735148E+02  0.89999996452E+02 0.  0.
        -12    1    1    2    0    0 -0.77136046978E+00  0.28528120777E+00 -0.84654756469E+00  0.11802648521E+01  0.00000000000E+00 0.  1.
         11    1    3    3    0    0  0.10451188620E+02  0.37369461405E+01 -0.39516874418E+02  0.41046016543E+02  0.51100000000E-03 0. -1.
        -11    1    3    3    0    0 -0.10672013987E+02  0.56856186869E+01  0.65165865891E+01  0.13736231049E+02  0.51100000000E-03 0.  1.
        -12    1    3    3    0    0  0.99218583764E+00 -0.97078460351E+01  0.33846835394E+02  0.35225487556E+02  0.00000000000E+00 0.  1.
</event>
<event>
 7    1  0.3622165E-015  0.9000781E+02  0.7816164E-02  0.1186339E+00
        -11   -1    0    0    0    0  0.00000000000E+00  0.00000000000E+00  0.45593999997E+02  0.45594000000E+02  0.51100000000E-03 0. -1.
         11   -1    0    0    0    0 -0.00000000000E+00 -0.00000000000E+00 -0.45593999997E+02  0.45594000000E+02  0.51100000000E-03 0.  1.
    9900012    2    1    2    0    0  0.85149789688E-02  0.11801183914E+01  0.10121849405E-01  0.90007807484E+02  0.90000069743E+02 0.  0.
        -12    1    1    2    0    0 -0.85149789688E-02 -0.11801183914E+01 -0.10121849405E-01  0.11801925159E+01  0.00000000000E+00 0.  1.
         11    1    3    3    0    0 -0.99394961174E+01  0.34998411991E+01  0.40156154116E+02  0.41515770318E+02  0.51100000000E-03 0. -1.
        -11    1    3    3    0    0 -0.43914221150E+01 -0.58876676378E+01 -0.20426649904E+01  0.76237588452E+01  0.51100000000E-03 0.  1.
        -12    1    3    3    0    0  0.14339433211E+02  0.35679448301E+01 -0.38103367276E+02  0.40868278321E+02  0.00000000000E+00 0.  1.
</event>
<event>
 7    1  0.3622165E-015  0.9000768E+02  0.7816164E-02  0.1186339E+00
        -11   -1    0    0    0    0  0.00000000000E+00  0.00000000000E+00  0.45593999997E+02  0.45594000000E+02  0.51100000000E-03 0.  1.
         11   -1    0    0    0    0 -0.00000000000E+00 -0.00000000000E+00 -0.45593999997E+02  0.45594000000E+02  0.51100000000E-03 0. -1.
    9900012    2    1    2    0    0  0.11738977209E+01 -0.33713118701E-01  0.11820708306E+00  0.90007684217E+02  0.89999944849E+02 0.  0.
        -12    1    1    2    0    0 -0.11738977209E+01  0.33713118701E-01 -0.11820708306E+00  0.11803157831E+01  0.00000000000E+00 0.  1.
         11    1    3    3    0    0  0.62386274913E+01  0.28021094163E+02 -0.34531072767E+02  0.44905424815E+02  0.51100000000E-03 0. -1.
        -11    1    3    3    0    0 -0.91596441768E+00 -0.62764467008E+01  0.49775060067E+01  0.80627749758E+01  0.51100000000E-03 0.  1.
        -12    1    3    3    0    0 -0.41487653527E+01 -0.21778360581E+02  0.29671773844E+02  0.37039484426E+02  0.00000000000E+00 0.  1.
</event>
<event>
 7    1  0.3622165E-015  0.9000776E+02  0.7816164E-02  0.1186339E+00
        -11   -1    0    0    0    0  0.00000000000E+00  0.00000000000E+00  0.45593999997E+02  0.45594000000E+02  0.51100000000E-03 0.  1.
         11   -1    0    0    0    0 -0.00000000000E+00 -0.00000000000E+00 -0.45593999997E+02  0.45594000000E+02  0.51100000000E-03 0. -1.
    9900012    2    1    2    0    0  0.53738652153E+00  0.85874985308E+00 -0.60557700779E+00  0.90007763119E+02  0.90000024792E+02 0.  0.
        -12    1    1    2    0    0 -0.53738652153E+00 -0.85874985308E+00  0.60557700779E+00  0.11802368813E+01  0.00000000000E+00 0.  1.
         11    1    3    3    0    0 -0.10830442162E+02 -0.54963435590E+01 -0.29829858140E+02  0.32207587721E+02  0.51100000000E-03 0. -1.
        -11    1    3    3    0    0  0.14585479922E+02 -0.35287851878E+01 -0.94630115812E+01  0.17740832503E+02  0.51100000000E-03 0.  1.
        -12    1    3    3    0    0 -0.32176512379E+01  0.98838785999E+01  0.38687292713E+02  0.40059342894E+02  0.00000000000E+00 0.  1.
</event>
<event>
 7    1  0.3640413E-015  0.9000772E+02  0.7816164E-02  0.1186339E+00
        -11   -1    0    0    0    0  0.00000000000E+00  0.00000000000E+00  0.45593999997E+02  0.45594000000E+02  0.51100000000E-03 0. -1.
         11   -1    0    0    0    0 -0.00000000000E+00 -0.00000000000E+00 -0.45593999997E+02  0.45594000000E+02  0.51100000000E-03 0.  1.
    9900012    2    1    2    0    0  0.69124877378E+00 -0.83081396167E+00  0.47432886347E+00  0.90007718433E+02  0.89999979517E+02 0.  0.
        -12    1    1    2    0    0 -0.69124877378E+00  0.83081396167E+00 -0.47432886347E+00  0.11802815668E+01  0.00000000000E+00 0.  1.
         11    1    3    3    0    0 -0.65530699634E+01  0.57221552335E+01  0.42111635658E+01  0.96653859364E+01  0.51100000000E-03 0. -1.
        -11    1    3    3    0    0 -0.19682306065E+02 -0.26259218100E+02 -0.24578771109E+02  0.41000679223E+02  0.51100000000E-03 0.  1.
         12    1    3    3    0    0  0.26926624802E+02  0.19706248905E+02  0.20841936406E+02  0.39341653274E+02  0.00000000000E+00 0. -1.
</event>
<event>
 7    1  0.3622165E-015  0.9000771E+02  0.7816164E-02  0.1186339E+00
        -11   -1    0    0    0    0  0.00000000000E+00  0.00000000000E+00  0.45593999997E+02  0.45594000000E+02  0.51100000000E-03 0.  1.
         11   -1    0    0    0    0 -0.00000000000E+00 -0.00000000000E+00 -0.45593999997E+02  0.45594000000E+02  0.51100000000E-03 0. -1.
    9900012    2    1    2    0    0 -0.74859740336E+00  0.84858867179E+00 -0.33552691382E+00  0.90007712274E+02  0.89999973276E+02 0.  0.
        -12    1    1    2    0    0  0.74859740336E+00 -0.84858867179E+00  0.33552691382E+00  0.11802877260E+01  0.00000000000E+00 0.  1.
         11    1    3    3    0    0  0.11780653005E+02 -0.35164409899E+02 -0.10349683617E+02  0.38502408496E+02  0.51100000000E-03 0. -1.
        -11    1    3    3    0    0 -0.25506230029E+00 -0.63776181367E+01  0.96505774586E+00  0.64552619303E+01  0.51100000000E-03 0.  1.
        -12    1    3    3    0    0 -0.12274188108E+02  0.42390616707E+02  0.90490989578E+01  0.45050041848E+02  0.00000000000E+00 0.  1.
</event>
<event>
 7    1  0.3622165E-015  0.9000754E+02  0.7816164E-02  0.1186339E+00
        -11   -1    0    0    0    0  0.00000000000E+00  0.00000000000E+00  0.45593999997E+02  0.45594000000E+02  0.51100000000E-03 0.  1.
         11   -1    0    0    0    0 -0.00000000000E+00 -0.00000000000E+00 -0.45593999997E+02  0.45594000000E+02  0.51100000000E-03 0. -1.
    9900012    2    1    2    0    0 -0.92505744446E+00  0.65350429457E+00 -0.33269723481E+00  0.90007539671E+02  0.89999798394E+02 0.  0.
        -12    1    1    2    0    0  0.92505744446E+00 -0.65350429457E+00  0.33269723481E+00  0.11804603291E+01  0.00000000000E+00 0.  1.
         11    1    3    3    0    0 -0.21991406396E+02 -0.16964707317E+02  0.18889534818E+02  0.33589250892E+02  0.51100000000E-03 0. -1.
        -11    1    3    3    0    0 -0.68081110486E+01 -0.42947152300E+01  0.82784886173E+01  0.11546788688E+02  0.51100000000E-03 0.  1.
        -12    1    3    3    0    0  0.27874460000E+02  0.21912926841E+02 -0.27500720670E+02  0.44871500091E+02  0.00000000000E+00 0.  1.
</event>
<event>
 7    1  0.3622165E-015  0.9000775E+02  0.7816164E-02  0.1186339E+00
        -11   -1    0    0    0    0  0.00000000000E+00  0.00000000000E+00  0.45593999997E+02  0.45594000000E+02  0.51100000000E-03 0.  1.
         11   -1    0    0    0    0 -0.00000000000E+00 -0.00000000000E+00 -0.45593999997E+02  0.45594000000E+02  0.51100000000E-03 0. -1.
    9900012    2    1    2    0    0  0.78275290008E+00  0.86215734241E+00 -0.19229415874E+00  0.90007748150E+02  0.90000009626E+02 0.  0.
        -12    1    1    2    0    0 -0.78275290008E+00 -0.86215734241E+00  0.19229415874E+00  0.11802518499E+01  0.00000000000E+00 0.  1.
         11    1    3    3    0    0 -0.33766778334E+02 -0.73864700064E+01 -0.10496315256E+02  0.36123785688E+02  0.51100000000E-03 0. -1.
        -11    1    3    3    0    0 -0.78041052513E+01 -0.28872099392E+01  0.51567425689E+01  0.97893837492E+01  0.51100000000E-03 0.  1.
        -12    1    3    3    0    0  0.42353636485E+02  0.11135837288E+02  0.51472785282E+01  0.44094578713E+02  0.00000000000E+00 0.  1.
</event>
<event>
 7    1  0.3622165E-015  0.9000778E+02  0.7816164E-02  0.1186339E+00
        -11   -1    0    0    0    0  0.00000000000E+00  0.00000000000E+00  0.45593999997E+02  0.45594000000E+02  0.51100000000E-03 0. -1.
         11   -1    0    0    0    0 -0.00000000000E+00 -0.00000000000E+00 -0.45593999997E+02  0.45594000000E+02  0.51100000000E-03 0.  1.
    9900012    2    1    2    0    0  0.75450918727E+00 -0.38372181025E-01 -0.90673281018E+00  0.90007779289E+02  0.90000041175E+02 0.  0.
        -12    1    1    2    0    0 -0.75450918727E+00  0.38372181025E-01  0.90673281018E+00  0.11802207111E+01  0.00000000000E+00 0.  1.
         11    1    3    3    0    0  0.30721893430E+02 -0.43115181089E+01  0.17472003642E+02  0.35604702440E+02  0.51100000000E-03 0. -1.
        -11    1    3    3    0    0  0.30952972880E+01 -0.11164566782E+02  0.31887589052E+01  0.12016513652E+02  0.51100000000E-03 0.  1.
        -12    1    3    3    0    0 -0.33062681530E+02  0.15437712710E+02 -0.21567495358E+02  0.42386563197E+02  0.00000000000E+00 0.  1.
</event>
<event>
 7    1  0.3622165E-015  0.9000774E+02  0.7816164E-02  0.1186339E+00
        -11   -1    0    0    0    0  0.00000000000E+00  0.00000000000E+00  0.45593999997E+02  0.45594000000E+02  0.51100000000E-03 0.  1.
         11   -1    0    0    0    0 -0.00000000000E+00 -0.00000000000E+00 -0.45593999997E+02  0.45594000000E+02  0.51100000000E-03 0. -1.
    9900012    2    1    2    0    0  0.33159961938E+00 -0.10586272487E+01 -0.40294616787E+00  0.90007739193E+02  0.90000000550E+02 0.  0.
        -12    1    1    2    0    0 -0.33159961938E+00  0.10586272487E+01  0.40294616787E+00  0.11802608074E+01  0.00000000000E+00 0.  1.
         11    1    3    3    0    0 -0.55200312135E+01 -0.66243388113E+01 -0.44880237137E+01  0.97208521437E+01  0.51100000000E-03 0. -1.
        -11    1    3    3    0    0 -0.36585455100E+02 -0.81599949063E+00 -0.32953184330E+01  0.36742625163E+02  0.51100000000E-03 0.  1.
         12    1    3    3    0    0  0.42437085932E+02  0.63817110532E+01  0.73803959789E+01  0.43544261886E+02  0.00000000000E+00 0. -1.
</event>
<event>
 7    1  0.3622165E-015  0.9000782E+02  0.7816164E-02  0.1186339E+00
        -11   -1    0    0    0    0  0.00000000000E+00  0.00000000000E+00  0.45593999997E+02  0.45594000000E+02  0.51100000000E-03 0. -1.
         11   -1    0    0    0    0 -0.00000000000E+00 -0.00000000000E+00 -0.45593999997E+02  0.45594000000E+02  0.51100000000E-03 0.  1.
    9900012    2    1    2    0    0 -0.36852740136E+00  0.82438178029E+00  0.75987469090E+00  0.90007818950E+02  0.90000081360E+02 0.  0.
        -12    1    1    2    0    0  0.36852740136E+00 -0.82438178029E+00 -0.75987469090E+00  0.11801810501E+01  0.00000000000E+00 0.  1.
         11    1    3    3    0    0  0.20533107072E+02 -0.20167413356E+02  0.21068487089E+02  0.35668111752E+02  0.51100000000E-03 0. -1.
        -11    1    3    3    0    0  0.36958170773E+01 -0.99187797899E+01 -0.18847614119E+01  0.10751445588E+02  0.51100000000E-03 0.  1.
        -12    1    3    3    0    0 -0.24597451550E+02  0.30910574926E+02 -0.18423850986E+02  0.43588261610E+02  0.00000000000E+00 0.  1.
</event>
<event>
 7    1  0.3622165E-015  0.9000777E+02  0.7816164E-02  0.1186339E+00
        -11   -1    0    0    0    0  0.00000000000E+00  0.00000000000E+00  0.45593999997E+02  0.45594000000E+02  0.51100000000E-03 0. -1.
         11   -1    0    0    0    0 -0.00000000000E+00 -0.00000000000E+00 -0.45593999997E+02  0.45594000000E+02  0.51100000000E-03 0.  1.
    9900012    2    1    2    0    0 -0.77652250866E+00  0.53599430755E-01  0.88718295429E+00  0.90007765405E+02  0.90000027108E+02 0.  0.
        -12    1    1    2    0    0  0.77652250866E+00 -0.53599430755E-01 -0.88718295429E+00  0.11802345952E+01  0.00000000000E+00 0.  1.
         11    1    3    3    0    0 -0.31863919448E+02  0.40209882193E+01  0.18071899503E+02  0.36852018409E+02  0.51100000000E-03 0. -1.
        -11    1    3    3    0    0 -0.91628178771E+01  0.20740259173E+01 -0.13876485491E+01  0.94965458832E+01  0.51100000000E-03 0.  1.
        -12    1    3    3    0    0  0.40250214817E+02 -0.60414147059E+01 -0.15797067999E+02  0.43659201113E+02  0.00000000000E+00 0.  1.
</event>
<event>
 7    1  0.3622165E-015  0.9000770E+02  0.7816164E-02  0.1186339E+00
        -11   -1    0    0    0    0  0.00000000000E+00  0.00000000000E+00  0.45593999997E+02  0.45594000000E+02  0.51100000000E-03 0.  1.
         11   -1    0    0    0    0 -0.00000000000E+00 -0.00000000000E+00 -0.45593999997E+02  0.45594000000E+02  0.51100000000E-03 0. -1.
    9900012    2    1    2    0    0 -0.93453313614E+00 -0.46823513881E-01 -0.71941592291E+00  0.90007701777E+02  0.89999962641E+02 0.  0.
        -12    1    1    2    0    0  0.93453313614E+00  0.46823513881E-01  0.71941592291E+00  0.11802982225E+01  0.00000000000E+00 0.  1.
         11    1    3    3    0    0  0.94619057260E+01 -0.45497373691E+01  0.12743786713E+01  0.10576001671E+02  0.51100000000E-03 0. -1.
        -11    1    3    3    0    0  0.10209699293E+02  0.21184042097E+02  0.29847354121E+02  0.37998238742E+02  0.51100000000E-03 0.  1.
         12    1    3    3    0    0 -0.20606138155E+02 -0.16681128242E+02 -0.31841148715E+02  0.41433461364E+02  0.00000000000E+00 0. -1.
</event>
<event>
 7    1  0.3622165E-015  0.9000779E+02  0.7816164E-02  0.1186339E+00
        -11   -1    0    0    0    0  0.00000000000E+00  0.00000000000E+00  0.45593999997E+02  0.45594000000E+02  0.51100000000E-03 0. -1.
         11   -1    0    0    0    0 -0.00000000000E+00 -0.00000000000E+00 -0.45593999997E+02  0.45594000000E+02  0.51100000000E-03 0.  1.
    9900012    2    1    2    0    0 -0.50726388783E+00 -0.10160527008E+01  0.32125401555E+00  0.90007794982E+02  0.90000057075E+02 0.  0.
        -12    1    1    2    0    0  0.50726388783E+00  0.10160527008E+01 -0.32125401555E+00  0.11802050183E+01  0.00000000000E+00 0.  1.
         11    1    3    3    0    0 -0.29509620781E+02 -0.22507168395E+02  0.15810055622E+02  0.40340404148E+02  0.51100000000E-03 0. -1.
        -11    1    3    3    0    0 -0.61895820744E+01  0.63616864949E+01 -0.25509310615E+01  0.92352168819E+01  0.51100000000E-03 0.  1.
        -12    1    3    3    0    0  0.35191938968E+02  0.15129429199E+02 -0.12937870545E+02  0.40432173952E+02  0.00000000000E+00 0.  1.
</event>
<event>
 7    1  0.3622165E-015  0.9000778E+02  0.7816164E-02  0.1186339E+00
        -11   -1    0    0    0    0  0.00000000000E+00  0.00000000000E+00  0.45593999997E+02  0.45594000000E+02  0.51100000000E-03 0.  1.
         11   -1    0    0    0    0 -0.00000000000E+00 -0.00000000000E+00 -0.45593999997E+02  0.45594000000E+02  0.51100000000E-03 0. -1.
    9900012    2    1    2    0    0  0.16106466761E+00 -0.42447487985E+00 -0.10894010795E+01  0.90007781604E+02  0.90000043521E+02 0.  0.
        -12    1    1    2    0    0 -0.16106466761E+00  0.42447487985E+00  0.10894010795E+01  0.11802183962E+01  0.00000000000E+00 0.  1.
         11    1    3    3    0    0  0.17321402475E+02  0.29370431403E+02 -0.18785464884E+02  0.38930025888E+02  0.51100000000E-03 0. -1.
        -11    1    3    3    0    0  0.10074416017E+02 -0.93646072726E+01  0.67031514344E+01  0.15301044633E+02  0.51100000000E-03 0.  1.
        -12    1    3    3    0    0 -0.27234753824E+02 -0.20430299011E+02  0.10992912370E+02  0.35776711082E+02  0.00000000000E+00 0.  1.
</event>
<event>
 7    1  0.3622165E-015  0.9000770E+02  0.7816164E-02  0.1186339E+00
        -11   -1    0    0    0    0  0.00000000000E+00  0.00000000000E+00  0.45593999997E+02  0.45594000000E+02  0.51100000000E-03 0. -1.
         11   -1    0    0    0    0 -0.00000000000E+00 -0.00000000000E+00 -0.45593999997E+02  0.45594000000E+02  0.51100000000E-03 0.  1.
    9900012    2    1    2    0    0 -0.35321336843E+00  0.11254721491E+01  0.40704525805E-01  0.90007701690E+02  0.89999962552E+02 0.  0.
        -12    1    1    2    0    0  0.35321336843E+00 -0.11254721491E+01 -0.40704525805E-01  0.11802983099E+01  0.00000000000E+00 0.  1.
         11    1    3    3    0    0 -0.64148817007E+01 -0.92731792886E+01 -0.84910940158E+01  0.14115283887E+02  0.51100000000E-03 0. -1.
        -11    1    3    3    0    0  0.24968228304E+02 -0.51679152265E+01 -0.24105497241E+02  0.35088385114E+02  0.51100000000E-03 0.  1.
         12    1    3    3    0    0 -0.18906559972E+02  0.15566566664E+02  0.32637295783E+02  0.40804032689E+02  0.00000000000E+00 0. -1.
</event>
<event>
 7    1  0.3622165E-015  0.9000750E+02  0.7816164E-02  0.1186340E+00
        -11   -1    0    0    0    0  0.00000000000E+00  0.00000000000E+00  0.45593999997E+02  0.45594000000E+02  0.51100000000E-03 0.  1.
         11   -1    0    0    0    0 -0.00000000000E+00 -0.00000000000E+00 -0.45593999997E+02  0.45594000000E+02  0.51100000000E-03 0. -1.
    9900012    2    1    2    0    0 -0.38523618922E+00  0.84211857559E+00  0.73212976761E+00  0.90007498152E+02  0.89999756327E+02 0.  0.
        -12    1    1    2    0    0  0.38523618922E+00 -0.84211857559E+00 -0.73212976761E+00  0.11805018481E+01  0.00000000000E+00 0.  1.
         11    1    3    3    0    0 -0.27421109002E+02 -0.23802240742E+02 -0.40837838009E+01  0.36539583654E+02  0.51100000000E-03 0. -1.
        -11    1    3    3    0    0 -0.27438038989E+01 -0.83588137594E+01  0.72859565828E+00  0.88277448533E+01  0.51100000000E-03 0.  1.
        -12    1    3    3    0    0  0.29779676711E+02  0.33003173077E+02  0.40873179102E+01  0.44640169644E+02  0.00000000000E+00 0.  1.
</event>
<event>
 7    1  0.3622165E-015  0.9000808E+02  0.7816164E-02  0.1186338E+00
        -11   -1    0    0    0    0  0.00000000000E+00  0.00000000000E+00  0.45593999997E+02  0.45594000000E+02  0.51100000000E-03 0. -1.
         11   -1    0    0    0    0 -0.00000000000E+00 -0.00000000000E+00 -0.45593999997E+02  0.45594000000E+02  0.51100000000E-03 0.  1.
    9900012    2    1    2    0    0 -0.10880814002E+01  0.23139126693E+00  0.39337840309E+00  0.90008080672E+02  0.90000346536E+02 0.  0.
        -12    1    1    2    0    0  0.10880814002E+01 -0.23139126693E+00 -0.39337840309E+00  0.11799193277E+01  0.00000000000E+00 0.  1.
         11    1    3    3    0    0 -0.46707945946E+01  0.11039049247E+00 -0.81268067911E+01  0.93740864667E+01  0.51100000000E-03 0. -1.
        -11    1    3    3    0    0 -0.38471901269E+01 -0.38932469164E+02  0.11475346907E+02  0.40770352145E+02  0.51100000000E-03 0.  1.
         12    1    3    3    0    0  0.74299033212E+01  0.39053469939E+02 -0.29551617131E+01  0.39863642061E+02  0.00000000000E+00 0. -1.
</event>
<event>
 7    1  0.3622165E-015  0.9000775E+02  0.7816164E-02  0.1186339E+00
        -11   -1    0    0    0    0  0.00000000000E+00  0.00000000000E+00  0.45593999997E+02  0.45594000000E+02  0.51100000000E-03 0. -1.
         11   -1    0    0    0    0 -0.00000000000E+00 -0.00000000000E+00 -0.45593999997E+02  0.45594000000E+02  0.51100000000E-03 0.  1.
    9900012    2    1    2    0    0  0.11278655280E+01  0.64420540663E-01  0.34171802606E+00  0.90007745000E+02  0.90000006434E+02 0.  0.
        -12    1    1    2    0    0 -0.11278655280E+01 -0.64420540663E-01 -0.34171802606E+00  0.11802549998E+01  0.00000000000E+00 0.  1.
         11    1    3    3    0    0 -0.16231852594E+01 -0.67840298457E+01  0.41776479720E+02  0.42354835018E+02  0.51100000000E-03 0. -1.
        -11    1    3    3    0    0  0.24397221807E+01  0.96394031751E+01 -0.50359048118E+01  0.11145881545E+02  0.51100000000E-03 0.  1.
        -12    1    3    3    0    0  0.31132860679E+00 -0.27909527888E+01 -0.36398856882E+02  0.36507028437E+02  0.00000000000E+00 0.  1.
</event>
<event>
 7    1  0.3622165E-015  0.9000734E+02  0.7816164E-02  0.1186340E+00
        -11   -1    0    0    0    0  0.00000000000E+00  0.00000000000E+00  0.45593999997E+02  0.45594000000E+02  0.51100000000E-03 0. -1.
         11   -1    0    0    0    0 -0.00000000000E+00 -0.00000000000E+00 -0.45593999997E+02  0.45594000000E+02  0.51100000000E-03 0.  1.
    9900012    2    1    2    0    0  0.34137757977E+00  0.94265874200E+00  0.62355845105E+00  0.90007335231E+02  0.89999591255E+02 0.  0.
        -12    1    1    2    0    0 -0.34137757977E+00 -0.94265874200E+00 -0.62355845105E+00  0.11806647694E+01  0.00000000000E+00 0.  1.
         11    1    3    3    0    0 -0.90938809777E+01  0.12445685260E+00  0.39513732553E+02  0.40546876837E+02  0.51100000000E-03 0. -1.
        -11    1    3    3    0    0 -0.20512102181E+01  0.78409094792E+01  0.20983614105E+00  0.81074876680E+01  0.51100000000E-03 0.  1.
        -12    1    3    3    0    0  0.11486468775E+02 -0.70227075898E+01 -0.39100010243E+02  0.41352970725E+02  0.00000000000E+00 0.  1.
</event>
<event>
 7    1  0.3622165E-015  0.9000770E+02  0.7816164E-02  0.1186339E+00
        -11   -1    0    0    0    0  0.00000000000E+00  0.00000000000E+00  0.45593999997E+02  0.45594000000E+02  0.51100000000E-03 0.  1.
         11   -1    0    0    0    0 -0.00000000000E+00 -0.00000000000E+00 -0.45593999997E+02  0.45594000000E+02  0.51100000000E-03 0. -1.
    9900012    2    1    2    0    0  0.20394862675E+00  0.15830213039E+00 -0.11517162321E+01  0.90007701357E+02  0.89999962215E+02 0.  0.
        -12    1    1    2    0    0 -0.20394862675E+00 -0.15830213039E+00  0.11517162321E+01  0.11802986428E+01  0.00000000000E+00 0.  1.
         11    1    3    3    0    0 -0.15106350373E+02 -0.30210154948E+02 -0.14339911585E+02  0.36694527495E+02  0.51100000000E-03 0. -1.
        -11    1    3    3    0    0 -0.22205776055E+01 -0.77702806116E+01  0.73692530856E+01  0.10936823898E+02  0.51100000000E-03 0.  1.
        -12    1    3    3    0    0  0.17530876605E+02  0.38138737690E+02  0.58189422675E+01  0.42376349964E+02  0.00000000000E+00 0.  1.
</event>
<event>
 7    1  0.3622165E-015  0.9000778E+02  0.7816164E-02  0.1186339E+00
        -11   -1    0    0    0    0  0.00000000000E+00  0.00000000000E+00  0.45593999997E+02  0.45594000000E+02  0.51100000000E-03 0. -1.
         11   -1    0    0    0    0 -0.00000000000E+00 -0.00000000000E+00 -0.45593999997E+02  0.45594000000E+02  0.51100000000E-03 0.  1.
    9900012    2    1    2    0    0  0.56515692131E+00  0.55207139188E+00  0.87677000271E+00  0.90007783577E+02  0.90000045520E+02 0.  0.
        -12    1    1    2    0    0 -0.56515692131E+00 -0.55207139188E+00 -0.87677000271E+00  0.11802164230E+01  0.00000000000E+00 0.  1.
         11    1    3    3    0    0  0.57148604986E+01  0.24510624574E+01 -0.52062600147E+01  0.81100235074E+01  0.51100000000E-03 0. -1.
        -11    1    3    3    0    0 -0.20860361014E+02  0.10216115932E+02 -0.31654899436E+02  0.39262658404E+02  0.51100000000E-03 0.  1.
         12    1    3    3    0    0  0.15710657437E+02 -0.12115106997E+02  0.37737929453E+02  0.42635101666E+02  0.00000000000E+00 0. -1.
</event>
<event>
 7    1  0.3622165E-015  0.9000781E+02  0.7816164E-02  0.1186339E+00
        -11   -1    0    0    0    0  0.00000000000E+00  0.00000000000E+00  0.45593999997E+02  0.45594000000E+02  0.51100000000E-03 0.  1.
         11   -1    0    0    0    0 -0.00000000000E+00 -0.00000000000E+00 -0.45593999997E+02  0.45594000000E+02  0.51100000000E-03 0. -1.
    9900012    2    1    2    0    0  0.75301704955E-02 -0.11634303539E+01 -0.19806056251E+00  0.90007807271E+02  0.90000069527E+02 0.  0.
        -12    1    1    2    0    0 -0.75301704955E-02  0.11634303539E+01  0.19806056251E+00  0.11801927293E+01  0.00000000000E+00 0.  1.
         11    1    3    3    0    0  0.41669791830E+01  0.40881225790E+02  0.70585909722E+01  0.41694868321E+02  0.51100000000E-03 0. -1.
        -11    1    3    3    0    0  0.26078589844E+01  0.23152063669E+00  0.33037770949E+01  0.42153853491E+01  0.51100000000E-03 0.  1.
        -12    1    3    3    0    0 -0.67673079969E+01 -0.42276176780E+02 -0.10560428630E+02  0.44097553600E+02  0.00000000000E+00 0.  1.
</event>
<event>
 7    1  0.3622165E-015  0.9000753E+02  0.7816164E-02  0.1186339E+00
        -11   -1    0    0    0    0  0.00000000000E+00  0.00000000000E+00  0.45593999997E+02  0.45594000000E+02  0.51100000000E-03 0. -1.
         11   -1    0    0    0    0 -0.00000000000E+00 -0.00000000000E+00 -0.45593999997E+02  0.45594000000E+02  0.51100000000E-03 0.  1.
    9900012    2    1    2    0    0  0.10397731649E+01 -0.40791217282E+00 -0.38209202297E+00  0.90007527684E+02  0.89999786249E+02 0.  0.
        -12    1    1    2    0    0 -0.10397731649E+01  0.40791217282E+00  0.38209202297E+00  0.11804723162E+01  0.00000000000E+00 0.  1.
         11    1    3    3    0    0 -0.24617805241E+00 -0.85570352936E+01 -0.58764202810E+01  0.10383437400E+02  0.51100000000E-03 0. -1.
        -11    1    3    3    0    0 -0.26242113881E+02  0.33070157566E+02  0.10929334393E+01  0.42231248693E+02  0.51100000000E-03 0.  1.
         12    1    3    3    0    0  0.27528065098E+02 -0.24921034446E+02  0.44013948187E+01  0.37392841591E+02  0.00000000000E+00 0. -1.
</event>
<event>
 7    1  0.3622165E-015  0.9000777E+02  0.7816164E-02  0.1186339E+00
        -11   -1    0    0    0    0  0.00000000000E+00  0.00000000000E+00  0.45593999997E+02  0.45594000000E+02  0.51100000000E-03 0. -1.
         11   -1    0    0    0    0 -0.00000000000E+00 -0.00000000000E+00 -0.45593999997E+02  0.45594000000E+02  0.51100000000E-03 0.  1.
    9900012    2    1    2    0    0 -0.58739734668E+00 -0.10236549961E+01 -0.64493956626E-02  0.90007768333E+02  0.90000030075E+02 0.  0.
        -12    1    1    2    0    0  0.58739734668E+00  0.10236549961E+01  0.64493956626E-02  0.11802316673E+01  0.00000000000E+00 0.  1.
         11    1    3    3    0    0  0.82638758936E+01 -0.16580807654E+02  0.35761188518E+02  0.40275022429E+02  0.51100000000E-03 0. -1.
        -11    1    3    3    0    0  0.62528512730E+01 -0.50286168762E+01 -0.39686968653E+01  0.89518540984E+01  0.51100000000E-03 0.  1.
        -12    1    3    3    0    0 -0.15104124513E+02  0.20585769534E+02 -0.31798941048E+02  0.40780891805E+02  0.00000000000E+00 0.  1.
</event>
<event>
 7    1  0.3622165E-015  0.9000756E+02  0.7816164E-02  0.1186339E+00
        -11   -1    0    0    0    0  0.00000000000E+00  0.00000000000E+00  0.45593999997E+02  0.45594000000E+02  0.51100000000E-03 0. -1.
         11   -1    0    0    0    0 -0.00000000000E+00 -0.00000000000E+00 -0.45593999997E+02  0.45594000000E+02  0.51100000000E-03 0.  1.
    9900012    2    1    2    0    0  0.86375765040E+00  0.30643778729E+00  0.74395000258E+00  0.90007558133E+02  0.89999817100E+02 0.  0.
        -12    1    1    2    0    0 -0.86375765040E+00 -0.30643778729E+00 -0.74395000258E+00  0.11804418675E+01  0.00000000000E+00 0.  1.
         11    1    3    3    0    0 -0.68321479415E+01  0.19393440085E+02  0.15284616972E+02  0.25620368461E+02  0.51100000000E-03 0. -1.
        -11    1    3    3    0    0 -0.67428797153E+01  0.12756502891E+02 -0.24145114426E+02  0.28127945957E+02  0.51100000000E-03 0.  1.
         12    1    3    3    0    0  0.14438785307E+02 -0.31843505188E+02  0.96044474559E+01  0.36259243715E+02  0.00000000000E+00 0. -1.
</event>
<event>
 7    1  0.3622165E-015  0.9000803E+02  0.7816164E-02  0.1186338E+00
        -11   -1    0    0    0    0  0.00000000000E+00  0.00000000000E+00  0.45593999997E+02  0.45594000000E+02  0.51100000000E-03 0.  1.
         11   -1    0    0    0    0 -0.00000000000E+00 -0.00000000000E+00 -0.45593999997E+02  0.45594000000E+02  0.51100000000E-03 0. -1.
    9900012    2    1    2    0    0  0.17192216395E+00 -0.46279537692E+00 -0.10717195155E+01  0.90008034106E+02  0.90000299356E+02 0.  0.
        -12    1    1    2    0    0 -0.17192216395E+00  0.46279537692E+00  0.10717195155E+01  0.11799658941E+01  0.00000000000E+00 0.  1.
         11    1    3    3    0    0  0.62998783776E+00  0.35206939952E+02  0.17415184751E+02  0.39283764657E+02  0.51100000000E-03 0. -1.
        -11    1    3    3    0    0  0.82852868640E+01 -0.32241343893E+01  0.45457830741E+01  0.99852473679E+01  0.51100000000E-03 0.  1.
        -12    1    3    3    0    0 -0.87433525379E+01 -0.32445600940E+02 -0.23032687341E+02  0.40739022081E+02  0.00000000000E+00 0.  1.
</event>
<event>
 7    1  0.3622165E-015  0.9000779E+02  0.7816164E-02  0.1186339E+00
        -11   -1    0    0    0    0  0.00000000000E+00  0.00000000000E+00  0.45593999997E+02  0.45594000000E+02  0.51100000000E-03 0.  1.
         11   -1    0    0    0    0 -0.00000000000E+00 -0.00000000000E+00 -0.45593999997E+02  0.45594000000E+02  0.51100000000E-03 0. -1.
    9900012    2    1    2    0    0 -0.62322743078E+00 -0.31564653977E+00 -0.95123141202E+00  0.90007793930E+02  0.90000056010E+02 0.  0.
        -12    1    1    2    0    0  0.62322743078E+00  0.31564653977E+00  0.95123141202E+00  0.11802060700E+01  0.00000000000E+00 0.  1.
         11    1    3    3    0    0  0.36887180106E+02  0.89183608006E+01  0.12701484244E+01  0.37971232438E+02  0.51100000000E-03 0. -1.
        -11    1    3    3    0    0  0.36019572668E+01 -0.46642606677E+01  0.75056408427E+01  0.95427495225E+01  0.51100000000E-03 0.  1.
        -12    1    3    3    0    0 -0.41112364804E+02 -0.45697466727E+01 -0.97270206791E+01  0.42493811970E+02  0.00000000000E+00 0.  1.
</event>
<event>
 7    1  0.3622165E-015  0.9000775E+02  0.7816164E-02  0.1186339E+00
        -11   -1    0    0    0    0  0.00000000000E+00  0.00000000000E+00  0.45593999997E+02  0.45594000000E+02  0.51100000000E-03 0.  1.
         11   -1    0    0    0    0 -0.00000000000E+00 -0.00000000000E+00 -0.45593999997E+02  0.45594000000E+02  0.51100000000E-03 0. -1.
    9900012    2    1    2    0    0 -0.61026714141E+00 -0.41973269212E+00 -0.91890080864E+00  0.90007754173E+02  0.90000015728E+02 0.  0.
        -12    1    1    2    0    0  0.61026714141E+00  0.41973269212E+00  0.91890080864E+00  0.11802458273E+01  0.00000000000E+00 0.  1.
         11    1    3    3    0    0  0.38496295990E+00  0.11594265346E+02  0.16048255221E+01  0.11711133618E+02  0.51100000000E-03 0. -1.
        -11    1    3    3    0    0 -0.23963538303E+02  0.21963664819E+01  0.28409601988E+02  0.37231447448E+02  0.51100000000E-03 0.  1.
         12    1    3    3    0    0  0.22968308201E+02 -0.14210364520E+02 -0.30933328318E+02  0.41065173107E+02  0.00000000000E+00 0. -1.
</event>
<event>
 7    1  0.3622165E-015  0.9000785E+02  0.7816164E-02  0.1186339E+00
        -11   -1    0    0    0    0  0.00000000000E+00  0.00000000000E+00  0.45593999997E+02  0.45594000000E+02  0.51100000000E-03 0.  1.
         11   -1    0    0    0    0 -0.00000000000E+00 -0.00000000000E+00 -0.45593999997E+02  0.45594000000E+02  0.51100000000E-03 0. -1.
    9900012    2    1    2    0    0  0.11385204435E+00  0.94336644293E-01 -0.11708504974E+01  0.90007850612E+02  0.90000113440E+02 0.  0.
        -12    1    1    2    0    0 -0.11385204435E+00 -0.94336644293E-01  0.11708504974E+01  0.11801493879E+01  0.00000000000E+00 0.  1.
         11    1    3    3    0    0  0.49686769918E+01 -0.47100081769E+01 -0.72233967215E+01  0.99523559287E+01  0.51100000000E-03 0. -1.
        -11    1    3    3    0    0  0.23816926913E+02 -0.19312074581E+00 -0.27007755331E+02  0.36009750783E+02  0.51100000000E-03 0.  1.
         12    1    3    3    0    0 -0.28671751860E+02  0.49974655670E+01  0.33060301555E+02  0.44045743900E+02  0.00000000000E+00 0. -1.
</event>
<event>
 7    1  0.3622165E-015  0.9000793E+02  0.7816164E-02  0.1186339E+00
        -11   -1    0    0    0    0  0.00000000000E+00  0.00000000000E+00  0.45593999997E+02  0.45594000000E+02  0.51100000000E-03 0.  1.
         11   -1    0    0    0    0 -0.00000000000E+00 -0.00000000000E+00 -0.45593999997E+02  0.45594000000E+02  0.51100000000E-03 0. -1.
    9900012    2    1    2    0    0 -0.10364187682E+01  0.87133108042E-01 -0.55749344034E+00  0.90007934333E+02  0.90000198266E+02 0.  0.
        -12    1    1    2    0    0  0.10364187682E+01 -0.87133108042E-01  0.55749344034E+00  0.11800656667E+01  0.00000000000E+00 0.  1.
         11    1    3    3    0    0 -0.79403258954E+01  0.19772903263E+01  0.23434588620E+01  0.85117713820E+01  0.51100000000E-03 0. -1.
        -11    1    3    3    0    0 -0.30006163013E+02  0.81888574882E+01 -0.22613561449E+02  0.38455173481E+02  0.51100000000E-03 0.  1.
         12    1    3    3    0    0  0.36910070141E+02 -0.10079014706E+02  0.19712609147E+02  0.43040989471E+02  0.00000000000E+00 0. -1.
</event>
<event>
 7    1  0.3622165E-015  0.9000780E+02  0.7816164E-02  0.1186339E+00
        -11   -1    0    0    0    0  0.00000000000E+00  0.00000000000E+00  0.45593999997E+02  0.45594000000E+02  0.51100000000E-03 0.  1.
         11   -1    0    0    0    0 -0.00000000000E+00 -0.00000000000E+00 -0.45593999997E+02  0.45594000000E+02  0.51100000000E-03 0. -1.
    9900012    2    1    2    0    0  0.10322078968E+01  0.16228374143E+00 -0.54871402071E+00  0.90007798224E+02  0.90000060361E+02 0.  0.
        -12    1    1    2    0    0 -0.10322078968E+01 -0.16228374143E+00  0.54871402071E+00  0.11802017757E+01  0.00000000000E+00 0.  1.
         11    1    3    3    0    0  0.37279120442E+02  0.21593168369E+02 -0.10380681389E+02  0.44314289879E+02  0.51100000000E-03 0. -1.
        -11    1    3    3    0    0 -0.23335442137E+01 -0.75444628144E+01  0.27990221978E+01  0.83784767876E+01  0.51100000000E-03 0.  1.
        -12    1    3    3    0    0 -0.33913368332E+02 -0.13886421813E+02  0.70329451706E+01  0.37315031557E+02  0.00000000000E+00 0.  1.
</event>
<event>
 7    1  0.3622165E-015  0.9000774E+02  0.7816164E-02  0.1186339E+00
        -11   -1    0    0    0    0  0.00000000000E+00  0.00000000000E+00  0.45593999997E+02  0.45594000000E+02  0.51100000000E-03 0.  1.
         11   -1    0    0    0    0 -0.00000000000E+00 -0.00000000000E+00 -0.45593999997E+02  0.45594000000E+02  0.51100000000E-03 0. -1.
    9900012    2    1    2    0    0 -0.37012237743E-01 -0.11447769739E+01  0.28481774515E+00  0.90007743514E+02  0.90000004928E+02 0.  0.
        -12    1    1    2    0    0  0.37012237743E-01  0.11447769739E+01 -0.28481774515E+00  0.11802564864E+01  0.00000000000E+00 0.  1.
         11    1    3    3    0    0 -0.33378484865E+02 -0.12135552507E+02 -0.11533465230E+02  0.37341876051E+02  0.51100000000E-03 0. -1.
        -11    1    3    3    0    0 -0.78987679610E+01 -0.17997690870E+01  0.10842316716E+01  0.81734486386E+01  0.51100000000E-03 0.  1.
        -12    1    3    3    0    0  0.41240240588E+02  0.12790544620E+02  0.10734051304E+02  0.44492418824E+02  0.00000000000E+00 0.  1.
</event>
<event>
 7    1  0.3622165E-015  0.9000787E+02  0.7816164E-02  0.1186339E+00
        -11   -1    0    0    0    0  0.00000000000E+00  0.00000000000E+00  0.45593999997E+02  0.45594000000E+02  0.51100000000E-03 0.  1.
         11   -1    0    0    0    0 -0.00000000000E+00 -0.00000000000E+00 -0.45593999997E+02  0.45594000000E+02  0.51100000000E-03 0. -1.
    9900012    2    1    2    0    0 -0.10045795556E+01 -0.31348036484E+00 -0.53409475059E+00  0.90007869827E+02  0.90000132909E+02 0.  0.
        -12    1    1    2    0    0  0.10045795556E+01  0.31348036484E+00  0.53409475059E+00  0.11801301730E+01  0.00000000000E+00 0.  1.
         11    1    3    3    0    0 -0.57533474398E+01  0.27918178895E+01  0.89613617094E+01  0.11009144283E+02  0.51100000000E-03 0. -1.
        -11    1    3    3    0    0  0.33340458107E+02 -0.52652333160E+01  0.18866246637E+02  0.38668386197E+02  0.51100000000E-03 0.  1.
         12    1    3    3    0    0 -0.28591690223E+02  0.21599350617E+01 -0.28361703097E+02  0.40330339347E+02  0.00000000000E+00 0. -1.
</event>
<event>
 7    1  0.3622165E-015  0.9000767E+02  0.7816164E-02  0.1186339E+00
        -11   -1    0    0    0    0  0.00000000000E+00  0.00000000000E+00  0.45593999997E+02  0.45594000000E+02  0.51100000000E-03 0.  1.
         11   -1    0    0    0    0 -0.00000000000E+00 -0.00000000000E+00 -0.45593999997E+02  0.45594000000E+02  0.51100000000E-03 0. -1.
    9900012    2    1    2    0    0  0.69690247444E-01 -0.11765820793E+01 -0.63010534341E-01  0.90007672737E+02  0.89999933217E+02 0.  0.
        -12    1    1    2    0    0 -0.69690247444E-01  0.11765820793E+01  0.63010534341E-01  0.11803272628E+01  0.00000000000E+00 0.  1.
         11    1    3    3    0    0  0.10603609065E+01  0.87599539078E+01  0.43885320976E+01  0.98549668671E+01  0.51100000000E-03 0. -1.
        -11    1    3    3    0    0 -0.18331829649E+02 -0.93315899941E+01  0.32994665582E+02  0.38881647435E+02  0.51100000000E-03 0.  1.
         12    1    3    3    0    0  0.17341158990E+02 -0.60494599295E+00 -0.37446208214E+02  0.41271058435E+02  0.00000000000E+00 0. -1.
</event>
<event>
 7    1  0.3622165E-015  0.9000773E+02  0.7816164E-02  0.1186339E+00
        -11   -1    0    0    0    0  0.00000000000E+00  0.00000000000E+00  0.45593999997E+02  0.45594000000E+02  0.51100000000E-03 0. -1.
         11   -1    0    0    0    0 -0.00000000000E+00 -0.00000000000E+00 -0.45593999997E+02  0.45594000000E+02  0.51100000000E-03 0.  1.
    9900012    2    1    2    0    0  0.91410918504E+00 -0.63093497849E+00  0.39920013304E+00  0.90007730838E+02  0.89999992085E+02 0.  0.
        -12    1    1    2    0    0 -0.91410918504E+00  0.63093497849E+00 -0.39920013304E+00  0.11802691623E+01  0.00000000000E+00 0.  1.
         11    1    3    3    0    0 -0.69739450869E+01 -0.33315299491E+02  0.15688274632E+02  0.37478888076E+02  0.51100000000E-03 0. -1.
        -11    1    3    3    0    0 -0.41103726565E+01  0.40259418282E+01  0.10617483949E+02  0.12076188830E+02  0.51100000000E-03 0.  1.
        -12    1    3    3    0    0  0.11998426928E+02  0.28658422684E+02 -0.25906558448E+02  0.40452653932E+02  0.00000000000E+00 0.  1.
</event>
<event>
 7    1  0.3622165E-015  0.9000740E+02  0.7816164E-02  0.1186340E+00
        -11   -1    0    0    0    0  0.00000000000E+00  0.00000000000E+00  0.45593999997E+02  0.45594000000E+02  0.51100000000E-03 0. -1.
         11   -1    0    0    0    0 -0.00000000000E+00 -0.00000000000E+00 -0.45593999997E+02  0.45594000000E+02  0.51100000000E-03 0.  1.
    9900012    2    1    2    0    0  0.48643787451E+00  0.65891815185E+00  0.85030765923E+00  0.90007399283E+02  0.89999656153E+02 0.  0.
        -12    1    1    2    0    0 -0.48643787451E+00 -0.65891815185E+00 -0.85030765923E+00  0.11806007166E+01  0.00000000000E+00 0.  1.
         11    1    3    3    0    0 -0.26051051755E+02 -0.12074737030E+02  0.25382265065E+02  0.38323830080E+02  0.51100000000E-03 0. -1.
        -11    1    3    3    0    0 -0.76134111887E+01  0.53297028000E+01 -0.56632922958E+00  0.93107728424E+01  0.51100000000E-03 0.  1.
        -12    1    3    3    0    0  0.34150900819E+02  0.74039523821E+01 -0.23965628176E+02  0.42372796361E+02  0.00000000000E+00 0.  1.
</event>
<event>
 7    1  0.3622165E-015  0.9000774E+02  0.7816164E-02  0.1186339E+00
        -11   -1    0    0    0    0  0.00000000000E+00  0.00000000000E+00  0.45593999997E+02  0.45594000000E+02  0.51100000000E-03 0.  1.
         11   -1    0    0    0    0 -0.00000000000E+00 -0.00000000000E+00 -0.45593999997E+02  0.45594000000E+02  0.51100000000E-03 0. -1.
    9900012    2    1    2    0    0 -0.91270566607E+00 -0.70841552098E+00 -0.24110173090E+00  0.90007739763E+02  0.90000001128E+02 0.  0.
        -12    1    1    2    0    0  0.91270566607E+00  0.70841552098E+00  0.24110173090E+00  0.11802602374E+01  0.00000000000E+00 0.  1.
         11    1    3    3    0    0 -0.38246532220E+01  0.44776344116E+01 -0.78492514237E+01  0.98126413552E+01  0.51100000000E-03 0. -1.
        -11    1    3    3    0    0 -0.12489988394E+02  0.32558871291E+02  0.16329464612E+02  0.38506250461E+02  0.51100000000E-03 0.  1.
         12    1    3    3    0    0  0.15401935950E+02 -0.37744921223E+02 -0.87213149190E+01  0.41688847946E+02  0.00000000000E+00 0. -1.
</event>
<event>
 7    1  0.3622165E-015  0.9000775E+02  0.7816164E-02  0.1186339E+00
        -11   -1    0    0    0    0  0.00000000000E+00  0.00000000000E+00  0.45593999997E+02  0.45594000000E+02  0.51100000000E-03 0. -1.
         11   -1    0    0    0    0 -0.00000000000E+00 -0.00000000000E+00 -0.45593999997E+02  0.45594000000E+02  0.51100000000E-03 0.  1.
    9900012    2    1    2    0    0  0.33501509855E+00 -0.73264158662E+00  0.86255559322E+00  0.90007745383E+02  0.90000006822E+02 0.  0.
        -12    1    1    2    0    0 -0.33501509855E+00  0.73264158662E+00 -0.86255559322E+00  0.11802546175E+01  0.00000000000E+00 0.  1.
         11    1    3    3    0    0 -0.18061840288E+01 -0.25126453528E+02  0.26509042671E+02  0.36569527085E+02  0.51100000000E-03 0. -1.
        -11    1    3    3    0    0 -0.49800041663E+00 -0.72799837829E+01  0.53456579096E+01  0.90455639428E+01  0.51100000000E-03 0.  1.
        -12    1    3    3    0    0  0.26391995440E+01  0.31673795724E+02 -0.30992144987E+02  0.44392654355E+02  0.00000000000E+00 0.  1.
</event>
<event>
 7    1  0.3622165E-015  0.9000772E+02  0.7816164E-02  0.1186339E+00
        -11   -1    0    0    0    0  0.00000000000E+00  0.00000000000E+00  0.45593999997E+02  0.45594000000E+02  0.51100000000E-03 0.  1.
         11   -1    0    0    0    0 -0.00000000000E+00 -0.00000000000E+00 -0.45593999997E+02  0.45594000000E+02  0.51100000000E-03 0. -1.
    9900012    2    1    2    0    0 -0.66034739822E+00  0.17857624685E+00 -0.96182242956E+00  0.90007724376E+02  0.89999985538E+02 0.  0.
        -12    1    1    2    0    0  0.66034739822E+00 -0.17857624685E+00  0.96182242956E+00  0.11802756239E+01  0.00000000000E+00 0.  1.
         11    1    3    3    0    0  0.76142611321E+01  0.37128711172E+02 -0.13054229742E+02  0.40086544879E+02  0.51100000000E-03 0. -1.
        -11    1    3    3    0    0 -0.90322771014E+01  0.14312760981E+01 -0.13556976323E+01  0.92449173732E+01  0.51100000000E-03 0.  1.
        -12    1    3    3    0    0  0.75766857108E+00 -0.38381411023E+02  0.13448104945E+02  0.40676262124E+02  0.00000000000E+00 0.  1.
</event>
<event>
 7    1  0.3622165E-015  0.9000881E+02  0.7816164E-02  0.1186337E+00
        -11   -1    0    0    0    0  0.00000000000E+00  0.00000000000E+00  0.45593999997E+02  0.45594000000E+02  0.51100000000E-03 0.  1.
         11   -1    0    0    0    0 -0.00000000000E+00 -0.00000000000E+00 -0.45593999997E+02  0.45594000000E+02  0.51100000000E-03 0. -1.
    9900012    2    1    2    0    0  0.59736076842E+00  0.70490537926E+00 -0.73263581971E+00  0.90008810988E+02  0.90001086487E+02 0.  0.
        -12    1    1    2    0    0 -0.59736076842E+00 -0.70490537926E+00  0.73263581971E+00  0.11791890119E+01  0.00000000000E+00 0.  1.
         11    1    3    3    0    0  0.70477468750E+01 -0.10397266033E+02  0.46364396374E+01  0.13389191527E+02  0.51100000000E-03 0. -1.
        -11    1    3    3    0    0  0.27706691727E+02  0.13937827278E+02 -0.22486038358E+02  0.38308559318E+02  0.51100000000E-03 0.  1.
         12    1    3    3    0    0 -0.34157077834E+02 -0.28356558659E+01  0.17116962901E+02  0.38311060143E+02  0.00000000000E+00 0. -1.
</event>
<event>
 7    1  0.3622165E-015  0.9000774E+02  0.7816164E-02  0.1186339E+00
        -11   -1    0    0    0    0  0.00000000000E+00  0.00000000000E+00  0.45593999997E+02  0.45594000000E+02  0.51100000000E-03 0. -1.
         11   -1    0    0    0    0 -0.00000000000E+00 -0.00000000000E+00 -0.45593999997E+02  0.45594000000E+02  0.51100000000E-03 0.  1.
    9900012    2    1    2    0    0  0.10542677850E+01 -0.52596880743E+00 -0.70006277323E-01  0.90007735357E+02  0.89999996664E+02 0.  0.
        -12    1    1    2    0    0 -0.10542677850E+01  0.52596880743E+00  0.70006277323E-01  0.11802646431E+01  0.00000000000E+00 0.  1.
         11    1    3    3    0    0  0.32917209326E+02  0.71490612677E+01  0.12184558549E+02  0.35820597624E+02  0.51100000000E-03 0. -1.
        -11    1    3    3    0    0  0.82753395711E+01  0.94239078662E-02  0.51729081995E+01  0.97591143722E+01  0.51100000000E-03 0.  1.
        -12    1    3    3    0    0 -0.40138281112E+02 -0.76844539830E+01 -0.17427473026E+02  0.44428023361E+02  0.00000000000E+00 0.  1.
</event>
<event>
 7    1  0.3622165E-015  0.9000759E+02  0.7816164E-02  0.1186339E+00
        -11   -1    0    0    0    0  0.00000000000E+00  0.00000000000E+00  0.45593999997E+02  0.45594000000E+02  0.51100000000E-03 0. -1.
         11   -1    0    0    0    0 -0.00000000000E+00 -0.00000000000E+00 -0.45593999997E+02  0.45594000000E+02  0.51100000000E-03 0.  1.
    9900012    2    1    2    0    0  0.87672130507E+00  0.78709538180E+00  0.72242899257E-01  0.90007585487E+02  0.89999844815E+02 0.  0.
        -12    1    1    2    0    0 -0.87672130507E+00 -0.78709538180E+00 -0.72242899257E-01  0.11804145133E+01  0.00000000000E+00 0.  1.
         11    1    3    3    0    0 -0.34611241699E+02 -0.55988537698E+01  0.24857211172E+02  0.42978671024E+02  0.51100000000E-03 0. -1.
        -11    1    3    3    0    0  0.58795948187E+01 -0.54488867995E+01 -0.60830498234E+01  0.10062976597E+02  0.51100000000E-03 0.  1.
        -12    1    3    3    0    0  0.29608368185E+02  0.11834835951E+02 -0.18701918449E+02  0.36965937865E+02  0.00000000000E+00 0.  1.
</event>
<event>
 7    1  0.3622165E-015  0.9000768E+02  0.7816164E-02  0.1186339E+00
        -11   -1    0    0    0    0  0.00000000000E+00  0.00000000000E+00  0.45593999997E+02  0.45594000000E+02  0.51100000000E-03 0.  1.
         11   -1    0    0    0    0 -0.00000000000E+00 -0.00000000000E+00 -0.45593999997E+02  0.45594000000E+02  0.51100000000E-03 0. -1.
    9900012    2    1    2    0    0  0.71366590361E+00 -0.18606524201E+00 -0.92153203985E+00  0.90007677757E+02  0.89999938304E+02 0.  0.
        -12    1    1    2    0    0 -0.71366590361E+00  0.18606524201E+00  0.92153203985E+00  0.11803222427E+01  0.00000000000E+00 0.  1.
         11    1    3    3    0    0  0.34017537899E+01  0.24196338814E+01  0.94720281851E+01  0.10351129174E+02  0.51100000000E-03 0. -1.
        -11    1    3    3    0    0  0.20036255204E+01 -0.14845418190E+02  0.31973132067E+02  0.35308386127E+02  0.51100000000E-03 0.  1.
         12    1    3    3    0    0 -0.46917134067E+01  0.12239719067E+02 -0.42366692292E+02  0.44348162457E+02  0.00000000000E+00 0. -1.
</event>
<event>
 7    1  0.3622165E-015  0.9000770E+02  0.7816164E-02  0.1186339E+00
        -11   -1    0    0    0    0  0.00000000000E+00  0.00000000000E+00  0.45593999997E+02  0.45594000000E+02  0.51100000000E-03 0.  1.
         11   -1    0    0    0    0 -0.00000000000E+00 -0.00000000000E+00 -0.45593999997E+02  0.45594000000E+02  0.51100000000E-03 0. -1.
    9900012    2    1    2    0    0  0.70310458557E+00  0.76042705177E+00  0.56612075450E+00  0.90007704246E+02  0.89999965142E+02 0.  0.
        -12    1    1    2    0    0 -0.70310458557E+00 -0.76042705177E+00 -0.56612075450E+00  0.11802957545E+01  0.00000000000E+00 0.  1.
         11    1    3    3    0    0  0.78227359645E+01 -0.92307882809E+00 -0.27302335402E+01  0.83367528414E+01  0.51100000000E-03 0. -1.
        -11    1    3    3    0    0 -0.24784318007E+02  0.20529391773E+01  0.36436770425E+02  0.44114795904E+02  0.51100000000E-03 0.  1.
         12    1    3    3    0    0  0.17664686628E+02 -0.36943329742E+00 -0.33140416131E+02  0.37556155500E+02  0.00000000000E+00 0. -1.
</event>
<event>
 7    1  0.3622165E-015  0.9000771E+02  0.7816164E-02  0.1186339E+00
        -11   -1    0    0    0    0  0.00000000000E+00  0.00000000000E+00  0.45593999997E+02  0.45594000000E+02  0.51100000000E-03 0. -1.
         11   -1    0    0    0    0 -0.00000000000E+00 -0.00000000000E+00 -0.45593999997E+02  0.45594000000E+02  0.51100000000E-03 0.  1.
    9900012    2    1    2    0    0  0.40621510087E+00  0.80141997266E+00  0.76538063289E+00  0.90007706734E+02  0.89999967663E+02 0.  0.
        -12    1    1    2    0    0 -0.40621510087E+00 -0.80141997266E+00 -0.76538063289E+00  0.11802932661E+01  0.00000000000E+00 0.  1.
         11    1    3    3    0    0  0.14226479340E+02 -0.33990005010E+02 -0.15654283034E+00  0.36847491921E+02  0.51100000000E-03 0. -1.
        -11    1    3    3    0    0  0.25931687649E+01 -0.68332678439E+01  0.39612475158E+01  0.83132157323E+01  0.51100000000E-03 0.  1.
        -12    1    3    3    0    0 -0.16413433004E+02  0.41624692826E+02 -0.30393240526E+01  0.44846999081E+02  0.00000000000E+00 0.  1.
</event>
<event>
 7    1  0.3622165E-015  0.9000774E+02  0.7816164E-02  0.1186339E+00
        -11   -1    0    0    0    0  0.00000000000E+00  0.00000000000E+00  0.45593999997E+02  0.45594000000E+02  0.51100000000E-03 0.  1.
         11   -1    0    0    0    0 -0.00000000000E+00 -0.00000000000E+00 -0.45593999997E+02  0.45594000000E+02  0.51100000000E-03 0. -1.
    9900012    2    1    2    0    0 -0.32284611626E+00  0.11109224326E+00 -0.11298026527E+01  0.90007735142E+02  0.89999996446E+02 0.  0.
        -12    1    1    2    0    0  0.32284611626E+00 -0.11109224326E+00  0.11298026527E+01  0.11802648582E+01  0.00000000000E+00 0.  1.
         11    1    3    3    0    0  0.62583535695E+00  0.87660505003E+01  0.91057969971E+00  0.88354098331E+01  0.51100000000E-03 0. -1.
        -11    1    3    3    0    0  0.37603033911E+02 -0.76601231907E+01  0.11880278284E+02  0.40172212523E+02  0.51100000000E-03 0.  1.
         12    1    3    3    0    0 -0.38551715384E+02 -0.99483506640E+00 -0.13920660636E+02  0.41000112786E+02  0.00000000000E+00 0. -1.
</event>
<event>
 7    1  0.3622165E-015  0.9000780E+02  0.7816164E-02  0.1186339E+00
        -11   -1    0    0    0    0  0.00000000000E+00  0.00000000000E+00  0.45593999997E+02  0.45594000000E+02  0.51100000000E-03 0.  1.
         11   -1    0    0    0    0 -0.00000000000E+00 -0.00000000000E+00 -0.45593999997E+02  0.45594000000E+02  0.51100000000E-03 0. -1.
    9900012    2    1    2    0    0 -0.47283546506E+00 -0.67139132183E+00 -0.84766272778E+00  0.90007800108E+02  0.90000062270E+02 0.  0.
        -12    1    1    2    0    0  0.47283546506E+00  0.67139132183E+00  0.84766272778E+00  0.11801998916E+01  0.00000000000E+00 0.  1.
         11    1    3    3    0    0 -0.68718022405E+01 -0.34900684247E+01  0.53773744393E+01  0.93977869609E+01  0.51100000000E-03 0. -1.
        -11    1    3    3    0    0  0.10370266944E+02  0.26413058293E+02  0.27330873996E+02  0.39397573002E+02  0.51100000000E-03 0.  1.
         12    1    3    3    0    0 -0.39713001687E+01 -0.23594381190E+02 -0.33555911163E+02  0.41212440145E+02  0.00000000000E+00 0. -1.
</event>
<event>
 7    1  0.3622165E-015  0.9000777E+02  0.7816164E-02  0.1186339E+00
        -11   -1    0    0    0    0  0.00000000000E+00  0.00000000000E+00  0.45593999997E+02  0.45594000000E+02  0.51100000000E-03 0.  1.
         11   -1    0    0    0    0 -0.00000000000E+00 -0.00000000000E+00 -0.45593999997E+02  0.45594000000E+02  0.51100000000E-03 0. -1.
    9900012    2    1    2    0    0 -0.11057609554E+01  0.45792065452E-01 -0.41005127084E+00  0.90007768561E+02  0.90000030306E+02 0.  0.
        -12    1    1    2    0    0  0.11057609554E+01 -0.45792065452E-01  0.41005127084E+00  0.11802314385E+01  0.00000000000E+00 0.  1.
         11    1    3    3    0    0  0.37956029805E+02 -0.11297385671E+01 -0.12962120375E+02  0.40124220524E+02  0.51100000000E-03 0. -1.
        -11    1    3    3    0    0 -0.21660388149E+01 -0.82445608417E+01 -0.25823429200E+01  0.89069075912E+01  0.51100000000E-03 0.  1.
        -12    1    3    3    0    0 -0.36895751945E+02  0.94200914743E+01  0.15134412024E+02  0.40976640447E+02  0.00000000000E+00 0.  1.
</event>
<event>
 7    1  0.3622165E-015  0.9000779E+02  0.7816164E-02  0.1186339E+00
        -11   -1    0    0    0    0  0.00000000000E+00  0.00000000000E+00  0.45593999997E+02  0.45594000000E+02  0.51100000000E-03 0.  1.
         11   -1    0    0    0    0 -0.00000000000E+00 -0.00000000000E+00 -0.45593999997E+02  0.45594000000E+02  0.51100000000E-03 0. -1.
    9900012    2    1    2    0    0  0.11179931062E+00 -0.65339848313E+00 -0.97645198453E+00  0.90007793602E+02  0.90000055678E+02 0.  0.
        -12    1    1    2    0    0 -0.11179931062E+00  0.65339848313E+00  0.97645198453E+00  0.11802063979E+01  0.00000000000E+00 0.  1.
         11    1    3    3    0    0 -0.18402232210E+02 -0.32258074861E+02  0.78402831117E+01  0.37956495934E+02  0.51100000000E-03 0. -1.
        -11    1    3    3    0    0  0.10165175319E+01 -0.49780944080E+01  0.68925842514E+01  0.85628528979E+01  0.51100000000E-03 0.  1.
        -12    1    3    3    0    0  0.17497513988E+02  0.36582770786E+02 -0.15709319348E+02  0.43488444770E+02  0.00000000000E+00 0.  1.
</event>
<event>
 7    1  0.3622165E-015  0.9000777E+02  0.7816164E-02  0.1186339E+00
        -11   -1    0    0    0    0  0.00000000000E+00  0.00000000000E+00  0.45593999997E+02  0.45594000000E+02  0.51100000000E-03 0.  1.
         11   -1    0    0    0    0 -0.00000000000E+00 -0.00000000000E+00 -0.45593999997E+02  0.45594000000E+02  0.51100000000E-03 0. -1.
    9900012    2    1    2    0    0 -0.42121140840E+00 -0.11015136259E+01 -0.46828814940E-01  0.90007769405E+02  0.90000031162E+02 0.  0.
        -12    1    1    2    0    0  0.42121140840E+00  0.11015136259E+01  0.46828814940E-01  0.11802305946E+01  0.00000000000E+00 0.  1.
         11    1    3    3    0    0  0.12115164299E+02  0.36788217099E+02  0.76893053382E+01  0.39487663139E+02  0.51100000000E-03 0. -1.
        -11    1    3    3    0    0 -0.71182674227E+01 -0.71464671686E+01 -0.15369083148E+02  0.18383428439E+02  0.51100000000E-03 0.  1.
        -12    1    3    3    0    0 -0.54181082846E+01 -0.30743263556E+02  0.76329489948E+01  0.32136677828E+02  0.00000000000E+00 0.  1.
</event>
<event>
 7    1  0.3622165E-015  0.9000776E+02  0.7816164E-02  0.1186339E+00
        -11   -1    0    0    0    0  0.00000000000E+00  0.00000000000E+00  0.45593999997E+02  0.45594000000E+02  0.51100000000E-03 0.  1.
         11   -1    0    0    0    0 -0.00000000000E+00 -0.00000000000E+00 -0.45593999997E+02  0.45594000000E+02  0.51100000000E-03 0. -1.
    9900012    2    1    2    0    0 -0.11290906498E+01  0.34246017933E+00  0.28926744973E-01  0.90007762131E+02  0.90000023791E+02 0.  0.
        -12    1    1    2    0    0  0.11290906498E+01 -0.34246017933E+00 -0.28926744973E-01  0.11802378686E+01  0.00000000000E+00 0.  1.
         11    1    3    3    0    0  0.43453609482E+01 -0.93108809275E+01  0.61208866114E+01  0.11959929707E+02  0.51100000000E-03 0. -1.
        -11    1    3    3    0    0  0.48067932522E+01 -0.17372237906E+02  0.28027936067E+02  0.33323641933E+02  0.51100000000E-03 0.  1.
         12    1    3    3    0    0 -0.10281244850E+02  0.27025579013E+02 -0.34119895933E+02  0.44724190492E+02  0.00000000000E+00 0. -1.
</event>
<event>
 7    1  0.3622165E-015  0.9000777E+02  0.7816164E-02  0.1186339E+00
        -11   -1    0    0    0    0  0.00000000000E+00  0.00000000000E+00  0.45593999997E+02  0.45594000000E+02  0.51100000000E-03 0.  1.
         11   -1    0    0    0    0 -0.00000000000E+00 -0.00000000000E+00 -0.45593999997E+02  0.45594000000E+02  0.51100000000E-03 0. -1.
    9900012    2    1    2    0    0 -0.34875488869E+00  0.10005578597E+01 -0.51981037873E+00  0.90007767467E+02  0.90000029197E+02 0.  0.
        -12    1    1    2    0    0  0.34875488869E+00 -0.10005578597E+01  0.51981037873E+00  0.11802325333E+01  0.00000000000E+00 0.  1.
         11    1    3    3    0    0  0.19404000531E+02 -0.11687627864E+02 -0.28634109406E+02  0.36510657395E+02  0.51100000000E-03 0. -1.
        -11    1    3    3    0    0 -0.16160318789E+02  0.99834167115E+01 -0.53481121953E+01  0.19733900195E+02  0.51100000000E-03 0.  1.
        -12    1    3    3    0    0 -0.35924366310E+01  0.27047690124E+01  0.33462411222E+02  0.33763209876E+02  0.00000000000E+00 0.  1.
</event>
<event>
 7    1  0.3622165E-015  0.9000771E+02  0.7816164E-02  0.1186339E+00
        -11   -1    0    0    0    0  0.00000000000E+00  0.00000000000E+00  0.45593999997E+02  0.45594000000E+02  0.51100000000E-03 0.  1.
         11   -1    0    0    0    0 -0.00000000000E+00 -0.00000000000E+00 -0.45593999997E+02  0.45594000000E+02  0.51100000000E-03 0. -1.
    9900012    2    1    2    0    0 -0.15750454550E+00 -0.89629127238E+00 -0.75163150286E+00  0.90007705273E+02  0.89999966182E+02 0.  0.
        -12    1    1    2    0    0  0.15750454550E+00  0.89629127238E+00  0.75163150286E+00  0.11802947271E+01  0.00000000000E+00 0.  1.
         11    1    3    3    0    0 -0.30299317130E+02 -0.37547052113E+01 -0.23330695315E+02  0.38424832776E+02  0.51100000000E-03 0. -1.
        -11    1    3    3    0    0 -0.70459271362E+01  0.55410624899E+01  0.28837617073E+01  0.94161852451E+01  0.51100000000E-03 0.  1.
        -12    1    3    3    0    0  0.37187739720E+02 -0.26826485510E+01  0.19695302105E+02  0.42166687251E+02  0.00000000000E+00 0.  1.
</event>
<event>
 7    1  0.3622165E-015  0.9000771E+02  0.7816164E-02  0.1186339E+00
        -11   -1    0    0    0    0  0.00000000000E+00  0.00000000000E+00  0.45593999997E+02  0.45594000000E+02  0.51100000000E-03 0.  1.
         11   -1    0    0    0    0 -0.00000000000E+00 -0.00000000000E+00 -0.45593999997E+02  0.45594000000E+02  0.51100000000E-03 0. -1.
    9900012    2    1    2    0    0 -0.30839925694E+00 -0.49518722475E+00 -0.10260379532E+01  0.90007714284E+02  0.89999975313E+02 0.  0.
        -12    1    1    2    0    0  0.30839925694E+00  0.49518722475E+00  0.10260379532E+01  0.11802857156E+01  0.00000000000E+00 0.  1.
         11    1    3    3    0    0  0.98356311039E+01 -0.38397979830E+02 -0.10912715873E+01  0.39652684250E+02  0.51100000000E-03 0. -1.
        -11    1    3    3    0    0  0.41350827014E+01 -0.39631020404E+01  0.20319731608E+01  0.60773351000E+01  0.51100000000E-03 0.  1.
        -12    1    3    3    0    0 -0.14279113062E+02  0.41865894646E+02 -0.19667395267E+01  0.44277694935E+02  0.00000000000E+00 0.  1.
</event>
<event>
 7    1  0.4883487E-015  0.9000795E+02  0.7816164E-02  0.1186339E+00
        -11   -1    0    0    0    0  0.00000000000E+00  0.00000000000E+00  0.45593999997E+02  0.45594000000E+02  0.51100000000E-03 0. -1.
         11   -1    0    0    0    0 -0.00000000000E+00 -0.00000000000E+00 -0.45593999997E+02  0.45594000000E+02  0.51100000000E-03 0.  1.
    9900012    2    1    2    0    0  0.35249030989E+00  0.58834481712E+00  0.96027081872E+00  0.90007949540E+02  0.90000213674E+02 0.  0.
        -12    1    1    2    0    0 -0.35249030989E+00 -0.58834481712E+00 -0.96027081872E+00  0.11800504598E+01  0.00000000000E+00 0.  1.
         11    1    3    3    0    0 -0.10334236160E+01 -0.82175503537E+01 -0.51642015274E+01  0.97603829773E+01  0.51100000000E-03 0. -1.
        -11    1    3    3    0    0 -0.87214947996E+01  0.55907163586E+01 -0.35661890955E+02  0.37136115140E+02  0.51100000000E-03 0.  1.
         12    1    3    3    0    0  0.10107408726E+02  0.32151788123E+01  0.41786363301E+02  0.43111451423E+02  0.00000000000E+00 0. -1.
</event>
<event>
 7    1  0.3622165E-015  0.9000786E+02  0.7816164E-02  0.1186339E+00
        -11   -1    0    0    0    0  0.00000000000E+00  0.00000000000E+00  0.45593999997E+02  0.45594000000E+02  0.51100000000E-03 0. -1.
         11   -1    0    0    0    0 -0.00000000000E+00 -0.00000000000E+00 -0.45593999997E+02  0.45594000000E+02  0.51100000000E-03 0.  1.
    9900012    2    1    2    0    0 -0.46238272619E+00 -0.10039795888E+01  0.41346916263E+00  0.90007860369E+02  0.90000123326E+02 0.  0.
        -12    1    1    2    0    0  0.46238272619E+00  0.10039795888E+01 -0.41346916263E+00  0.11801396310E+01  0.00000000000E+00 0.  1.
         11    1    3    3    0    0  0.22956650808E+02  0.11675550952E+02  0.31120745325E+02  0.40395879693E+02  0.51100000000E-03 0. -1.
        -11    1    3    3    0    0  0.14250266650E+01  0.70062120036E+01 -0.72168314633E+01  0.10158758008E+02  0.51100000000E-03 0.  1.
        -12    1    3    3    0    0 -0.24844060200E+02 -0.19685742544E+02 -0.23490444699E+02  0.39453222668E+02  0.00000000000E+00 0.  1.
</event>
<event>
 7    1  0.3622165E-015  0.9000741E+02  0.7816164E-02  0.1186340E+00
        -11   -1    0    0    0    0  0.00000000000E+00  0.00000000000E+00  0.45593999997E+02  0.45594000000E+02  0.51100000000E-03 0. -1.
         11   -1    0    0    0    0 -0.00000000000E+00 -0.00000000000E+00 -0.45593999997E+02  0.45594000000E+02  0.51100000000E-03 0.  1.
    9900012    2    1    2    0    0 -0.19390855899E+00 -0.32903613658E+00  0.11171070281E+01  0.90007409715E+02  0.89999666723E+02 0.  0.
        -12    1    1    2    0    0  0.19390855899E+00  0.32903613658E+00 -0.11171070281E+01  0.11805902848E+01  0.00000000000E+00 0.  1.
         11    1    3    3    0    0 -0.35961962368E+01 -0.55610096746E+01 -0.58709398352E+01  0.88501633196E+01  0.51100000000E-03 0. -1.
        -11    1    3    3    0    0  0.38025238753E+02 -0.77393891211E+00 -0.13645905349E+02  0.40407035238E+02  0.51100000000E-03 0.  1.
         12    1    3    3    0    0 -0.34622951075E+02  0.60059124501E+01  0.20633952212E+02  0.40750211158E+02  0.00000000000E+00 0. -1.
</event>
<event>
 7    1  0.3622165E-015  0.9000774E+02  0.7816164E-02  0.1186339E+00
        -11   -1    0    0    0    0  0.00000000000E+00  0.00000000000E+00  0.45593999997E+02  0.45594000000E+02  0.51100000000E-03 0.  1.
         11   -1    0    0    0    0 -0.00000000000E+00 -0.00000000000E+00 -0.45593999997E+02  0.45594000000E+02  0.51100000000E-03 0. -1.
    9900012    2    1    2    0    0 -0.12238600246E+00  0.11229586421E+01 -0.34206756380E+00  0.90007735342E+02  0.89999996648E+02 0.  0.
        -12    1    1    2    0    0  0.12238600246E+00 -0.11229586421E+01  0.34206756380E+00  0.11802646583E+01  0.00000000000E+00 0.  1.
         11    1    3    3    0    0 -0.15351022749E+01 -0.17857896408E+01 -0.10498804034E+02  0.10759668678E+02  0.51100000000E-03 0. -1.
        -11    1    3    3    0    0 -0.16293860373E+02  0.21279891071E+02 -0.24432218326E+02  0.36266471326E+02  0.51100000000E-03 0.  1.
         12    1    3    3    0    0  0.17706576646E+02 -0.18371142788E+02  0.34588954797E+02  0.42981595338E+02  0.00000000000E+00 0. -1.
</event>
<event>
 7    1  0.3622165E-015  0.9000773E+02  0.7816164E-02  0.1186339E+00
        -11   -1    0    0    0    0  0.00000000000E+00  0.00000000000E+00  0.45593999997E+02  0.45594000000E+02  0.51100000000E-03 0.  1.
         11   -1    0    0    0    0 -0.00000000000E+00 -0.00000000000E+00 -0.45593999997E+02  0.45594000000E+02  0.51100000000E-03 0. -1.
    9900012    2    1    2    0    0  0.46569563199E+00  0.96757964449E+00 -0.48985216072E+00  0.90007729722E+02  0.89999990954E+02 0.  0.
        -12    1    1    2    0    0 -0.46569563199E+00 -0.96757964449E+00  0.48985216072E+00  0.11802702781E+01  0.00000000000E+00 0.  1.
         11    1    3    3    0    0 -0.42047641073E+02 -0.36806317190E+01 -0.37848024696E+01  0.42377776011E+02  0.51100000000E-03 0. -1.
        -11    1    3    3    0    0  0.64105726228E+01 -0.58746816582E+01 -0.35768361150E+01  0.94021850009E+01  0.51100000000E-03 0.  1.
        -12    1    3    3    0    0  0.36102764082E+02  0.10522893022E+02  0.68717864238E+01  0.38227768710E+02  0.00000000000E+00 0.  1.
</event>
<event>
 7    1  0.3622165E-015  0.9000776E+02  0.7816164E-02  0.1186339E+00
        -11   -1    0    0    0    0  0.00000000000E+00  0.00000000000E+00  0.45593999997E+02  0.45594000000E+02  0.51100000000E-03 0. -1.
         11   -1    0    0    0    0 -0.00000000000E+00 -0.00000000000E+00 -0.45593999997E+02  0.45594000000E+02  0.51100000000E-03 0.  1.
    9900012    2    1    2    0    0  0.66545073431E+00  0.79909717328E+00  0.55820034636E+00  0.90007759093E+02  0.90000020713E+02 0.  0.
        -12    1    1    2    0    0 -0.66545073431E+00 -0.79909717328E+00 -0.55820034636E+00  0.11802409071E+01  0.00000000000E+00 0.  1.
         11    1    3    3    0    0 -0.17623296853E+02 -0.18311349491E+02  0.32041384203E+02  0.40896655291E+02  0.51100000000E-03 0. -1.
        -11    1    3    3    0    0  0.26137879053E+01  0.10272776131E+02  0.22886449538E+01  0.10844340120E+02  0.51100000000E-03 0.  1.
        -12    1    3    3    0    0  0.15674959682E+02  0.88376705331E+01 -0.33771828810E+02  0.38266763681E+02  0.00000000000E+00 0.  1.
</event>
<event>
 7    1  0.3622165E-015  0.9000806E+02  0.7816164E-02  0.1186338E+00
        -11   -1    0    0    0    0  0.00000000000E+00  0.00000000000E+00  0.45593999997E+02  0.45594000000E+02  0.51100000000E-03 0. -1.
         11   -1    0    0    0    0 -0.00000000000E+00 -0.00000000000E+00 -0.45593999997E+02  0.45594000000E+02  0.51100000000E-03 0.  1.
    9900012    2    1    2    0    0 -0.78126077302E+00  0.88409255570E+00  0.16234108190E-01  0.90008062888E+02  0.90000328517E+02 0.  0.
        -12    1    1    2    0    0  0.78126077302E+00 -0.88409255570E+00 -0.16234108190E-01  0.11799371122E+01  0.00000000000E+00 0.  1.
         11    1    3    3    0    0 -0.23340531613E+02  0.13325691137E+02  0.24527442018E+02  0.36386121976E+02  0.51100000000E-03 0. -1.
        -11    1    3    3    0    0 -0.76141852408E+01  0.39682365328E+01  0.35285153331E+01  0.92829488192E+01  0.51100000000E-03 0.  1.
        -12    1    3    3    0    0  0.30173456080E+02 -0.16409835114E+02 -0.28039723243E+02  0.44338992093E+02  0.00000000000E+00 0.  1.
</event>
<event>
 7    1  0.3622165E-015  0.9000763E+02  0.7816164E-02  0.1186339E+00
        -11   -1    0    0    0    0  0.00000000000E+00  0.00000000000E+00  0.45593999997E+02  0.45594000000E+02  0.51100000000E-03 0.  1.
         11   -1    0    0    0    0 -0.00000000000E+00 -0.00000000000E+00 -0.45593999997E+02  0.45594000000E+02  0.51100000000E-03 0. -1.
    9900012    2    1    2    0    0  0.82991118002E+00  0.81327804025E+00 -0.20757950777E+00  0.90007634383E+02  0.89999894357E+02 0.  0.
        -12    1    1    2    0    0 -0.82991118002E+00 -0.81327804025E+00  0.20757950777E+00  0.11803656169E+01  0.00000000000E+00 0.  1.
         11    1    3    3    0    0  0.23803607481E+01 -0.55930549782E+01  0.30041674800E+01  0.67803690010E+01  0.51100000000E-03 0. -1.
        -11    1    3    3    0    0  0.26821531093E+02 -0.23032666236E+02  0.15080982562E+02  0.38436106454E+02  0.51100000000E-03 0.  1.
         12    1    3    3    0    0 -0.28371980661E+02  0.29438999255E+02 -0.18292729550E+02  0.44791158928E+02  0.00000000000E+00 0. -1.
</event>
<event>
 7    1  0.3622165E-015  0.9000734E+02  0.7816164E-02  0.1186340E+00
        -11   -1    0    0    0    0  0.00000000000E+00  0.00000000000E+00  0.45593999997E+02  0.45594000000E+02  0.51100000000E-03 0.  1.
         11   -1    0    0    0    0 -0.00000000000E+00 -0.00000000000E+00 -0.45593999997E+02  0.45594000000E+02  0.51100000000E-03 0. -1.
    9900012    2    1    2    0    0 -0.74366012250E+00  0.56019800299E+00 -0.72601285588E+00  0.90007344738E+02  0.89999600888E+02 0.  0.
        -12    1    1    2    0    0  0.74366012250E+00 -0.56019800299E+00  0.72601285588E+00  0.11806552618E+01  0.00000000000E+00 0.  1.
         11    1    3    3    0    0  0.24835972570E+01  0.83386163016E+01  0.74270025249E+01  0.11439455578E+02  0.51100000000E-03 0. -1.
        -11    1    3    3    0    0 -0.29051441531E+02  0.18874221478E+02  0.11590295477E+02  0.36531595106E+02  0.51100000000E-03 0.  1.
         12    1    3    3    0    0  0.25824184152E+02 -0.26652639777E+02 -0.19743310858E+02  0.42036294054E+02  0.00000000000E+00 0. -1.
</event>
<event>
 7    1  0.3622165E-015  0.9000771E+02  0.7816164E-02  0.1186339E+00
        -11   -1    0    0    0    0  0.00000000000E+00  0.00000000000E+00  0.45593999997E+02  0.45594000000E+02  0.51100000000E-03 0.  1.
         11   -1    0    0    0    0 -0.00000000000E+00 -0.00000000000E+00 -0.45593999997E+02  0.45594000000E+02  0.51100000000E-03 0. -1.
    9900012    2    1    2    0    0  0.35134444769E+00 -0.17222933825E-01 -0.11266475583E+01  0.90007714327E+02  0.89999975356E+02 0.  0.
        -12    1    1    2    0    0 -0.35134444769E+00  0.17222933825E-01  0.11266475583E+01  0.11802856735E+01  0.00000000000E+00 0.  1.
         11    1    3    3    0    0 -0.20350929306E+02  0.28446625399E+02  0.80883011008E+01  0.35899741436E+02  0.51100000000E-03 0. -1.
        -11    1    3    3    0    0 -0.98561203729E+01 -0.58412290922E+00  0.40441111510E+01  0.10669542804E+02  0.51100000000E-03 0.  1.
        -12    1    3    3    0    0  0.30558394127E+02 -0.27879725424E+02 -0.13259059810E+02  0.43438430086E+02  0.00000000000E+00 0.  1.
</event>
<event>
 7    1  0.3622165E-015  0.9000779E+02  0.7816164E-02  0.1186339E+00
        -11   -1    0    0    0    0  0.00000000000E+00  0.00000000000E+00  0.45593999997E+02  0.45594000000E+02  0.51100000000E-03 0.  1.
         11   -1    0    0    0    0 -0.00000000000E+00 -0.00000000000E+00 -0.45593999997E+02  0.45594000000E+02  0.51100000000E-03 0. -1.
    9900012    2    1    2    0    0  0.62342342908E+00 -0.27483703086E+00 -0.96369316986E+00  0.90007789556E+02  0.90000051579E+02 0.  0.
        -12    1    1    2    0    0 -0.62342342908E+00  0.27483703086E+00  0.96369316986E+00  0.11802104436E+01  0.00000000000E+00 0.  1.
         11    1    3    3    0    0  0.33024332398E+02 -0.12465833322E+02 -0.44408618581E+01  0.35577026085E+02  0.51100000000E-03 0. -1.
        -11    1    3    3    0    0  0.10196084872E+02  0.14954289485E+01 -0.60045877278E+00  0.10322645275E+02  0.51100000000E-03 0.  1.
        -12    1    3    3    0    0 -0.42596993842E+02  0.10695567343E+02  0.40776274611E+01  0.44108118197E+02  0.00000000000E+00 0.  1.
</event>
<event>
 7    1  0.3622165E-015  0.9000772E+02  0.7816164E-02  0.1186339E+00
        -11   -1    0    0    0    0  0.00000000000E+00  0.00000000000E+00  0.45593999997E+02  0.45594000000E+02  0.51100000000E-03 0.  1.
         11   -1    0    0    0    0 -0.00000000000E+00 -0.00000000000E+00 -0.45593999997E+02  0.45594000000E+02  0.51100000000E-03 0. -1.
    9900012    2    1    2    0    0  0.10664939760E+01  0.27776015492E+00  0.42249213631E+00  0.90007720495E+02  0.89999981606E+02 0.  0.
        -12    1    1    2    0    0 -0.10664939760E+01 -0.27776015492E+00 -0.42249213631E+00  0.11802795050E+01  0.00000000000E+00 0.  1.
         11    1    3    3    0    0  0.28062942632E+01  0.63739924355E+01  0.63247557787E+01  0.94077416514E+01  0.51100000000E-03 0. -1.
        -11    1    3    3    0    0 -0.18815666914E+02 -0.29745476364E+02  0.20943722988E+02  0.40956833598E+02  0.51100000000E-03 0.  1.
         12    1    3    3    0    0  0.17075866627E+02  0.23649244084E+02 -0.26845986630E+02  0.39643145245E+02  0.00000000000E+00 0. -1.
</event>
<event>
 7    1  0.3622165E-015  0.9000776E+02  0.7816164E-02  0.1186339E+00
        -11   -1    0    0    0    0  0.00000000000E+00  0.00000000000E+00  0.45593999997E+02  0.45594000000E+02  0.51100000000E-03 0.  1.
         11   -1    0    0    0    0 -0.00000000000E+00 -0.00000000000E+00 -0.45593999997E+02  0.45594000000E+02  0.51100000000E-03 0. -1.
    9900012    2    1    2    0    0  0.15378290057E+00  0.29430658110E+00 -0.11325612086E+01  0.90007762551E+02  0.90000024217E+02 0.  0.
        -12    1    1    2    0    0 -0.15378290057E+00 -0.29430658110E+00  0.11325612086E+01  0.11802374488E+01  0.00000000000E+00 0.  1.
         11    1    3    3    0    0 -0.94926361056E+00 -0.21786911781E+01  0.88285056600E+01  0.91427736000E+01  0.51100000000E-03 0. -1.
        -11    1    3    3    0    0 -0.14338432842E+02  0.45015306265E+01  0.32408641454E+02  0.35723584304E+02  0.51100000000E-03 0.  1.
         12    1    3    3    0    0  0.15441479353E+02 -0.20285328673E+01 -0.42369708323E+02  0.45141404648E+02  0.00000000000E+00 0. -1.
</event>
<event>
 7    1  0.3623318E-015  0.9000779E+02  0.7816164E-02  0.1186339E+00
        -11   -1    0    0    0    0  0.00000000000E+00  0.00000000000E+00  0.45593999997E+02  0.45594000000E+02  0.51100000000E-03 0.  1.
         11   -1    0    0    0    0 -0.00000000000E+00 -0.00000000000E+00 -0.45593999997E+02  0.45594000000E+02  0.51100000000E-03 0. -1.
    9900012    2    1    2    0    0  0.62457206797E+00  0.94903817961E+00  0.31959569679E+00  0.90007785975E+02  0.90000047950E+02 0.  0.
        -12    1    1    2    0    0 -0.62457206797E+00 -0.94903817961E+00 -0.31959569679E+00  0.11802140246E+01  0.00000000000E+00 0.  1.
         11    1    3    3    0    0 -0.36559081361E+02  0.14011191910E+02 -0.13044251651E+02  0.41267813488E+02  0.51100000000E-03 0. -1.
        -11    1    3    3    0    0  0.50352894359E+01  0.71309026398E+01  0.41908225381E+01  0.96833313467E+01  0.51100000000E-03 0.  1.
        -12    1    3    3    0    0  0.32148363993E+02 -0.20193056370E+02  0.91730248101E+01  0.39056641140E+02  0.00000000000E+00 0.  1.
</event>
<event>
 7    1  0.3622165E-015  0.9000786E+02  0.7816164E-02  0.1186339E+00
        -11   -1    0    0    0    0  0.00000000000E+00  0.00000000000E+00  0.45593999997E+02  0.45594000000E+02  0.51100000000E-03 0.  1.
         11   -1    0    0    0    0 -0.00000000000E+00 -0.00000000000E+00 -0.45593999997E+02  0.45594000000E+02  0.51100000000E-03 0. -1.
    9900012    2    1    2    0    0  0.93088379712E+00  0.72086759284E+00 -0.80781603924E-01  0.90007864246E+02  0.90000127254E+02 0.  0.
        -12    1    1    2    0    0 -0.93088379712E+00 -0.72086759284E+00  0.80781603924E-01  0.11801357539E+01  0.00000000000E+00 0.  1.
         11    1    3    3    0    0 -0.22338263848E+01 -0.90722920468E+01  0.44559042437E+01  0.10351403102E+02  0.51100000000E-03 0. -1.
        -11    1    3    3    0    0  0.18063951704E+01  0.27483096725E+02  0.30063577272E+02  0.40772568570E+02  0.51100000000E-03 0.  1.
         12    1    3    3    0    0  0.13583150115E+01 -0.17689937086E+02 -0.34600263119E+02  0.38883892574E+02  0.00000000000E+00 0. -1.
</event>
<event>
 7    1  0.3622165E-015  0.9000771E+02  0.7816164E-02  0.1186339E+00
        -11   -1    0    0    0    0  0.00000000000E+00  0.00000000000E+00  0.45593999997E+02  0.45594000000E+02  0.51100000000E-03 0. -1.
         11   -1    0    0    0    0 -0.00000000000E+00 -0.00000000000E+00 -0.45593999997E+02  0.45594000000E+02  0.51100000000E-03 0.  1.
    9900012    2    1    2    0    0  0.11453662318E+01  0.28143483997E+00 -0.44824958872E-01  0.90007712471E+02  0.89999973476E+02 0.  0.
        -12    1    1    2    0    0 -0.11453662318E+01 -0.28143483997E+00  0.44824958872E-01  0.11802875290E+01  0.00000000000E+00 0.  1.
         11    1    3    3    0    0  0.10577016605E+01 -0.68222075470E+01 -0.99173530926E+00  0.69745815503E+01  0.51100000000E-03 0. -1.
        -11    1    3    3    0    0  0.31955777822E+02  0.23506967343E+02  0.17734927107E+02  0.43454308068E+02  0.51100000000E-03 0.  1.
         12    1    3    3    0    0 -0.31868113251E+02 -0.16403324956E+02 -0.16788016756E+02  0.39578822853E+02  0.00000000000E+00 0. -1.
</event>
<event>
 7    1  0.3622165E-015  0.9000756E+02  0.7816164E-02  0.1186339E+00
        -11   -1    0    0    0    0  0.00000000000E+00  0.00000000000E+00  0.45593999997E+02  0.45594000000E+02  0.51100000000E-03 0.  1.
         11   -1    0    0    0    0 -0.00000000000E+00 -0.00000000000E+00 -0.45593999997E+02  0.45594000000E+02  0.51100000000E-03 0. -1.
    9900012    2    1    2    0    0 -0.88729721764E+00  0.45907040583E+00 -0.62880869493E+00  0.90007558403E+02  0.89999817373E+02 0.  0.
        -12    1    1    2    0    0  0.88729721764E+00 -0.45907040583E+00  0.62880869493E+00  0.11804415974E+01  0.00000000000E+00 0.  1.
         11    1    3    3    0    0  0.66882999386E+01  0.15164727338E+02  0.55345071444E+01  0.17473782673E+02  0.51100000000E-03 0. -1.
        -11    1    3    3    0    0  0.65205175251E+01  0.27114119420E+02  0.56150294061E+00  0.27892793093E+02  0.51100000000E-03 0.  1.
         12    1    3    3    0    0 -0.14096114681E+02 -0.41819776352E+02 -0.67248187800E+01  0.44640982637E+02  0.00000000000E+00 0. -1.
</event>
<event>
 7    1  0.3622165E-015  0.9000772E+02  0.7816164E-02  0.1186339E+00
        -11   -1    0    0    0    0  0.00000000000E+00  0.00000000000E+00  0.45593999997E+02  0.45594000000E+02  0.51100000000E-03 0. -1.
         11   -1    0    0    0    0 -0.00000000000E+00 -0.00000000000E+00 -0.45593999997E+02  0.45594000000E+02  0.51100000000E-03 0.  1.
    9900012    2    1    2    0    0  0.12705644402E+00 -0.10084678698E+01 -0.59993241238E+00  0.90007716270E+02  0.89999977325E+02 0.  0.
        -12    1    1    2    0    0 -0.12705644402E+00  0.10084678698E+01  0.59993241238E+00  0.11802837302E+01  0.00000000000E+00 0.  1.
         11    1    3    3    0    0 -0.21848046287E+02 -0.31388561673E+02 -0.22861032710E+01  0.38311945903E+02  0.51100000000E-03 0. -1.
        -11    1    3    3    0    0 -0.86437588256E+01  0.17717458350E+01  0.40847233513E+01  0.97230969889E+01  0.51100000000E-03 0.  1.
        -12    1    3    3    0    0  0.30618861556E+02  0.28608347968E+02 -0.23985524927E+01  0.41972673378E+02  0.00000000000E+00 0.  1.
</event>
<event>
 7    1  0.3622165E-015  0.9000776E+02  0.7816164E-02  0.1186339E+00
        -11   -1    0    0    0    0  0.00000000000E+00  0.00000000000E+00  0.45593999997E+02  0.45594000000E+02  0.51100000000E-03 0.  1.
         11   -1    0    0    0    0 -0.00000000000E+00 -0.00000000000E+00 -0.45593999997E+02  0.45594000000E+02  0.51100000000E-03 0. -1.
    9900012    2    1    2    0    0 -0.20979063043E-01 -0.11628025536E+01 -0.20103623684E+00  0.90007760419E+02  0.90000022057E+02 0.  0.
        -12    1    1    2    0    0  0.20979063043E-01  0.11628025536E+01  0.20103623684E+00  0.11802395809E+01  0.00000000000E+00 0.  1.
         11    1    3    3    0    0  0.63862646626E+01  0.53902924678E+01 -0.76475696920E+01  0.11328060367E+02  0.51100000000E-03 0. -1.
        -11    1    3    3    0    0  0.21603960818E+02 -0.29065347010E+02 -0.11574660006E+02  0.38019709025E+02  0.51100000000E-03 0.  1.
         12    1    3    3    0    0 -0.28011204544E+02  0.22512251989E+02  0.19021193461E+02  0.40659991027E+02  0.00000000000E+00 0. -1.
</event>
<event>
 7    1  0.3622165E-015  0.9000773E+02  0.7816164E-02  0.1186339E+00
        -11   -1    0    0    0    0  0.00000000000E+00  0.00000000000E+00  0.45593999997E+02  0.45594000000E+02  0.51100000000E-03 0.  1.
         11   -1    0    0    0    0 -0.00000000000E+00 -0.00000000000E+00 -0.45593999997E+02  0.45594000000E+02  0.51100000000E-03 0. -1.
    9900012    2    1    2    0    0 -0.10544757628E+01  0.23149128709E+00 -0.47700110720E+00  0.90007729943E+02  0.89999991179E+02 0.  0.
        -12    1    1    2    0    0  0.10544757628E+01 -0.23149128709E+00  0.47700110720E+00  0.11802700567E+01  0.00000000000E+00 0.  1.
         11    1    3    3    0    0 -0.45454401471E+01  0.10991044089E+02  0.43340052202E+01  0.12658897180E+02  0.51100000000E-03 0. -1.
        -11    1    3    3    0    0 -0.17046154780E+02  0.28317261326E+02 -0.23438681267E+01  0.33135062998E+02  0.51100000000E-03 0.  1.
         12    1    3    3    0    0  0.20537119164E+02 -0.39076814129E+02 -0.24671382007E+01  0.44213769766E+02  0.00000000000E+00 0. -1.
</event>
<event>
 7    1  0.3622165E-015  0.9000771E+02  0.7816164E-02  0.1186339E+00
        -11   -1    0    0    0    0  0.00000000000E+00  0.00000000000E+00  0.45593999997E+02  0.45594000000E+02  0.51100000000E-03 0. -1.
         11   -1    0    0    0    0 -0.00000000000E+00 -0.00000000000E+00 -0.45593999997E+02  0.45594000000E+02  0.51100000000E-03 0.  1.
    9900012    2    1    2    0    0 -0.75919403395E+00 -0.36671722097E+00  0.82597733524E+00  0.90007705266E+02  0.89999966175E+02 0.  0.
        -12    1    1    2    0    0  0.75919403395E+00  0.36671722097E+00 -0.82597733524E+00  0.11802947342E+01  0.00000000000E+00 0.  1.
         11    1    3    3    0    0 -0.51716396947E+01  0.53910562098E+01 -0.21316573595E+01  0.77687391222E+01  0.51100000000E-03 0. -1.
        -11    1    3    3    0    0 -0.27242757734E+02 -0.28070352036E+02 -0.11700768541E+02  0.40829162336E+02  0.51100000000E-03 0.  1.
         12    1    3    3    0    0  0.31655203394E+02  0.22312578606E+02  0.14658403235E+02  0.41409803807E+02  0.00000000000E+00 0. -1.
</event>
<event>
 7    1  0.7391613E-015  0.9000772E+02  0.7816164E-02  0.1186339E+00
        -11   -1    0    0    0    0  0.00000000000E+00  0.00000000000E+00  0.45593999997E+02  0.45594000000E+02  0.51100000000E-03 0. -1.
         11   -1    0    0    0    0 -0.00000000000E+00 -0.00000000000E+00 -0.45593999997E+02  0.45594000000E+02  0.51100000000E-03 0.  1.
    9900012    2    1    2    0    0  0.46676712407E+00  0.73553596601E+00  0.79634541548E+00  0.90007724301E+02  0.89999985462E+02 0.  0.
        -12    1    1    2    0    0 -0.46676712407E+00 -0.73553596601E+00 -0.79634541548E+00  0.11802756992E+01  0.00000000000E+00 0.  1.
         11    1    3    3    0    0 -0.51978540619E+01 -0.40084349936E+02  0.92699443855E+01  0.41469321984E+02  0.51100000000E-03 0. -1.
        -11    1    3    3    0    0  0.55211485678E+01  0.17484097077E+01 -0.74722794266E+01  0.94538340425E+01  0.51100000000E-03 0.  1.
        -12    1    3    3    0    0  0.14347261815E+00  0.39071476194E+02 -0.10013195434E+01  0.39084568274E+02  0.00000000000E+00 0.  1.
</event>
<event>
 7    1  0.3622165E-015  0.9000774E+02  0.7816164E-02  0.1186339E+00
        -11   -1    0    0    0    0  0.00000000000E+00  0.00000000000E+00  0.45593999997E+02  0.45594000000E+02  0.51100000000E-03 0.  1.
         11   -1    0    0    0    0 -0.00000000000E+00 -0.00000000000E+00 -0.45593999997E+02  0.45594000000E+02  0.51100000000E-03 0. -1.
    9900012    2    1    2    0    0 -0.45873821193E+00  0.10714284436E+01 -0.18606686618E+00  0.90007737090E+02  0.89999998420E+02 0.  0.
        -12    1    1    2    0    0  0.45873821193E+00 -0.10714284436E+01  0.18606686618E+00  0.11802629095E+01  0.00000000000E+00 0.  1.
         11    1    3    3    0    0  0.53646204203E+00  0.28143179092E+02  0.26557079202E+02  0.38698898911E+02  0.51100000000E-03 0. -1.
        -11    1    3    3    0    0  0.41107173680E+00  0.56654136197E+01 -0.15755753579E+02  0.16748422689E+02  0.51100000000E-03 0.  1.
        -12    1    3    3    0    0 -0.14062719908E+01 -0.32737164268E+02 -0.10987392488E+02  0.34560415491E+02  0.00000000000E+00 0.  1.
</event>
<event>
 7    1  0.3622165E-015  0.9000841E+02  0.7816164E-02  0.1186338E+00
        -11   -1    0    0    0    0  0.00000000000E+00  0.00000000000E+00  0.45593999997E+02  0.45594000000E+02  0.51100000000E-03 0.  1.
         11   -1    0    0    0    0 -0.00000000000E+00 -0.00000000000E+00 -0.45593999997E+02  0.45594000000E+02  0.51100000000E-03 0. -1.
    9900012    2    1    2    0    0 -0.84120425823E+00  0.35291592367E+00 -0.74783408864E+00  0.90008411056E+02  0.90000681279E+02 0.  0.
        -12    1    1    2    0    0  0.84120425823E+00 -0.35291592367E+00  0.74783408864E+00  0.11795889442E+01  0.00000000000E+00 0.  1.
         11    1    3    3    0    0  0.49790115772E+01  0.40874695700E+01 -0.57862125676E+01  0.86589964724E+01  0.51100000000E-03 0. -1.
        -11    1    3    3    0    0 -0.27824667103E+02  0.28698903754E+02  0.11573868331E+02  0.41614824336E+02  0.51100000000E-03 0.  1.
         12    1    3    3    0    0  0.22004451267E+02 -0.32433457401E+02 -0.65354898520E+01  0.39734590248E+02  0.00000000000E+00 0. -1.
</event>
<event>
 8    1  0.3622165E-015  0.9000771E+02  0.7816164E-02  0.1186339E+00
        -11   -1    0    0    0    0  0.00000000000E+00  0.00000000000E+00  0.45593999997E+02  0.45594000000E+02  0.51100000000E-03 0.  1.
         11   -1    0    0    0    0 -0.00000000000E+00 -0.00000000000E+00 -0.45593999997E+02  0.45594000000E+02  0.51100000000E-03 0. -1.
    9900012    2    1    2    0    0  0.25451059504E+00 -0.11020139292E+01  0.33746026140E+00  0.90007707760E+02  0.89999968703E+02 0.  0.
         23    2    3    3    0    0  0.18538024461E+02  0.61061887513E+01 -0.20542169697E+02  0.61333607733E+02  0.54395650651E+02 0.  0.
        -12    1    1    2    0    0 -0.25451059504E+00  0.11020139292E+01 -0.33746026140E+00  0.11802922397E+01  0.00000000000E+00 0.  1.
         11    1    4    4    0    0  0.33442690566E+02  0.18663759561E+02 -0.13291104141E+02  0.40538906285E+02  0.51100000000E-03 0. -1.
        -11    1    4    4    0    0 -0.14904666106E+02 -0.12557570809E+02 -0.72510655568E+01  0.20794701448E+02  0.51100000000E-03 0.  1.
        -12    1    3    3    0    0 -0.18283513866E+02 -0.72082026805E+01  0.20879629959E+02  0.28674100027E+02  0.00000000000E+00 0.  1.
</event>
<event>
 7    1  0.3622165E-015  0.9000774E+02  0.7816164E-02  0.1186339E+00
        -11   -1    0    0    0    0  0.00000000000E+00  0.00000000000E+00  0.45593999997E+02  0.45594000000E+02  0.51100000000E-03 0. -1.
         11   -1    0    0    0    0 -0.00000000000E+00 -0.00000000000E+00 -0.45593999997E+02  0.45594000000E+02  0.51100000000E-03 0.  1.
    9900012    2    1    2    0    0 -0.65038479333E+00  0.42633557864E+00 -0.88783884239E+00  0.90007737226E+02  0.89999998558E+02 0.  0.
        -12    1    1    2    0    0  0.65038479333E+00 -0.42633557864E+00  0.88783884239E+00  0.11802627737E+01  0.00000000000E+00 0.  1.
         11    1    3    3    0    0 -0.24278177100E+00  0.74606113619E+01 -0.94086354783E+01  0.12010082710E+02  0.51100000000E-03 0. -1.
        -11    1    3    3    0    0  0.15094902774E+02  0.13243228084E+02 -0.27376031872E+02  0.33951234162E+02  0.51100000000E-03 0.  1.
         12    1    3    3    0    0 -0.15502505796E+02 -0.20277503868E+02  0.35896828508E+02  0.44046420354E+02  0.00000000000E+00 0. -1.
</event>
<event>
 7    1  0.3622165E-015  0.9000780E+02  0.7816164E-02  0.1186339E+00
        -11   -1    0    0    0    0  0.00000000000E+00  0.00000000000E+00  0.45593999997E+02  0.45594000000E+02  0.51100000000E-03 0.  1.
         11   -1    0    0    0    0 -0.00000000000E+00 -0.00000000000E+00 -0.45593999997E+02  0.45594000000E+02  0.51100000000E-03 0. -1.
    9900012    2    1    2    0    0 -0.90329419596E+00 -0.74488018215E+00 -0.14863467517E+00  0.90007796985E+02  0.90000059105E+02 0.  0.
        -12    1    1    2    0    0  0.90329419596E+00  0.74488018215E+00  0.14863467517E+00  0.11802030151E+01  0.00000000000E+00 0.  1.
         11    1    3    3    0    0  0.22474352782E+01 -0.84408839956E+01 -0.81613216625E+01  0.11954357344E+02  0.51100000000E-03 0. -1.
        -11    1    3    3    0    0 -0.11485857995E+02 -0.24831778555E+02 -0.20351091613E+02  0.34098520352E+02  0.51100000000E-03 0.  1.
         12    1    3    3    0    0  0.83351285204E+01  0.32527782368E+02  0.28363778601E+02  0.43954919290E+02  0.00000000000E+00 0. -1.
</event>
<event>
 7    1  0.3622165E-015  0.9000779E+02  0.7816164E-02  0.1186339E+00
        -11   -1    0    0    0    0  0.00000000000E+00  0.00000000000E+00  0.45593999997E+02  0.45594000000E+02  0.51100000000E-03 0.  1.
         11   -1    0    0    0    0 -0.00000000000E+00 -0.00000000000E+00 -0.45593999997E+02  0.45594000000E+02  0.51100000000E-03 0. -1.
    9900012    2    1    2    0    0  0.10320169850E+01 -0.49405244009E+00  0.28939778921E+00  0.90007789023E+02  0.90000051038E+02 0.  0.
        -12    1    1    2    0    0 -0.10320169850E+01  0.49405244009E+00 -0.28939778921E+00  0.11802109774E+01  0.00000000000E+00 0.  1.
         11    1    3    3    0    0 -0.87013513713E+01 -0.38571791550E+01  0.30987331959E+01  0.10009670045E+02  0.51100000000E-03 0. -1.
        -11    1    3    3    0    0  0.21798592531E+02 -0.19579073192E+02 -0.30344241287E+02  0.42181651496E+02  0.51100000000E-03 0.  1.
         12    1    3    3    0    0 -0.12065224174E+02  0.22942199907E+02  0.27534905880E+02  0.37816467482E+02  0.00000000000E+00 0. -1.
</event>
<event>
 7    1  0.3622165E-015  0.9000775E+02  0.7816164E-02  0.1186339E+00
        -11   -1    0    0    0    0  0.00000000000E+00  0.00000000000E+00  0.45593999997E+02  0.45594000000E+02  0.51100000000E-03 0.  1.
         11   -1    0    0    0    0 -0.00000000000E+00 -0.00000000000E+00 -0.45593999997E+02  0.45594000000E+02  0.51100000000E-03 0. -1.
    9900012    2    1    2    0    0  0.10056984028E+01 -0.94204318941E-01 -0.61048549916E+00  0.90007747368E+02  0.90000008833E+02 0.  0.
        -12    1    1    2    0    0 -0.10056984028E+01  0.94204318941E-01  0.61048549916E+00  0.11802526322E+01  0.00000000000E+00 0.  1.
         11    1    3    3    0    0  0.91262223269E+01 -0.26416060659E+01 -0.32227575323E+02  0.33598848612E+02  0.51100000000E-03 0. -1.
        -11    1    3    3    0    0  0.17567323227E+02 -0.53435486244E+01  0.19946956844E+02  0.27111721540E+02  0.51100000000E-03 0.  1.
        -12    1    3    3    0    0 -0.25687847151E+02  0.78909503713E+01  0.11670132980E+02  0.29297177216E+02  0.00000000000E+00 0.  1.
</event>
<event>
 7    1  0.3622165E-015  0.9000786E+02  0.7816164E-02  0.1186339E+00
        -11   -1    0    0    0    0  0.00000000000E+00  0.00000000000E+00  0.45593999997E+02  0.45594000000E+02  0.51100000000E-03 0.  1.
         11   -1    0    0    0    0 -0.00000000000E+00 -0.00000000000E+00 -0.45593999997E+02  0.45594000000E+02  0.51100000000E-03 0. -1.
    9900012    2    1    2    0    0 -0.60101894487E+00  0.87582192651E+00 -0.51424900806E+00  0.90007856000E+02  0.90000118899E+02 0.  0.
        -12    1    1    2    0    0  0.60101894487E+00 -0.87582192651E+00  0.51424900806E+00  0.11801440003E+01  0.00000000000E+00 0.  1.
         11    1    3    3    0    0 -0.78061953334E+01  0.20059649729E+02 -0.29625305281E+02  0.36619461303E+02  0.51100000000E-03 0. -1.
        -11    1    3    3    0    0  0.56834704267E+00  0.97097834206E+01 -0.25084230980E+01  0.10044655252E+02  0.51100000000E-03 0.  1.
        -12    1    3    3    0    0  0.66368293458E+01 -0.28893611224E+02  0.31619479371E+02  0.43343739444E+02  0.00000000000E+00 0.  1.
</event>
<event>
 7    1  0.3622165E-015  0.9000766E+02  0.7816164E-02  0.1186339E+00
        -11   -1    0    0    0    0  0.00000000000E+00  0.00000000000E+00  0.45593999997E+02  0.45594000000E+02  0.51100000000E-03 0. -1.
         11   -1    0    0    0    0 -0.00000000000E+00 -0.00000000000E+00 -0.45593999997E+02  0.45594000000E+02  0.51100000000E-03 0.  1.
    9900012    2    1    2    0    0 -0.21131015645E+00  0.11531899207E+01  0.13673071290E+00  0.90007663496E+02  0.89999923854E+02 0.  0.
        -12    1    1    2    0    0  0.21131015645E+00 -0.11531899207E+01 -0.13673071290E+00  0.11803365042E+01  0.00000000000E+00 0.  1.
         11    1    3    3    0    0  0.98068610153E+01 -0.33495542768E+01 -0.18436797324E+02  0.21149693441E+02  0.51100000000E-03 0. -1.
        -11    1    3    3    0    0  0.18827375348E+02 -0.11173102591E+02 -0.11152368200E+02  0.24569973559E+02  0.51100000000E-03 0.  1.
         12    1    3    3    0    0 -0.28845546519E+02  0.15675846788E+02  0.29725896237E+02  0.44287996496E+02  0.00000000000E+00 0. -1.
</event>
<event>
 7    1  0.3622165E-015  0.9000785E+02  0.7816164E-02  0.1186339E+00
        -11   -1    0    0    0    0  0.00000000000E+00  0.00000000000E+00  0.45593999997E+02  0.45594000000E+02  0.51100000000E-03 0.  1.
         11   -1    0    0    0    0 -0.00000000000E+00 -0.00000000000E+00 -0.45593999997E+02  0.45594000000E+02  0.51100000000E-03 0. -1.
    9900012    2    1    2    0    0  0.24384234295E+00  0.18839949277E+00 -0.11392059858E+01  0.90007854358E+02  0.90000117236E+02 0.  0.
        -12    1    1    2    0    0 -0.24384234295E+00 -0.18839949277E+00  0.11392059858E+01  0.11801456415E+01  0.00000000000E+00 0.  1.
         11    1    3    3    0    0 -0.30328451640E+01  0.27478493665E+02 -0.24270942057E+02  0.36787829407E+02  0.51100000000E-03 0. -1.
        -11    1    3    3    0    0  0.12463477830E-01  0.48705645237E+01 -0.73314846638E+01  0.88018873973E+01  0.51100000000E-03 0.  1.
        -12    1    3    3    0    0  0.32642240292E+01 -0.32160658696E+02  0.30463220735E+02  0.44418137554E+02  0.00000000000E+00 0.  1.
</event>
<event>
 7    1  0.3622165E-015  0.9000773E+02  0.7816164E-02  0.1186339E+00
        -11   -1    0    0    0    0  0.00000000000E+00  0.00000000000E+00  0.45593999997E+02  0.45594000000E+02  0.51100000000E-03 0.  1.
         11   -1    0    0    0    0 -0.00000000000E+00 -0.00000000000E+00 -0.45593999997E+02  0.45594000000E+02  0.51100000000E-03 0. -1.
    9900012    2    1    2    0    0  0.94398675095E+00  0.27349640486E+00  0.65354437948E+00  0.90007732435E+02  0.89999993703E+02 0.  0.
        -12    1    1    2    0    0 -0.94398675095E+00 -0.27349640486E+00 -0.65354437948E+00  0.11802675652E+01  0.00000000000E+00 0.  1.
         11    1    3    3    0    0  0.25138084748E+02  0.16176839872E+02 -0.16091154685E+02  0.33949060553E+02  0.51100000000E-03 0. -1.
        -11    1    3    3    0    0 -0.31048922576E+01  0.17435793412E+01 -0.14212580327E+02  0.14651889458E+02  0.51100000000E-03 0.  1.
        -12    1    3    3    0    0 -0.21089205740E+02 -0.17646922809E+02  0.30957279392E+02  0.41406782424E+02  0.00000000000E+00 0.  1.
</event>
<event>
 7    1  0.3622165E-015  0.9000785E+02  0.7816164E-02  0.1186339E+00
        -11   -1    0    0    0    0  0.00000000000E+00  0.00000000000E+00  0.45593999997E+02  0.45594000000E+02  0.51100000000E-03 0.  1.
         11   -1    0    0    0    0 -0.00000000000E+00 -0.00000000000E+00 -0.45593999997E+02  0.45594000000E+02  0.51100000000E-03 0. -1.
    9900012    2    1    2    0    0  0.26946571802E+00 -0.85203244992E+00 -0.77082880192E+00  0.90007852505E+02  0.90000115358E+02 0.  0.
        -12    1    1    2    0    0 -0.26946571802E+00  0.85203244992E+00  0.77082880192E+00  0.11801474954E+01  0.00000000000E+00 0.  1.
         11    1    3    3    0    0 -0.30722435142E+02 -0.10304577591E+02 -0.16765247854E+02  0.36484597795E+02  0.51100000000E-03 0. -1.
        -11    1    3    3    0    0 -0.94807106444E+01 -0.51778088091E-01  0.23485483371E+01  0.97674067616E+01  0.51100000000E-03 0.  1.
        -12    1    3    3    0    0  0.40472611505E+02  0.95043232293E+01  0.13645870715E+02  0.43755847948E+02  0.00000000000E+00 0.  1.
</event>
<event>
 7    1  0.3622165E-015  0.9000782E+02  0.7816164E-02  0.1186339E+00
        -11   -1    0    0    0    0  0.00000000000E+00  0.00000000000E+00  0.45593999997E+02  0.45594000000E+02  0.51100000000E-03 0.  1.
         11   -1    0    0    0    0 -0.00000000000E+00 -0.00000000000E+00 -0.45593999997E+02  0.45594000000E+02  0.51100000000E-03 0. -1.
    9900012    2    1    2    0    0 -0.19758967215E+00 -0.45050530733E-01 -0.11626506652E+01  0.90007818744E+02  0.90000081151E+02 0.  0.
        -12    1    1    2    0    0  0.19758967215E+00  0.45050530733E-01  0.11626506652E+01  0.11801812565E+01  0.00000000000E+00 0.  1.
         11    1    3    3    0    0  0.21460055922E+02  0.23044921453E+01 -0.29186755161E+02  0.36300294232E+02  0.51100000000E-03 0. -1.
        -11    1    3    3    0    0  0.68761547842E+01  0.46192649587E+01 -0.48691069520E+01  0.96087104310E+01  0.51100000000E-03 0.  1.
        -12    1    3    3    0    0 -0.28533800379E+02 -0.69688076347E+01  0.32893211448E+02  0.44098814080E+02  0.00000000000E+00 0.  1.
</event>
<event>
 7    1  0.3622165E-015  0.9000773E+02  0.7816164E-02  0.1186339E+00
        -11   -1    0    0    0    0  0.00000000000E+00  0.00000000000E+00  0.45593999997E+02  0.45594000000E+02  0.51100000000E-03 0.  1.
         11   -1    0    0    0    0 -0.00000000000E+00 -0.00000000000E+00 -0.45593999997E+02  0.45594000000E+02  0.51100000000E-03 0. -1.
    9900012    2    1    2    0    0  0.27196417015E-01 -0.96713820046E+00 -0.67598010015E+00  0.90007726710E+02  0.89999987902E+02 0.  0.
        -12    1    1    2    0    0 -0.27196417015E-01  0.96713820046E+00  0.67598010015E+00  0.11802732903E+01  0.00000000000E+00 0.  1.
         11    1    3    3    0    0 -0.66393211453E+01 -0.13464289703E+02 -0.30959723993E+02  0.34407443853E+02  0.51100000000E-03 0. -1.
        -11    1    3    3    0    0 -0.17946923205E+02 -0.16456075806E+01  0.91636831538E+01  0.20218139529E+02  0.51100000000E-03 0.  1.
        -12    1    3    3    0    0  0.24613440767E+02  0.14142759083E+02  0.21120060739E+02  0.35382143328E+02  0.00000000000E+00 0.  1.
</event>
<event>
 7    1  0.3622165E-015  0.9000771E+02  0.7816164E-02  0.1186339E+00
        -11   -1    0    0    0    0  0.00000000000E+00  0.00000000000E+00  0.45593999997E+02  0.45594000000E+02  0.51100000000E-03 0.  1.
         11   -1    0    0    0    0 -0.00000000000E+00 -0.00000000000E+00 -0.45593999997E+02  0.45594000000E+02  0.51100000000E-03 0. -1.
    9900012    2    1    2    0    0  0.86168916224E-01  0.11667211969E+01 -0.15629760994E+00  0.90007706657E+02  0.89999967585E+02 0.  0.
        -12    1    1    2    0    0 -0.86168916224E-01 -0.11667211969E+01  0.15629760994E+00  0.11802933433E+01  0.00000000000E+00 0.  1.
         11    1    3    3    0    0 -0.91704097890E+01 -0.33724796216E+00 -0.22154815538E+00  0.91792829639E+01  0.51100000000E-03 0. -1.
        -11    1    3    3    0    0  0.22018264135E+02  0.36357704713E+02  0.69764050261E+01  0.43073853727E+02  0.51100000000E-03 0.  1.
         12    1    3    3    0    0 -0.12761685430E+02 -0.34853735554E+02 -0.69111544806E+01  0.37754569966E+02  0.00000000000E+00 0. -1.
</event>
<event>
 7    1  0.3622165E-015  0.9000784E+02  0.7816164E-02  0.1186339E+00
        -11   -1    0    0    0    0  0.00000000000E+00  0.00000000000E+00  0.45593999997E+02  0.45594000000E+02  0.51100000000E-03 0. -1.
         11   -1    0    0    0    0 -0.00000000000E+00 -0.00000000000E+00 -0.45593999997E+02  0.45594000000E+02  0.51100000000E-03 0.  1.
    9900012    2    1    2    0    0 -0.23001876216E+00 -0.98163606449E-01  0.11533543515E+01  0.90007842814E+02  0.90000105539E+02 0.  0.
        -12    1    1    2    0    0  0.23001876216E+00  0.98163606449E-01 -0.11533543515E+01  0.11801571864E+01  0.00000000000E+00 0.  1.
         11    1    3    3    0    0 -0.22389432792E+02  0.45904389225E+01  0.25997401306E+02  0.34615368049E+02  0.51100000000E-03 0. -1.
        -11    1    3    3    0    0 -0.97550333370E+01  0.94434779625E+01 -0.21151870005E+01  0.13740959491E+02  0.51100000000E-03 0.  1.
        -12    1    3    3    0    0  0.31914447367E+02 -0.14132080491E+02 -0.22728859954E+02  0.41651515273E+02  0.00000000000E+00 0.  1.
</event>
<event>
 7    1  0.3622165E-015  0.9000785E+02  0.7816164E-02  0.1186339E+00
        -11   -1    0    0    0    0  0.00000000000E+00  0.00000000000E+00  0.45593999997E+02  0.45594000000E+02  0.51100000000E-03 0.  1.
         11   -1    0    0    0    0 -0.00000000000E+00 -0.00000000000E+00 -0.45593999997E+02  0.45594000000E+02  0.51100000000E-03 0. -1.
    9900012    2    1    2    0    0  0.17925864927E+00  0.11262558872E+01  0.30359154450E+00  0.90007850089E+02  0.90000112910E+02 0.  0.
        -12    1    1    2    0    0 -0.17925864927E+00 -0.11262558872E+01 -0.30359154450E+00  0.11801499111E+01  0.00000000000E+00 0.  1.
         11    1    3    3    0    0  0.16694185741E+02 -0.85975826423E+01 -0.32357675834E+02  0.37411675323E+02  0.51100000000E-03 0. -1.
        -11    1    3    3    0    0  0.67836445020E+01 -0.24626809523E+01 -0.33915043715E+01  0.79740160750E+01  0.51100000000E-03 0.  1.
        -12    1    3    3    0    0 -0.23298571594E+02  0.12186519482E+02  0.36052771750E+02  0.44622158691E+02  0.00000000000E+00 0.  1.
</event>
<event>
 7    1  0.3622165E-015  0.9000775E+02  0.7816164E-02  0.1186339E+00
        -11   -1    0    0    0    0  0.00000000000E+00  0.00000000000E+00  0.45593999997E+02  0.45594000000E+02  0.51100000000E-03 0. -1.
         11   -1    0    0    0    0 -0.00000000000E+00 -0.00000000000E+00 -0.45593999997E+02  0.45594000000E+02  0.51100000000E-03 0.  1.
    9900012    2    1    2    0    0 -0.46431188754E+00 -0.10011281109E+01  0.41851807638E+00  0.90007745619E+02  0.90000007061E+02 0.  0.
        -12    1    1    2    0    0  0.46431188754E+00  0.10011281109E+01 -0.41851807638E+00  0.11802543809E+01  0.00000000000E+00 0.  1.
         11    1    3    3    0    0 -0.52818020417E+01  0.11867905289E+01  0.62403366974E+01  0.82612170366E+01  0.51100000000E-03 0. -1.
        -11    1    3    3    0    0 -0.18151437389E+02 -0.34854528580E+02 -0.12544043615E+02  0.41251252978E+02  0.51100000000E-03 0.  1.
         12    1    3    3    0    0  0.22968927543E+02  0.32666609940E+02  0.67222249935E+01  0.40495275605E+02  0.00000000000E+00 0. -1.
</event>
<event>
 7    1  0.3622165E-015  0.9000765E+02  0.7816164E-02  0.1186339E+00
        -11   -1    0    0    0    0  0.00000000000E+00  0.00000000000E+00  0.45593999997E+02  0.45594000000E+02  0.51100000000E-03 0. -1.
         11   -1    0    0    0    0 -0.00000000000E+00 -0.00000000000E+00 -0.45593999997E+02  0.45594000000E+02  0.51100000000E-03 0.  1.
    9900012    2    1    2    0    0 -0.71557256210E+00 -0.25297737534E+00  0.90398581059E+00  0.90007647515E+02  0.89999907662E+02 0.  0.
        -12    1    1    2    0    0  0.71557256210E+00  0.25297737534E+00 -0.90398581059E+00  0.11803524854E+01  0.00000000000E+00 0.  1.
         11    1    3    3    0    0 -0.38161530987E+02 -0.20151056089E+01  0.14893027550E+02  0.41014209339E+02  0.51100000000E-03 0. -1.
        -11    1    3    3    0    0  0.35487598523E+01 -0.61578456728E+01  0.56014997167E+01  0.90492850080E+01  0.51100000000E-03 0.  1.
        -12    1    3    3    0    0  0.33897198572E+02  0.79199739064E+01 -0.19590541456E+02  0.39944153167E+02  0.00000000000E+00 0.  1.
</event>
<event>
 7    1  0.3622165E-015  0.9000776E+02  0.7816164E-02  0.1186339E+00
        -11   -1    0    0    0    0  0.00000000000E+00  0.00000000000E+00  0.45593999997E+02  0.45594000000E+02  0.51100000000E-03 0. -1.
         11   -1    0    0    0    0 -0.00000000000E+00 -0.00000000000E+00 -0.45593999997E+02  0.45594000000E+02  0.51100000000E-03 0.  1.
    9900012    2    1    2    0    0  0.62458920733E+00  0.97946979488E+00 -0.20856401810E+00  0.90007757776E+02  0.90000019379E+02 0.  0.
        -12    1    1    2    0    0 -0.62458920733E+00 -0.97946979488E+00  0.20856401810E+00  0.11802422237E+01  0.00000000000E+00 0.  1.
         11    1    3    3    0    0 -0.11145852275E+02  0.19233967830E+01  0.31139451836E+01  0.11731416496E+02  0.51100000000E-03 0. -1.
        -11    1    3    3    0    0  0.17186846642E+02  0.36513467026E+02 -0.13930871799E+01  0.40380213767E+02  0.51100000000E-03 0.  1.
         12    1    3    3    0    0 -0.54164051597E+01 -0.37457394014E+02 -0.19294220217E+01  0.37896127513E+02  0.00000000000E+00 0. -1.
</event>
<event>
 7    1  0.5190556E-015  0.9000759E+02  0.7816164E-02  0.1186339E+00
        -11   -1    0    0    0    0  0.00000000000E+00  0.00000000000E+00  0.45593999997E+02  0.45594000000E+02  0.51100000000E-03 0. -1.
         11   -1    0    0    0    0 -0.00000000000E+00 -0.00000000000E+00 -0.45593999997E+02  0.45594000000E+02  0.51100000000E-03 0.  1.
    9900012    2    1    2    0    0 -0.32490500544E+00  0.73982614866E+00  0.86049489539E+00  0.90007594367E+02  0.89999853813E+02 0.  0.
        -12    1    1    2    0    0  0.32490500544E+00 -0.73982614866E+00 -0.86049489539E+00  0.11804056327E+01  0.00000000000E+00 0.  1.
         11    1    3    3    0    0  0.11112703224E+01  0.91037195260E+01  0.30255476561E+01  0.96574618725E+01  0.51100000000E-03 0. -1.
        -11    1    3    3    0    0 -0.40527134765E+00  0.29793955157E+02 -0.22277518526E+02  0.37203922383E+02  0.51100000000E-03 0.  1.
         12    1    3    3    0    0 -0.10309039802E+01 -0.38157848535E+02  0.20112465765E+02  0.43146210111E+02  0.00000000000E+00 0. -1.
</event>
<event>
 7    1  0.3622165E-015  0.9000783E+02  0.7816164E-02  0.1186339E+00
        -11   -1    0    0    0    0  0.00000000000E+00  0.00000000000E+00  0.45593999997E+02  0.45594000000E+02  0.51100000000E-03 0.  1.
         11   -1    0    0    0    0 -0.00000000000E+00 -0.00000000000E+00 -0.45593999997E+02  0.45594000000E+02  0.51100000000E-03 0. -1.
    9900012    2    1    2    0    0  0.55417545643E+00  0.61634279280E+00 -0.84013083201E+00  0.90007826839E+02  0.90000089353E+02 0.  0.
        -12    1    1    2    0    0 -0.55417545643E+00 -0.61634279280E+00  0.84013083201E+00  0.11801731609E+01  0.00000000000E+00 0.  1.
         11    1    3    3    0    0 -0.15117822365E+02  0.10687735350E+02  0.22430846712E+02  0.29084688832E+02  0.51100000000E-03 0. -1.
        -11    1    3    3    0    0  0.64735128615E+01 -0.45507327563E+01  0.17264782047E+02  0.18991793933E+02  0.51100000000E-03 0.  1.
         12    1    3    3    0    0  0.91984849600E+01 -0.55206598010E+01 -0.40535759592E+02  0.41931344074E+02  0.00000000000E+00 0. -1.
</event>
<event>
 7    1  0.3622165E-015  0.9000766E+02  0.7816164E-02  0.1186339E+00
        -11   -1    0    0    0    0  0.00000000000E+00  0.00000000000E+00  0.45593999997E+02  0.45594000000E+02  0.51100000000E-03 0.  1.
         11   -1    0    0    0    0 -0.00000000000E+00 -0.00000000000E+00 -0.45593999997E+02  0.45594000000E+02  0.51100000000E-03 0. -1.
    9900012    2    1    2    0    0  0.66414292065E+00 -0.86164047229E+00 -0.45793046417E+00  0.90007656646E+02  0.89999916914E+02 0.  0.
        -12    1    1    2    0    0 -0.66414292065E+00  0.86164047229E+00  0.45793046417E+00  0.11803433537E+01  0.00000000000E+00 0.  1.
         11    1    3    3    0    0  0.81900104102E+01  0.19757138776E+01 -0.43288914481E+01  0.94720123140E+01  0.51100000000E-03 0. -1.
        -11    1    3    3    0    0 -0.28945043413E+02  0.17365021565E+02  0.26894881152E+02  0.43158940495E+02  0.51100000000E-03 0.  1.
         12    1    3    3    0    0  0.21419175924E+02 -0.20202375915E+02 -0.23023920168E+02  0.37376703838E+02  0.00000000000E+00 0. -1.
</event>
<event>
 7    1  0.3622165E-015  0.9000781E+02  0.7816164E-02  0.1186339E+00
        -11   -1    0    0    0    0  0.00000000000E+00  0.00000000000E+00  0.45593999997E+02  0.45594000000E+02  0.51100000000E-03 0.  1.
         11   -1    0    0    0    0 -0.00000000000E+00 -0.00000000000E+00 -0.45593999997E+02  0.45594000000E+02  0.51100000000E-03 0. -1.
    9900012    2    1    2    0    0 -0.67720304032E+00  0.63366903258E+00 -0.72987085331E+00  0.90007808548E+02  0.90000070821E+02 0.  0.
        -12    1    1    2    0    0  0.67720304032E+00 -0.63366903258E+00  0.72987085331E+00  0.11801914519E+01  0.00000000000E+00 0.  1.
         11    1    3    3    0    0 -0.35458246344E+00 -0.21184639956E+01 -0.44969512739E+01  0.49835920224E+01  0.51100000000E-03 0. -1.
        -11    1    3    3    0    0 -0.42510083355E+02  0.32901880367E+01  0.40817280961E+01  0.42832149475E+02  0.51100000000E-03 0.  1.
         12    1    3    3    0    0  0.42187462778E+02 -0.53805500846E+00 -0.31464767550E+00  0.42192067051E+02  0.00000000000E+00 0. -1.
</event>
<event>
 7    1  0.3622165E-015  0.9000748E+02  0.7816164E-02  0.1186340E+00
        -11   -1    0    0    0    0  0.00000000000E+00  0.00000000000E+00  0.45593999997E+02  0.45594000000E+02  0.51100000000E-03 0.  1.
         11   -1    0    0    0    0 -0.00000000000E+00 -0.00000000000E+00 -0.45593999997E+02  0.45594000000E+02  0.51100000000E-03 0. -1.
    9900012    2    1    2    0    0 -0.86110073208E+00  0.39475405985E+00 -0.70448578119E+00  0.90007480854E+02  0.89999738801E+02 0.  0.
        -12    1    1    2    0    0  0.86110073208E+00 -0.39475405985E+00  0.70448578119E+00  0.11805191462E+01  0.00000000000E+00 0.  1.
         11    1    3    3    0    0  0.32587579288E+02  0.12672825508E+02 -0.13236637029E+02  0.37386620471E+02  0.51100000000E-03 0. -1.
        -11    1    3    3    0    0 -0.18744556938E+01  0.10077553985E+02 -0.33738541402E+01  0.10791365553E+02  0.51100000000E-03 0.  1.
        -12    1    3    3    0    0 -0.31574224326E+02 -0.22355625433E+02  0.15906005388E+02  0.41829494830E+02  0.00000000000E+00 0.  1.
</event>
<event>
 7    1  0.3622165E-015  0.9000766E+02  0.7816164E-02  0.1186339E+00
        -11   -1    0    0    0    0  0.00000000000E+00  0.00000000000E+00  0.45593999997E+02  0.45594000000E+02  0.51100000000E-03 0.  1.
         11   -1    0    0    0    0 -0.00000000000E+00 -0.00000000000E+00 -0.45593999997E+02  0.45594000000E+02  0.51100000000E-03 0. -1.
    9900012    2    1    2    0    0 -0.12679803890E+00 -0.86354065574E+00 -0.79461974591E+00  0.90007660749E+02  0.89999921071E+02 0.  0.
        -12    1    1    2    0    0  0.12679803890E+00  0.86354065574E+00  0.79461974591E+00  0.11803392510E+01  0.00000000000E+00 0.  1.
         11    1    3    3    0    0  0.75114812771E+01 -0.80650498752E+01 -0.16819752684E+02  0.20108989559E+02  0.51100000000E-03 0. -1.
        -11    1    3    3    0    0 -0.36595464465E+02  0.55433035655E+01  0.53480267445E+00  0.37016783328E+02  0.51100000000E-03 0.  1.
         12    1    3    3    0    0  0.28957185149E+02  0.16582056540E+01  0.15490330263E+02  0.32881887862E+02  0.00000000000E+00 0. -1.
</event>
<event>
 7    1  0.3622165E-015  0.9000755E+02  0.7816164E-02  0.1186339E+00
        -11   -1    0    0    0    0  0.00000000000E+00  0.00000000000E+00  0.45593999997E+02  0.45594000000E+02  0.51100000000E-03 0.  1.
         11   -1    0    0    0    0 -0.00000000000E+00 -0.00000000000E+00 -0.45593999997E+02  0.45594000000E+02  0.51100000000E-03 0. -1.
    9900012    2    1    2    0    0 -0.89632340999E+00 -0.63924044824E+00 -0.42594212515E+00  0.90007554872E+02  0.89999813796E+02 0.  0.
        -12    1    1    2    0    0  0.89632340999E+00  0.63924044824E+00  0.42594212515E+00  0.11804451279E+01  0.00000000000E+00 0.  1.
         11    1    3    3    0    0  0.63520056906E+01  0.43042249420E+01 -0.48763650094E+01  0.90913840866E+01  0.51100000000E-03 0. -1.
        -11    1    3    3    0    0  0.24123135873E+02 -0.71310101207E+01  0.30885804631E+02  0.39833527557E+02  0.51100000000E-03 0.  1.
         12    1    3    3    0    0 -0.31371464973E+02  0.21875447305E+01 -0.26435381747E+02  0.41082643228E+02  0.00000000000E+00 0. -1.
</event>
<event>
 7    1  0.3622165E-015  0.9000774E+02  0.7816164E-02  0.1186339E+00
        -11   -1    0    0    0    0  0.00000000000E+00  0.00000000000E+00  0.45593999997E+02  0.45594000000E+02  0.51100000000E-03 0.  1.
         11   -1    0    0    0    0 -0.00000000000E+00 -0.00000000000E+00 -0.45593999997E+02  0.45594000000E+02  0.51100000000E-03 0. -1.
    9900012    2    1    2    0    0  0.11411441066E+01 -0.29210478576E+00  0.73987847854E-01  0.90007741859E+02  0.90000003251E+02 0.  0.
        -12    1    1    2    0    0 -0.11411441066E+01  0.29210478576E+00 -0.73987847854E-01  0.11802581410E+01  0.00000000000E+00 0.  1.
         11    1    3    3    0    0  0.19700579577E+02 -0.31403284244E+02 -0.51360139812E+01  0.37425362214E+02  0.51100000000E-03 0. -1.
        -11    1    3    3    0    0  0.60196594693E+01 -0.44239640537E+01 -0.38967686988E+01  0.84257085534E+01  0.51100000000E-03 0.  1.
        -12    1    3    3    0    0 -0.24579094940E+02  0.35535143512E+02  0.91067705279E+01  0.44156671092E+02  0.00000000000E+00 0.  1.
</event>
<event>
 7    1  0.3622165E-015  0.9000768E+02  0.7816164E-02  0.1186339E+00
        -11   -1    0    0    0    0  0.00000000000E+00  0.00000000000E+00  0.45593999997E+02  0.45594000000E+02  0.51100000000E-03 0.  1.
         11   -1    0    0    0    0 -0.00000000000E+00 -0.00000000000E+00 -0.45593999997E+02  0.45594000000E+02  0.51100000000E-03 0. -1.
    9900012    2    1    2    0    0  0.60060734544E+00  0.48653887039E+00 -0.89202153208E+00  0.90007681539E+02  0.89999942135E+02 0.  0.
        -12    1    1    2    0    0 -0.60060734544E+00 -0.48653887039E+00  0.89202153208E+00  0.11803184611E+01  0.00000000000E+00 0.  1.
         11    1    3    3    0    0 -0.18409145534E+02  0.23056008404E+02 -0.13631054330E+02  0.32500489307E+02  0.51100000000E-03 0. -1.
        -11    1    3    3    0    0 -0.80072541919E+01  0.80409368153E+01 -0.57112377463E+01  0.12703976599E+02  0.51100000000E-03 0.  1.
        -12    1    3    3    0    0  0.27017007072E+02 -0.30610406348E+02  0.18450270544E+02  0.44803215633E+02  0.00000000000E+00 0.  1.
</event>
<event>
 7    1  0.3622165E-015  0.9000776E+02  0.7816164E-02  0.1186339E+00
        -11   -1    0    0    0    0  0.00000000000E+00  0.00000000000E+00  0.45593999997E+02  0.45594000000E+02  0.51100000000E-03 0. -1.
         11   -1    0    0    0    0 -0.00000000000E+00 -0.00000000000E+00 -0.45593999997E+02  0.45594000000E+02  0.51100000000E-03 0.  1.
    9900012    2    1    2    0    0 -0.37339861000E+00  0.79449196075E+00  0.78887392980E+00  0.90007760162E+02  0.90000021796E+02 0.  0.
        -12    1    1    2    0    0  0.37339861000E+00 -0.79449196075E+00 -0.78887392980E+00  0.11802398378E+01  0.00000000000E+00 0.  1.
         11    1    3    3    0    0 -0.13749857982E+01  0.14421446955E+01  0.12294962954E+02  0.12455379624E+02  0.51100000000E-03 0. -1.
        -11    1    3    3    0    0  0.36697493227E+02 -0.11793611439E+02 -0.42062965275E+00  0.38548310073E+02  0.51100000000E-03 0.  1.
         12    1    3    3    0    0 -0.35695906039E+02  0.11145958705E+02 -0.11085459372E+02  0.39004070465E+02  0.00000000000E+00 0. -1.
</event>
<event>
 7    1  0.3622165E-015  0.9000762E+02  0.7816164E-02  0.1186339E+00
        -11   -1    0    0    0    0  0.00000000000E+00  0.00000000000E+00  0.45593999997E+02  0.45594000000E+02  0.51100000000E-03 0.  1.
         11   -1    0    0    0    0 -0.00000000000E+00 -0.00000000000E+00 -0.45593999997E+02  0.45594000000E+02  0.51100000000E-03 0. -1.
    9900012    2    1    2    0    0 -0.28770784089E+00 -0.32682089352E+00 -0.10971346007E+01  0.90007622082E+02  0.89999881893E+02 0.  0.
        -12    1    1    2    0    0  0.28770784089E+00  0.32682089352E+00  0.10971346007E+01  0.11803779183E+01  0.00000000000E+00 0.  1.
         11    1    3    3    0    0  0.11988171034E+01  0.85942596631E+01  0.39823264077E+01  0.95476376912E+01  0.51100000000E-03 0. -1.
        -11    1    3    3    0    0  0.30365998749E+02  0.20738861670E+02 -0.19366368077E+01  0.36823156109E+02  0.51100000000E-03 0.  1.
         12    1    3    3    0    0 -0.31852523694E+02 -0.29659942226E+02 -0.31428242007E+01  0.43636828282E+02  0.00000000000E+00 0. -1.
</event>
<event>
 7    1  0.3622165E-015  0.9000773E+02  0.7816164E-02  0.1186339E+00
        -11   -1    0    0    0    0  0.00000000000E+00  0.00000000000E+00  0.45593999997E+02  0.45594000000E+02  0.51100000000E-03 0. -1.
         11   -1    0    0    0    0 -0.00000000000E+00 -0.00000000000E+00 -0.45593999997E+02  0.45594000000E+02  0.51100000000E-03 0.  1.
    9900012    2    1    2    0    0  0.81133342686E+00 -0.71740917497E+00 -0.46915646461E+00  0.90007726455E+02  0.89999987644E+02 0.  0.
        -12    1    1    2    0    0 -0.81133342686E+00  0.71740917497E+00  0.46915646461E+00  0.11802735455E+01  0.00000000000E+00 0.  1.
         11    1    3    3    0    0  0.12093335625E+02 -0.15153162689E+02 -0.15719907223E+01  0.19450919287E+02  0.51100000000E-03 0. -1.
        -11    1    3    3    0    0  0.12683073082E+02 -0.20491646204E+02  0.11851653188E+02  0.26855718022E+02  0.51100000000E-03 0.  1.
         12    1    3    3    0    0 -0.23965075279E+02  0.34927399717E+02 -0.10748818930E+02  0.43701089146E+02  0.00000000000E+00 0. -1.
</event>
<event>
 7    1  0.3622165E-015  0.9000734E+02  0.7816164E-02  0.1186340E+00
        -11   -1    0    0    0    0  0.00000000000E+00  0.00000000000E+00  0.45593999997E+02  0.45594000000E+02  0.51100000000E-03 0.  1.
         11   -1    0    0    0    0 -0.00000000000E+00 -0.00000000000E+00 -0.45593999997E+02  0.45594000000E+02  0.51100000000E-03 0. -1.
    9900012    2    1    2    0    0  0.66681424636E+00 -0.48261902958E+00 -0.84640573388E+00  0.90007337037E+02  0.89999593085E+02 0.  0.
        -12    1    1    2    0    0 -0.66681424636E+00  0.48261902958E+00  0.84640573388E+00  0.11806629634E+01  0.00000000000E+00 0.  1.
         11    1    3    3    0    0 -0.11088662760E+02  0.35785908886E+02 -0.99265416371E+00  0.37477661068E+02  0.51100000000E-03 0. -1.
        -11    1    3    3    0    0  0.57109905243E+01  0.48652549914E+01  0.71553122231E+01  0.10367478583E+02  0.51100000000E-03 0.  1.
        -12    1    3    3    0    0  0.60444864823E+01 -0.41133782907E+02 -0.70090637933E+01  0.42162197385E+02  0.00000000000E+00 0.  1.
</event>
<event>
 7    1  0.3622165E-015  0.9000770E+02  0.7816164E-02  0.1186339E+00
        -11   -1    0    0    0    0  0.00000000000E+00  0.00000000000E+00  0.45593999997E+02  0.45594000000E+02  0.51100000000E-03 0. -1.
         11   -1    0    0    0    0 -0.00000000000E+00 -0.00000000000E+00 -0.45593999997E+02  0.45594000000E+02  0.51100000000E-03 0.  1.
    9900012    2    1    2    0    0  0.88610594322E+00  0.77662318796E+00  0.69226999224E-01  0.90007695083E+02  0.89999955859E+02 0.  0.
        -12    1    1    2    0    0 -0.88610594322E+00 -0.77662318796E+00 -0.69226999224E-01  0.11803049166E+01  0.00000000000E+00 0.  1.
         11    1    3    3    0    0  0.42333658378E+02  0.35213019743E+01 -0.90772620334E+01  0.43438863769E+02  0.51100000000E-03 0. -1.
        -11    1    3    3    0    0 -0.49106449331E+01 -0.91519378867E+00  0.86430311918E+01  0.99826850984E+01  0.51100000000E-03 0.  1.
        -12    1    3    3    0    0 -0.36536907502E+02 -0.18294849977E+01  0.50345784078E+00  0.36586146216E+02  0.00000000000E+00 0.  1.
</event>
<event>
 7    1  0.3622165E-015  0.9000768E+02  0.7816164E-02  0.1186339E+00
        -11   -1    0    0    0    0  0.00000000000E+00  0.00000000000E+00  0.45593999997E+02  0.45594000000E+02  0.51100000000E-03 0. -1.
         11   -1    0    0    0    0 -0.00000000000E+00 -0.00000000000E+00 -0.45593999997E+02  0.45594000000E+02  0.51100000000E-03 0.  1.
    9900012    2    1    2    0    0  0.80924377541E+00  0.66405252607E+00  0.54525541879E+00  0.90007684484E+02  0.89999945119E+02 0.  0.
        -12    1    1    2    0    0 -0.80924377541E+00 -0.66405252607E+00 -0.54525541879E+00  0.11803155159E+01  0.00000000000E+00 0.  1.
         11    1    3    3    0    0 -0.16736860751E+02 -0.31770959234E+02  0.12469543380E+02  0.38013232838E+02  0.51100000000E-03 0. -1.
        -11    1    3    3    0    0 -0.62365460884E+01  0.53263576949E+00  0.57080939019E+01  0.84711595564E+01  0.51100000000E-03 0.  1.
        -12    1    3    3    0    0  0.23782650615E+02  0.31902375991E+02 -0.17632381864E+02  0.43523292089E+02  0.00000000000E+00 0.  1.
</event>
<event>
 7    1  0.3622165E-015  0.9000772E+02  0.7816164E-02  0.1186339E+00
        -11   -1    0    0    0    0  0.00000000000E+00  0.00000000000E+00  0.45593999997E+02  0.45594000000E+02  0.51100000000E-03 0.  1.
         11   -1    0    0    0    0 -0.00000000000E+00 -0.00000000000E+00 -0.45593999997E+02  0.45594000000E+02  0.51100000000E-03 0. -1.
    9900012    2    1    2    0    0  0.11681512623E+01 -0.15299461836E+00  0.71281839878E-01  0.90007717904E+02  0.89999978981E+02 0.  0.
        -12    1    1    2    0    0 -0.11681512623E+01  0.15299461836E+00 -0.71281839878E-01  0.11802820958E+01  0.00000000000E+00 0.  1.
         11    1    3    3    0    0 -0.21682338543E+00 -0.33835892601E+02 -0.43333281703E-01  0.33836615057E+02  0.51100000000E-03 0. -1.
        -11    1    3    3    0    0  0.17604490484E+01 -0.10608482794E+02  0.45091076293E+01  0.11660666358E+02  0.51100000000E-03 0.  1.
        -12    1    3    3    0    0 -0.37547440063E+00  0.44291380776E+02 -0.43944925077E+01  0.44510436489E+02  0.00000000000E+00 0.  1.
</event>
<event>
 7    1  0.3622165E-015  0.9000769E+02  0.7816164E-02  0.1186339E+00
        -11   -1    0    0    0    0  0.00000000000E+00  0.00000000000E+00  0.45593999997E+02  0.45594000000E+02  0.51100000000E-03 0.  1.
         11   -1    0    0    0    0 -0.00000000000E+00 -0.00000000000E+00 -0.45593999997E+02  0.45594000000E+02  0.51100000000E-03 0. -1.
    9900012    2    1    2    0    0  0.78556926789E+00 -0.43357637180E+00 -0.76682976600E+00  0.90007688416E+02  0.89999949103E+02 0.  0.
        -12    1    1    2    0    0 -0.78556926789E+00  0.43357637180E+00  0.76682976600E+00  0.11803115838E+01  0.00000000000E+00 0.  1.
         11    1    3    3    0    0 -0.45594143069E+01  0.82409040297E+01  0.83819163444E+00  0.94553330733E+01  0.51100000000E-03 0. -1.
        -11    1    3    3    0    0 -0.26441938599E+02 -0.73723024383E+01  0.26461494620E+02  0.38127911796E+02  0.51100000000E-03 0.  1.
         12    1    3    3    0    0  0.31786922174E+02 -0.13021779632E+01 -0.28066516020E+02  0.42424443547E+02  0.00000000000E+00 0. -1.
</event>
<event>
 8    1  0.3622165E-015  0.9000753E+02  0.7816164E-02  0.1186339E+00
        -11   -1    0    0    0    0  0.00000000000E+00  0.00000000000E+00  0.45593999997E+02  0.45594000000E+02  0.51100000000E-03 0. -1.
         11   -1    0    0    0    0 -0.00000000000E+00 -0.00000000000E+00 -0.45593999997E+02  0.45594000000E+02  0.51100000000E-03 0.  1.
    9900012    2    1    2    0    0  0.11411199533E+01 -0.22342839041E+00 -0.20353434900E+00  0.90007533472E+02  0.89999792113E+02 0.  0.
         23    2    3    3    0    0 -0.18984555743E+02 -0.18690950391E+02 -0.84728166418E+01  0.61468556252E+02  0.54743308291E+02 0.  0.
        -12    1    1    2    0    0 -0.11411199533E+01  0.22342839041E+00  0.20353434900E+00  0.11804665284E+01  0.00000000000E+00 0.  1.
         11    1    4    4    0    0 -0.18371399425E+01 -0.31001333098E+02 -0.20463823191E+02  0.37191743666E+02  0.51100000000E-03 0. -1.
        -11    1    4    4    0    0 -0.17147415801E+02  0.12310382707E+02  0.11991006550E+02  0.24276812587E+02  0.51100000000E-03 0.  1.
        -12    1    3    3    0    0  0.20125675697E+02  0.18467522001E+02  0.82692822928E+01  0.28538977219E+02  0.00000000000E+00 0.  1.
</event>
<event>
 7    1  0.3622165E-015  0.9000763E+02  0.7816164E-02  0.1186339E+00
        -11   -1    0    0    0    0  0.00000000000E+00  0.00000000000E+00  0.45593999997E+02  0.45594000000E+02  0.51100000000E-03 0.  1.
         11   -1    0    0    0    0 -0.00000000000E+00 -0.00000000000E+00 -0.45593999997E+02  0.45594000000E+02  0.51100000000E-03 0. -1.
    9900012    2    1    2    0    0 -0.16878885894E+00 -0.76465789641E+00  0.88322681583E+00  0.90007626760E+02  0.89999886633E+02 0.  0.
        -12    1    1    2    0    0  0.16878885894E+00  0.76465789641E+00 -0.88322681583E+00  0.11803732400E+01  0.00000000000E+00 0.  1.
         11    1    3    3    0    0 -0.56687426627E+01 -0.33185365497E+01  0.73121354723E+01  0.98292753361E+01  0.51100000000E-03 0. -1.
        -11    1    3    3    0    0 -0.35622653646E+02 -0.18970204119E+01  0.76518608168E+01  0.36484559932E+02  0.51100000000E-03 0.  1.
         12    1    3    3    0    0  0.41122607450E+02  0.44508990651E+01 -0.14080769473E+02  0.43693791492E+02  0.00000000000E+00 0. -1.
</event>
<event>
 7    1  0.3622165E-015  0.9000768E+02  0.7816164E-02  0.1186339E+00
        -11   -1    0    0    0    0  0.00000000000E+00  0.00000000000E+00  0.45593999997E+02  0.45594000000E+02  0.51100000000E-03 0. -1.
         11   -1    0    0    0    0 -0.00000000000E+00 -0.00000000000E+00 -0.45593999997E+02  0.45594000000E+02  0.51100000000E-03 0.  1.
    9900012    2    1    2    0    0  0.81290294847E+00  0.21710286820E+00 -0.82776778117E+00  0.90007684636E+02  0.89999945273E+02 0.  0.
        -12    1    1    2    0    0 -0.81290294847E+00 -0.21710286820E+00  0.82776778117E+00  0.11803153640E+01  0.00000000000E+00 0.  1.
         11    1    3    3    0    0 -0.30027427066E+02 -0.22777106694E+02 -0.14625736283E+02  0.40427158293E+02  0.51100000000E-03 0. -1.
        -11    1    3    3    0    0 -0.21841462251E+01  0.64961306699E+01 -0.46791665938E+01  0.82984823123E+01  0.51100000000E-03 0.  1.
        -12    1    3    3    0    0  0.33024476239E+02  0.16498078892E+02  0.18477135096E+02  0.41282044031E+02  0.00000000000E+00 0.  1.
</event>
<event>
 7    1  0.3622165E-015  0.9000774E+02  0.7816164E-02  0.1186339E+00
        -11   -1    0    0    0    0  0.00000000000E+00  0.00000000000E+00  0.45593999997E+02  0.45594000000E+02  0.51100000000E-03 0. -1.
         11   -1    0    0    0    0 -0.00000000000E+00 -0.00000000000E+00 -0.45593999997E+02  0.45594000000E+02  0.51100000000E-03 0.  1.
    9900012    2    1    2    0    0  0.14756336058E+00  0.74811837792E+00  0.90086153707E+00  0.90007742587E+02  0.90000003989E+02 0.  0.
        -12    1    1    2    0    0 -0.14756336058E+00 -0.74811837792E+00 -0.90086153707E+00  0.11802574133E+01  0.00000000000E+00 0.  1.
         11    1    3    3    0    0  0.65126394210E+01  0.25162115928E+01  0.81659393465E+00  0.70294109940E+01  0.51100000000E-03 0. -1.
        -11    1    3    3    0    0  0.28143125419E+02  0.20253723970E+02 -0.17004185667E+02  0.38618534066E+02  0.51100000000E-03 0.  1.
         12    1    3    3    0    0 -0.34508201479E+02 -0.22021817185E+02  0.17088453269E+02  0.44359797526E+02  0.00000000000E+00 0. -1.
</event>
<event>
 7    1  0.3622165E-015  0.9000797E+02  0.7816164E-02  0.1186339E+00
        -11   -1    0    0    0    0  0.00000000000E+00  0.00000000000E+00  0.45593999997E+02  0.45594000000E+02  0.51100000000E-03 0.  1.
         11   -1    0    0    0    0 -0.00000000000E+00 -0.00000000000E+00 -0.45593999997E+02  0.45594000000E+02  0.51100000000E-03 0. -1.
    9900012    2    1    2    0    0 -0.81697766044E+00  0.29488038126E+00 -0.79878946872E+00  0.90007969682E+02  0.90000234081E+02 0.  0.
        -12    1    1    2    0    0  0.81697766044E+00 -0.29488038126E+00  0.79878946872E+00  0.11800303184E+01  0.00000000000E+00 0.  1.
         11    1    3    3    0    0 -0.17508051566E+02  0.21251983442E+00 -0.16057287781E+02  0.23757388860E+02  0.51100000000E-03 0. -1.
        -11    1    3    3    0    0 -0.18079698761E+02  0.52534258018E+00 -0.12306367827E+02  0.21876886923E+02  0.51100000000E-03 0.  1.
         12    1    3    3    0    0  0.34770772666E+02 -0.44298203334E+00  0.27564866139E+02  0.44373693898E+02  0.00000000000E+00 0. -1.
</event>
<event>
 7    1  0.3622165E-015  0.9000783E+02  0.7816164E-02  0.1186339E+00
        -11   -1    0    0    0    0  0.00000000000E+00  0.00000000000E+00  0.45593999997E+02  0.45594000000E+02  0.51100000000E-03 0. -1.
         11   -1    0    0    0    0 -0.00000000000E+00 -0.00000000000E+00 -0.45593999997E+02  0.45594000000E+02  0.51100000000E-03 0.  1.
    9900012    2    1    2    0    0  0.30311330288E+00 -0.11208914725E+01 -0.21102699779E+00  0.90007827232E+02  0.90000089752E+02 0.  0.
        -12    1    1    2    0    0 -0.30311330288E+00  0.11208914725E+01  0.21102699779E+00  0.11801727676E+01  0.00000000000E+00 0.  1.
         11    1    3    3    0    0  0.87757457533E+01 -0.28200697477E+02  0.22711553945E+02  0.37257317866E+02  0.51100000000E-03 0. -1.
        -11    1    3    3    0    0  0.49710474479E+01 -0.62643440752E+01  0.28773202504E+01  0.84989582600E+01  0.51100000000E-03 0.  1.
        -12    1    3    3    0    0 -0.13443679898E+02  0.33344150079E+02 -0.25799901194E+02  0.44251551106E+02  0.00000000000E+00 0.  1.
</event>
<event>
 7    1  0.3622165E-015  0.9000764E+02  0.7816164E-02  0.1186339E+00
        -11   -1    0    0    0    0  0.00000000000E+00  0.00000000000E+00  0.45593999997E+02  0.45594000000E+02  0.51100000000E-03 0.  1.
         11   -1    0    0    0    0 -0.00000000000E+00 -0.00000000000E+00 -0.45593999997E+02  0.45594000000E+02  0.51100000000E-03 0. -1.
    9900012    2    1    2    0    0 -0.36182228395E+00  0.68179031104E+00 -0.89303221427E+00  0.90007635679E+02  0.89999895670E+02 0.  0.
        -12    1    1    2    0    0  0.36182228395E+00 -0.68179031104E+00  0.89303221427E+00  0.11803643205E+01  0.00000000000E+00 0.  1.
         11    1    3    3    0    0 -0.68507044052E+01  0.77969343726E+00  0.43360337193E+01  0.81450145107E+01  0.51100000000E-03 0. -1.
        -11    1    3    3    0    0 -0.37858074127E+01  0.34188987435E+02  0.18364111220E+02  0.38993073497E+02  0.51100000000E-03 0.  1.
         12    1    3    3    0    0  0.10274689534E+02 -0.34286890561E+02 -0.23593177153E+02  0.42869547672E+02  0.00000000000E+00 0. -1.
</event>
<event>
 7    1  0.3622165E-015  0.9000773E+02  0.7816164E-02  0.1186339E+00
        -11   -1    0    0    0    0  0.00000000000E+00  0.00000000000E+00  0.45593999997E+02  0.45594000000E+02  0.51100000000E-03 0.  1.
         11   -1    0    0    0    0 -0.00000000000E+00 -0.00000000000E+00 -0.45593999997E+02  0.45594000000E+02  0.51100000000E-03 0. -1.
    9900012    2    1    2    0    0  0.78501414143E+00 -0.75732296353E-01 -0.87809653146E+00  0.90007730496E+02  0.89999991739E+02 0.  0.
        -12    1    1    2    0    0 -0.78501414143E+00  0.75732296353E-01  0.87809653146E+00  0.11802695038E+01  0.00000000000E+00 0.  1.
         11    1    3    3    0    0 -0.26475072957E+02 -0.19087846706E+02  0.60910906396E+01  0.33202059655E+02  0.51100000000E-03 0. -1.
        -11    1    3    3    0    0  0.12093779164E+02 -0.35601735371E+01  0.16582491594E+02  0.20830587073E+02  0.51100000000E-03 0.  1.
        -12    1    3    3    0    0  0.15166307934E+02  0.22572287946E+02 -0.23551678765E+02  0.35975083768E+02  0.00000000000E+00 0.  1.
</event>
<event>
 7    1  0.3622165E-015  0.9000818E+02  0.7816164E-02  0.1186338E+00
        -11   -1    0    0    0    0  0.00000000000E+00  0.00000000000E+00  0.45593999997E+02  0.45594000000E+02  0.51100000000E-03 0. -1.
         11   -1    0    0    0    0 -0.00000000000E+00 -0.00000000000E+00 -0.45593999997E+02  0.45594000000E+02  0.51100000000E-03 0.  1.
    9900012    2    1    2    0    0 -0.38082227102E+00  0.96308795702E+00  0.56517216605E+00  0.90008176457E+02  0.90000443585E+02 0.  0.
        -12    1    1    2    0    0  0.38082227102E+00 -0.96308795702E+00 -0.56517216605E+00  0.11798235429E+01  0.00000000000E+00 0.  1.
         11    1    3    3    0    0 -0.62514733632E+01  0.16927482457E+02  0.32272614613E+02  0.36974886555E+02  0.51100000000E-03 0. -1.
        -11    1    3    3    0    0  0.13285390852E+00  0.73539915688E+01  0.51953695314E+01  0.90050378669E+01  0.51100000000E-03 0.  1.
        -12    1    3    3    0    0  0.57377971837E+01 -0.23318386069E+02 -0.36902811978E+02  0.44028252035E+02  0.00000000000E+00 0.  1.
</event>
<event>
 7    1  0.3622165E-015  0.9000782E+02  0.7816164E-02  0.1186339E+00
        -11   -1    0    0    0    0  0.00000000000E+00  0.00000000000E+00  0.45593999997E+02  0.45594000000E+02  0.51100000000E-03 0. -1.
         11   -1    0    0    0    0 -0.00000000000E+00 -0.00000000000E+00 -0.45593999997E+02  0.45594000000E+02  0.51100000000E-03 0.  1.
    9900012    2    1    2    0    0 -0.72656776257E+00 -0.22352591294E+00  0.90275433097E+00  0.90007817841E+02  0.90000080236E+02 0.  0.
        -12    1    1    2    0    0  0.72656776257E+00  0.22352591294E+00 -0.90275433097E+00  0.11801821594E+01  0.00000000000E+00 0.  1.
         11    1    3    3    0    0 -0.17077535493E+02  0.20086256034E+02 -0.26443807300E+02  0.37341328910E+02  0.51100000000E-03 0. -1.
        -11    1    3    3    0    0  0.41013026211E+01 -0.24299433255E+01 -0.90939855482E+01  0.10267710610E+02  0.51100000000E-03 0.  1.
        -12    1    3    3    0    0  0.12249665109E+02 -0.17879838621E+02  0.36440547179E+02  0.42398778321E+02  0.00000000000E+00 0.  1.
</event>
<event>
 7    1  0.3622165E-015  0.9000780E+02  0.7816164E-02  0.1186339E+00
        -11   -1    0    0    0    0  0.00000000000E+00  0.00000000000E+00  0.45593999997E+02  0.45594000000E+02  0.51100000000E-03 0.  1.
         11   -1    0    0    0    0 -0.00000000000E+00 -0.00000000000E+00 -0.45593999997E+02  0.45594000000E+02  0.51100000000E-03 0. -1.
    9900012    2    1    2    0    0  0.88858173328E+00  0.77133357783E+00 -0.91264081740E-01  0.90007804204E+02  0.90000066419E+02 0.  0.
        -12    1    1    2    0    0 -0.88858173328E+00 -0.77133357783E+00  0.91264081740E-01  0.11801957963E+01  0.00000000000E+00 0.  1.
         11    1    3    3    0    0 -0.25155266207E+02  0.10157363956E+02 -0.25820575216E+02  0.37452123641E+02  0.51100000000E-03 0. -1.
        -11    1    3    3    0    0 -0.37353279708E+01 -0.52014833138E+01 -0.60457735988E+01  0.88067861552E+01  0.51100000000E-03 0.  1.
        -12    1    3    3    0    0  0.29779175911E+02 -0.41845470646E+01  0.31775084733E+02  0.43748894407E+02  0.00000000000E+00 0.  1.
</event>
<event>
 7    1  0.3622165E-015  0.9000807E+02  0.7816164E-02  0.1186338E+00
        -11   -1    0    0    0    0  0.00000000000E+00  0.00000000000E+00  0.45593999997E+02  0.45594000000E+02  0.51100000000E-03 0.  1.
         11   -1    0    0    0    0 -0.00000000000E+00 -0.00000000000E+00 -0.45593999997E+02  0.45594000000E+02  0.51100000000E-03 0. -1.
    9900012    2    1    2    0    0 -0.55696547761E+00  0.12399449000E+00 -0.10327849083E+01  0.90008072102E+02  0.90000337854E+02 0.  0.
        -12    1    1    2    0    0  0.55696547761E+00 -0.12399449000E+00  0.10327849083E+01  0.11799278976E+01  0.00000000000E+00 0.  1.
         11    1    3    3    0    0 -0.22570700218E+02 -0.26635251104E+02 -0.16282131443E+02  0.38522472847E+02  0.51100000000E-03 0. -1.
        -11    1    3    3    0    0  0.29973756170E+01  0.35276800039E+01 -0.10792013377E+02  0.11742927224E+02  0.51100000000E-03 0.  1.
        -12    1    3    3    0    0  0.19016359123E+02  0.23231565590E+02  0.26041359912E+02  0.39742672031E+02  0.00000000000E+00 0.  1.
</event>
<event>
 7    1  0.3622165E-015  0.9000774E+02  0.7816164E-02  0.1186339E+00
        -11   -1    0    0    0    0  0.00000000000E+00  0.00000000000E+00  0.45593999997E+02  0.45594000000E+02  0.51100000000E-03 0.  1.
         11   -1    0    0    0    0 -0.00000000000E+00 -0.00000000000E+00 -0.45593999997E+02  0.45594000000E+02  0.51100000000E-03 0. -1.
    9900012    2    1    2    0    0 -0.28524068865E+00 -0.79228992000E+00 -0.82700560838E+00  0.90007735689E+02  0.89999997000E+02 0.  0.
        -12    1    1    2    0    0  0.28524068865E+00  0.79228992000E+00  0.82700560838E+00  0.11802643111E+01  0.00000000000E+00 0.  1.
         11    1    3    3    0    0 -0.78312858110E+01  0.36722425868E+02  0.16786041635E+02  0.41129512435E+02  0.51100000000E-03 0. -1.
        -11    1    3    3    0    0 -0.42829850364E+01 -0.33823977979E+00 -0.73897906821E+01  0.85479455752E+01  0.51100000000E-03 0.  1.
        -12    1    3    3    0    0  0.11829030159E+02 -0.37176476008E+02 -0.10223256562E+02  0.40330277679E+02  0.00000000000E+00 0.  1.
</event>
<event>
 7    1  0.3622165E-015  0.9000777E+02  0.7816164E-02  0.1186339E+00
        -11   -1    0    0    0    0  0.00000000000E+00  0.00000000000E+00  0.45593999997E+02  0.45594000000E+02  0.51100000000E-03 0.  1.
         11   -1    0    0    0    0 -0.00000000000E+00 -0.00000000000E+00 -0.45593999997E+02  0.45594000000E+02  0.51100000000E-03 0. -1.
    9900012    2    1    2    0    0 -0.67514162144E+00  0.67596017677E+00 -0.69296503040E+00  0.90007771673E+02  0.90000033459E+02 0.  0.
        -12    1    1    2    0    0  0.67514162144E+00 -0.67596017677E+00  0.69296503040E+00  0.11802283266E+01  0.00000000000E+00 0.  1.
         11    1    3    3    0    0  0.25331829247E+01  0.52920841046E+01 -0.70906823725E+01  0.92033117229E+01  0.51100000000E-03 0. -1.
        -11    1    3    3    0    0  0.27623343547E+02 -0.21383506908E+02  0.23157965876E+02  0.41911750861E+02  0.51100000000E-03 0.  1.
         12    1    3    3    0    0 -0.30831668093E+02  0.16767382981E+02 -0.16760248534E+02  0.38892709090E+02  0.00000000000E+00 0. -1.
</event>
<event>
 7    1  0.3622165E-015  0.9000775E+02  0.7816164E-02  0.1186339E+00
        -11   -1    0    0    0    0  0.00000000000E+00  0.00000000000E+00  0.45593999997E+02  0.45594000000E+02  0.51100000000E-03 0.  1.
         11   -1    0    0    0    0 -0.00000000000E+00 -0.00000000000E+00 -0.45593999997E+02  0.45594000000E+02  0.51100000000E-03 0. -1.
    9900012    2    1    2    0    0  0.56981671485E+00 -0.48485094698E+00  0.91280735203E+00  0.90007750539E+02  0.90000012046E+02 0.  0.
        -12    1    1    2    0    0 -0.56981671485E+00  0.48485094698E+00 -0.91280735203E+00  0.11802494614E+01  0.00000000000E+00 0.  1.
         11    1    3    3    0    0  0.70720997160E+01 -0.31304895993E+02 -0.97862217729E+00  0.32108703013E+02  0.51100000000E-03 0. -1.
        -11    1    3    3    0    0 -0.63821943313E+01 -0.11332714138E+02 -0.70706350999E+01  0.14803941880E+02  0.51100000000E-03 0.  1.
        -12    1    3    3    0    0 -0.12008866991E+00  0.42152759185E+02  0.89620646293E+01  0.43095105645E+02  0.00000000000E+00 0.  1.
</event>
<event>
 7    1  0.3622165E-015  0.9000781E+02  0.7816164E-02  0.1186339E+00
        -11   -1    0    0    0    0  0.00000000000E+00  0.00000000000E+00  0.45593999997E+02  0.45594000000E+02  0.51100000000E-03 0. -1.
         11   -1    0    0    0    0 -0.00000000000E+00 -0.00000000000E+00 -0.45593999997E+02  0.45594000000E+02  0.51100000000E-03 0.  1.
    9900012    2    1    2    0    0 -0.36046085032E+00  0.76140755256E+00  0.82653738866E+00  0.90007814616E+02  0.90000076969E+02 0.  0.
        -12    1    1    2    0    0  0.36046085032E+00 -0.76140755256E+00 -0.82653738866E+00  0.11801853840E+01  0.00000000000E+00 0.  1.
         11    1    3    3    0    0  0.23835182864E+02  0.22740509435E+02 -0.10924595327E+02  0.34707254211E+02  0.51100000000E-03 0. -1.
        -11    1    3    3    0    0  0.89106892589E+01  0.37633847284E+00  0.12488730876E+02  0.15346348519E+02  0.51100000000E-03 0.  1.
        -12    1    3    3    0    0 -0.33106332973E+02 -0.22355440356E+02 -0.73759816055E+00  0.39954211886E+02  0.00000000000E+00 0.  1.
</event>
<event>
 7    1  0.3622165E-015  0.9000765E+02  0.7816164E-02  0.1186339E+00
        -11   -1    0    0    0    0  0.00000000000E+00  0.00000000000E+00  0.45593999997E+02  0.45594000000E+02  0.51100000000E-03 0.  1.
         11   -1    0    0    0    0 -0.00000000000E+00 -0.00000000000E+00 -0.45593999997E+02  0.45594000000E+02  0.51100000000E-03 0. -1.
    9900012    2    1    2    0    0  0.18755381899E+00 -0.10624038982E+01  0.47889804688E+00  0.90007651824E+02  0.89999912028E+02 0.  0.
        -12    1    1    2    0    0 -0.18755381899E+00  0.10624038982E+01 -0.47889804688E+00  0.11803481763E+01  0.00000000000E+00 0.  1.
         11    1    3    3    0    0 -0.91881942018E+00  0.78201892916E+01  0.55965797564E+01  0.96602947634E+01  0.51100000000E-03 0. -1.
        -11    1    3    3    0    0  0.10171844504E+02 -0.35146509966E+02  0.21023298307E+02  0.42198609638E+02  0.51100000000E-03 0.  1.
         12    1    3    3    0    0 -0.90654712651E+01  0.26263916776E+02 -0.26140980016E+02  0.38148747422E+02  0.00000000000E+00 0. -1.
</event>
<event>
 7    1  0.3622165E-015  0.9000779E+02  0.7816164E-02  0.1186339E+00
        -11   -1    0    0    0    0  0.00000000000E+00  0.00000000000E+00  0.45593999997E+02  0.45594000000E+02  0.51100000000E-03 0.  1.
         11   -1    0    0    0    0 -0.00000000000E+00 -0.00000000000E+00 -0.45593999997E+02  0.45594000000E+02  0.51100000000E-03 0. -1.
    9900012    2    1    2    0    0 -0.73475812770E+00  0.34410746373E+00 -0.85709364858E+00  0.90007792825E+02  0.90000054891E+02 0.  0.
        -12    1    1    2    0    0  0.73475812770E+00 -0.34410746373E+00  0.85709364858E+00  0.11802071747E+01  0.00000000000E+00 0.  1.
         11    1    3    3    0    0  0.19956229270E+01 -0.39694440996E+02  0.12922044360E+02  0.41792468072E+02  0.51100000000E-03 0. -1.
        -11    1    3    3    0    0 -0.57658000644E+01  0.32613114049E+01 -0.87458666519E+01  0.10971362095E+02  0.51100000000E-03 0.  1.
        -12    1    3    3    0    0  0.30354190097E+01  0.36777237055E+02 -0.50332713567E+01  0.37243962658E+02  0.00000000000E+00 0.  1.
</event>
<event>
 7    1  0.3622165E-015  0.9000790E+02  0.7816164E-02  0.1186339E+00
        -11   -1    0    0    0    0  0.00000000000E+00  0.00000000000E+00  0.45593999997E+02  0.45594000000E+02  0.51100000000E-03 0. -1.
         11   -1    0    0    0    0 -0.00000000000E+00 -0.00000000000E+00 -0.45593999997E+02  0.45594000000E+02  0.51100000000E-03 0.  1.
    9900012    2    1    2    0    0  0.11447739142E+01  0.12942335837E+00  0.25567332855E+00  0.90007903999E+02  0.90000167532E+02 0.  0.
        -12    1    1    2    0    0 -0.11447739142E+01 -0.12942335837E+00 -0.25567332855E+00  0.11800960008E+01  0.00000000000E+00 0.  1.
         11    1    3    3    0    0  0.75588895073E+01 -0.36227535668E+01  0.60756525172E+01  0.10352521807E+02  0.51100000000E-03 0. -1.
        -11    1    3    3    0    0  0.61538824971E+01 -0.36538263083E+02 -0.54285834618E+01  0.37448423967E+02  0.51100000000E-03 0.  1.
         12    1    3    3    0    0 -0.12567998090E+02  0.40290440008E+02 -0.39139572689E+00  0.42206958226E+02  0.00000000000E+00 0. -1.
</event>
<event>
 7    1  0.3622165E-015  0.9000774E+02  0.7816164E-02  0.1186339E+00
        -11   -1    0    0    0    0  0.00000000000E+00  0.00000000000E+00  0.45593999997E+02  0.45594000000E+02  0.51100000000E-03 0. -1.
         11   -1    0    0    0    0 -0.00000000000E+00 -0.00000000000E+00 -0.45593999997E+02  0.45594000000E+02  0.51100000000E-03 0.  1.
    9900012    2    1    2    0    0 -0.90778163455E-01  0.10855105602E+01 -0.45436823423E+00  0.90007735477E+02  0.89999996786E+02 0.  0.
        -12    1    1    2    0    0  0.90778163455E-01 -0.10855105602E+01  0.45436823423E+00  0.11802645227E+01  0.00000000000E+00 0.  1.
         11    1    3    3    0    0 -0.99867312341E+01 -0.33023389802E+02  0.11322607352E+02  0.36310886966E+02  0.51100000000E-03 0. -1.
        -11    1    3    3    0    0 -0.51131420715E+01 -0.69496471144E+01 -0.11163251566E+01  0.86998849977E+01  0.51100000000E-03 0.  1.
        -12    1    3    3    0    0  0.15009095142E+02  0.41058547477E+02 -0.10660650429E+02  0.44996963514E+02  0.00000000000E+00 0.  1.
</event>
<event>
 7    1  0.3622165E-015  0.9000777E+02  0.7816164E-02  0.1186339E+00
        -11   -1    0    0    0    0  0.00000000000E+00  0.00000000000E+00  0.45593999997E+02  0.45594000000E+02  0.51100000000E-03 0. -1.
         11   -1    0    0    0    0 -0.00000000000E+00 -0.00000000000E+00 -0.45593999997E+02  0.45594000000E+02  0.51100000000E-03 0.  1.
    9900012    2    1    2    0    0  0.69199967463E+00  0.43642783586E+00  0.85065961162E+00  0.90007765032E+02  0.90000026730E+02 0.  0.
        -12    1    1    2    0    0 -0.69199967463E+00 -0.43642783586E+00 -0.85065961162E+00  0.11802349683E+01  0.00000000000E+00 0.  1.
         11    1    3    3    0    0 -0.54320112655E-01  0.82479263685E+01  0.93221972018E+01  0.12447272833E+02  0.51100000000E-03 0. -1.
        -11    1    3    3    0    0 -0.32694227288E+02  0.14529979399E+01 -0.22938909587E+02  0.39965200791E+02  0.51100000000E-03 0.  1.
         12    1    3    3    0    0  0.33440547075E+02 -0.92644964725E+01  0.14467371997E+02  0.37595291408E+02  0.00000000000E+00 0. -1.
</event>
<event>
 7    1  0.3622165E-015  0.9000783E+02  0.7816164E-02  0.1186339E+00
        -11   -1    0    0    0    0  0.00000000000E+00  0.00000000000E+00  0.45593999997E+02  0.45594000000E+02  0.51100000000E-03 0.  1.
         11   -1    0    0    0    0 -0.00000000000E+00 -0.00000000000E+00 -0.45593999997E+02  0.45594000000E+02  0.51100000000E-03 0. -1.
    9900012    2    1    2    0    0  0.46426037606E+00  0.96145859396E+00 -0.50284646487E+00  0.90007832685E+02  0.90000095276E+02 0.  0.
        -12    1    1    2    0    0 -0.46426037606E+00 -0.96145859396E+00  0.50284646487E+00  0.11801673152E+01  0.00000000000E+00 0.  1.
         11    1    3    3    0    0 -0.22111334733E+02 -0.84735077622E+01 -0.53662358479E+01  0.24279784697E+02  0.51100000000E-03 0. -1.
        -11    1    3    3    0    0  0.70236943266E+01 -0.13693460339E+02  0.26364433263E+02  0.30527470901E+02  0.51100000000E-03 0.  1.
         12    1    3    3    0    0  0.15551900783E+02  0.23128426695E+02 -0.21501043880E+02  0.35200577087E+02  0.00000000000E+00 0. -1.
</event>
<event>
 7    1  0.3622165E-015  0.9000773E+02  0.7816164E-02  0.1186339E+00
        -11   -1    0    0    0    0  0.00000000000E+00  0.00000000000E+00  0.45593999997E+02  0.45594000000E+02  0.51100000000E-03 0. -1.
         11   -1    0    0    0    0 -0.00000000000E+00 -0.00000000000E+00 -0.45593999997E+02  0.45594000000E+02  0.51100000000E-03 0.  1.
    9900012    2    1    2    0    0  0.71317877375E+00  0.93974957866E-01  0.93572544767E+00  0.90007729959E+02  0.89999991195E+02 0.  0.
        -12    1    1    2    0    0 -0.71317877375E+00 -0.93974957866E-01 -0.93572544767E+00  0.11802700409E+01  0.00000000000E+00 0.  1.
         11    1    3    3    0    0 -0.87083969159E+01  0.23990604346E+01 -0.27956516608E-01  0.90328539035E+01  0.51100000000E-03 0. -1.
        -11    1    3    3    0    0 -0.35714579181E+02 -0.15498038413E+01 -0.13441263396E+01  0.35773450126E+02  0.51100000000E-03 0.  1.
         12    1    3    3    0    0  0.45136154871E+02 -0.75528163549E+00  0.23078083038E+01  0.45201425929E+02  0.00000000000E+00 0. -1.
</event>
<event>
 7    1  0.3622165E-015  0.9000767E+02  0.7816164E-02  0.1186339E+00
        -11   -1    0    0    0    0  0.00000000000E+00  0.00000000000E+00  0.45593999997E+02  0.45594000000E+02  0.51100000000E-03 0.  1.
         11   -1    0    0    0    0 -0.00000000000E+00 -0.00000000000E+00 -0.45593999997E+02  0.45594000000E+02  0.51100000000E-03 0. -1.
    9900012    2    1    2    0    0 -0.11356546186E+01 -0.87232406968E-01  0.30962076662E+00  0.90007667028E+02  0.89999927433E+02 0.  0.
        -12    1    1    2    0    0  0.11356546186E+01  0.87232406968E-01 -0.30962076662E+00  0.11803329720E+01  0.00000000000E+00 0.  1.
         11    1    3    3    0    0  0.23329434753E+02 -0.26407086057E+02  0.53989516071E+01  0.35647516023E+02  0.51100000000E-03 0. -1.
        -11    1    3    3    0    0  0.46009413799E+01 -0.74666442177E+01  0.25678065664E+01  0.91385484777E+01  0.51100000000E-03 0.  1.
        -12    1    3    3    0    0 -0.29066030751E+02  0.33786497868E+02 -0.76571374069E+01  0.45221602527E+02  0.00000000000E+00 0.  1.
</event>
<event>
 7    1  0.3622165E-015  0.9000774E+02  0.7816164E-02  0.1186339E+00
        -11   -1    0    0    0    0  0.00000000000E+00  0.00000000000E+00  0.45593999997E+02  0.45594000000E+02  0.51100000000E-03 0.  1.
         11   -1    0    0    0    0 -0.00000000000E+00 -0.00000000000E+00 -0.45593999997E+02  0.45594000000E+02  0.51100000000E-03 0. -1.
    9900012    2    1    2    0    0 -0.90833619050E+00  0.68126863098E+00  0.32219619061E+00  0.90007740720E+02  0.90000002098E+02 0.  0.
        -12    1    1    2    0    0  0.90833619050E+00 -0.68126863098E+00 -0.32219619061E+00  0.11802592799E+01  0.00000000000E+00 0.  1.
         11    1    3    3    0    0  0.11049858866E+02  0.20363526449E+02  0.26554706412E+02  0.35240956617E+02  0.51100000000E-03 0. -1.
        -11    1    3    3    0    0  0.34315401604E+01  0.56376415238E+01  0.74189538407E+01  0.99297203473E+01  0.51100000000E-03 0.  1.
        -12    1    3    3    0    0 -0.15389735216E+02 -0.25319899341E+02 -0.33651464063E+02  0.44837063756E+02  0.00000000000E+00 0.  1.
</event>
<event>
 7    1  0.3622165E-015  0.9000855E+02  0.7816164E-02  0.1186337E+00
        -11   -1    0    0    0    0  0.00000000000E+00  0.00000000000E+00  0.45593999997E+02  0.45594000000E+02  0.51100000000E-03 0. -1.
         11   -1    0    0    0    0 -0.00000000000E+00 -0.00000000000E+00 -0.45593999997E+02  0.45594000000E+02  0.51100000000E-03 0.  1.
    9900012    2    1    2    0    0  0.20899193569E+00  0.52642009589E+00  0.10345570165E+01  0.90008549294E+02  0.90000821341E+02 0.  0.
        -12    1    1    2    0    0 -0.20899193569E+00 -0.52642009589E+00 -0.10345570165E+01  0.11794507056E+01  0.00000000000E+00 0.  1.
         11    1    3    3    0    0  0.22215661048E+02  0.94758281589E+01  0.10590780501E+02  0.26372173725E+02  0.51100000000E-03 0. -1.
        -11    1    3    3    0    0  0.17930103028E+02 -0.13828143990E+02 -0.45056796725E+01  0.23086951085E+02  0.51100000000E-03 0.  1.
        -12    1    3    3    0    0 -0.39936772140E+02  0.48787359274E+01 -0.50505438121E+01  0.40549424485E+02  0.00000000000E+00 0.  1.
</event>
<event>
 7    1  0.3622165E-015  0.9000780E+02  0.7816164E-02  0.1186339E+00
        -11   -1    0    0    0    0  0.00000000000E+00  0.00000000000E+00  0.45593999997E+02  0.45594000000E+02  0.51100000000E-03 0. -1.
         11   -1    0    0    0    0 -0.00000000000E+00 -0.00000000000E+00 -0.45593999997E+02  0.45594000000E+02  0.51100000000E-03 0.  1.
    9900012    2    1    2    0    0 -0.10489449887E+01  0.37752087235E+00  0.38738437704E+00  0.90007799062E+02  0.90000061210E+02 0.  0.
        -12    1    1    2    0    0  0.10489449887E+01 -0.37752087235E+00 -0.38738437704E+00  0.11802009379E+01  0.00000000000E+00 0.  1.
         11    1    3    3    0    0 -0.38334591776E+01  0.14250163635E+02 -0.35215526254E+01  0.15171153748E+02  0.51100000000E-03 0. -1.
        -11    1    3    3    0    0  0.24922992030E+01  0.43307031855E+01 -0.33162097997E+02  0.33536417358E+02  0.51100000000E-03 0.  1.
         12    1    3    3    0    0  0.29221498601E+00 -0.18203345948E+02  0.37071034999E+02  0.41300227956E+02  0.00000000000E+00 0. -1.
</event>
<event>
 7    1  0.3622165E-015  0.9000774E+02  0.7816164E-02  0.1186339E+00
        -11   -1    0    0    0    0  0.00000000000E+00  0.00000000000E+00  0.45593999997E+02  0.45594000000E+02  0.51100000000E-03 0.  1.
         11   -1    0    0    0    0 -0.00000000000E+00 -0.00000000000E+00 -0.45593999997E+02  0.45594000000E+02  0.51100000000E-03 0. -1.
    9900012    2    1    2    0    0 -0.11556026828E+01 -0.22286553415E-01  0.23894596743E+00  0.90007741797E+02  0.90000003188E+02 0.  0.
        -12    1    1    2    0    0  0.11556026828E+01  0.22286553415E-01 -0.23894596743E+00  0.11802582032E+01  0.00000000000E+00 0.  1.
         11    1    3    3    0    0  0.15259769019E+02 -0.31390426910E+02  0.92881696230E+00  0.34915356984E+02  0.51100000000E-03 0. -1.
        -11    1    3    3    0    0  0.18786611747E+01 -0.93017273570E+01  0.39044516913E+01  0.10261395758E+02  0.51100000000E-03 0.  1.
        -12    1    3    3    0    0 -0.18294032876E+02  0.40669867713E+02 -0.45943226862E+01  0.44830989055E+02  0.00000000000E+00 0.  1.
</event>
<event>
 7    1  0.3622165E-015  0.9000774E+02  0.7816164E-02  0.1186339E+00
        -11   -1    0    0    0    0  0.00000000000E+00  0.00000000000E+00  0.45593999997E+02  0.45594000000E+02  0.51100000000E-03 0. -1.
         11   -1    0    0    0    0 -0.00000000000E+00 -0.00000000000E+00 -0.45593999997E+02  0.45594000000E+02  0.51100000000E-03 0.  1.
    9900012    2    1    2    0    0 -0.46761340703E+00  0.94976407380E+00  0.52182660209E+00  0.90007738547E+02  0.89999999896E+02 0.  0.
        -12    1    1    2    0    0  0.46761340703E+00 -0.94976407380E+00 -0.52182660209E+00  0.11802614528E+01  0.00000000000E+00 0.  1.
         11    1    3    3    0    0  0.38236094374E+01 -0.65393720941E+01 -0.69545933537E+01  0.10283469526E+02  0.51100000000E-03 0. -1.
        -11    1    3    3    0    0  0.29753568785E+02  0.25217963852E+02  0.12627027445E+02  0.40995882460E+02  0.51100000000E-03 0.  1.
         12    1    3    3    0    0 -0.34044791629E+02 -0.17728827684E+02 -0.51506074890E+01  0.38728386562E+02  0.00000000000E+00 0. -1.
</event>
<event>
 7    1  0.3622165E-015  0.9000781E+02  0.7816164E-02  0.1186339E+00
        -11   -1    0    0    0    0  0.00000000000E+00  0.00000000000E+00  0.45593999997E+02  0.45594000000E+02  0.51100000000E-03 0.  1.
         11   -1    0    0    0    0 -0.00000000000E+00 -0.00000000000E+00 -0.45593999997E+02  0.45594000000E+02  0.51100000000E-03 0. -1.
    9900012    2    1    2    0    0  0.81906681126E-01 -0.76802433607E+00 -0.89233979635E+00  0.90007813406E+02  0.90000075743E+02 0.  0.
        -12    1    1    2    0    0 -0.81906681126E-01  0.76802433607E+00  0.89233979635E+00  0.11801865943E+01  0.00000000000E+00 0.  1.
         11    1    3    3    0    0 -0.84080963146E+00  0.90479906680E+01  0.50955112022E+01  0.10418125102E+02  0.51100000000E-03 0. -1.
        -11    1    3    3    0    0 -0.25366833945E+02 -0.21629975868E+02  0.21575409504E+02  0.39709324043E+02  0.51100000000E-03 0.  1.
         12    1    3    3    0    0  0.26289550257E+02  0.11813960863E+02 -0.27563260503E+02  0.39880364261E+02  0.00000000000E+00 0. -1.
</event>
<event>
 7    1  0.3622165E-015  0.9000774E+02  0.7816164E-02  0.1186339E+00
        -11   -1    0    0    0    0  0.00000000000E+00  0.00000000000E+00  0.45593999997E+02  0.45594000000E+02  0.51100000000E-03 0. -1.
         11   -1    0    0    0    0 -0.00000000000E+00 -0.00000000000E+00 -0.45593999997E+02  0.45594000000E+02  0.51100000000E-03 0.  1.
    9900012    2    1    2    0    0 -0.36017064968E-01 -0.99844160924E+00  0.62835507290E+00  0.90007740294E+02  0.90000001666E+02 0.  0.
        -12    1    1    2    0    0  0.36017064968E-01  0.99844160924E+00 -0.62835507290E+00  0.11802597060E+01  0.00000000000E+00 0.  1.
         11    1    3    3    0    0 -0.33298544145E+02 -0.24299834858E+02 -0.10829203768E+02  0.42620965156E+02  0.51100000000E-03 0. -1.
        -11    1    3    3    0    0  0.16221515605E+01  0.16778409647E+01  0.86514173531E+01  0.89606667423E+01  0.51100000000E-03 0.  1.
        -12    1    3    3    0    0  0.31640375520E+02  0.21623552284E+02  0.28061414877E+01  0.38426108396E+02  0.00000000000E+00 0.  1.
</event>
<event>
 7    1  0.3622165E-015  0.9000778E+02  0.7816164E-02  0.1186339E+00
        -11   -1    0    0    0    0  0.00000000000E+00  0.00000000000E+00  0.45593999997E+02  0.45594000000E+02  0.51100000000E-03 0.  1.
         11   -1    0    0    0    0 -0.00000000000E+00 -0.00000000000E+00 -0.45593999997E+02  0.45594000000E+02  0.51100000000E-03 0. -1.
    9900012    2    1    2    0    0 -0.44649536216E+00 -0.87527767639E+00  0.65379618014E+00  0.90007780290E+02  0.90000042190E+02 0.  0.
        -12    1    1    2    0    0  0.44649536216E+00  0.87527767639E+00 -0.65379618014E+00  0.11802197102E+01  0.00000000000E+00 0.  1.
         11    1    3    3    0    0 -0.98643927593E+01  0.85894297328E+00  0.59954054812E+01  0.11575358080E+02  0.51100000000E-03 0. -1.
        -11    1    3    3    0    0 -0.69029890047E+01 -0.37841697730E+02 -0.51329346807E+01  0.38807117427E+02  0.51100000000E-03 0.  1.
         12    1    3    3    0    0  0.16320886402E+02  0.36107477080E+02 -0.20867462039E+00  0.39625304783E+02  0.00000000000E+00 0. -1.
</event>
<event>
 7    1  0.3622165E-015  0.9000767E+02  0.7816164E-02  0.1186339E+00
        -11   -1    0    0    0    0  0.00000000000E+00  0.00000000000E+00  0.45593999997E+02  0.45594000000E+02  0.51100000000E-03 0.  1.
         11   -1    0    0    0    0 -0.00000000000E+00 -0.00000000000E+00 -0.45593999997E+02  0.45594000000E+02  0.51100000000E-03 0. -1.
    9900012    2    1    2    0    0  0.23089555179E+00  0.11016015396E+01 -0.35543021473E+00  0.90007674051E+02  0.89999934549E+02 0.  0.
        -12    1    1    2    0    0 -0.23089555179E+00 -0.11016015396E+01  0.35543021473E+00  0.11803259488E+01  0.00000000000E+00 0.  1.
         11    1    3    3    0    0 -0.63387825409E+01 -0.17860379174E+02 -0.32948534358E+02  0.38010251577E+02  0.51100000000E-03 0. -1.
        -11    1    3    3    0    0 -0.39178976347E+01  0.28099683545E+01 -0.66907966846E+01  0.82469754799E+01  0.51100000000E-03 0.  1.
        -12    1    3    3    0    0  0.10487575727E+02  0.16152012359E+02  0.39283900828E+02  0.43750446994E+02  0.00000000000E+00 0.  1.
</event>
<event>
 7    1  0.3622165E-015  0.9000769E+02  0.7816164E-02  0.1186339E+00
        -11   -1    0    0    0    0  0.00000000000E+00  0.00000000000E+00  0.45593999997E+02  0.45594000000E+02  0.51100000000E-03 0.  1.
         11   -1    0    0    0    0 -0.00000000000E+00 -0.00000000000E+00 -0.45593999997E+02  0.45594000000E+02  0.51100000000E-03 0. -1.
    9900012    2    1    2    0    0  0.82208351647E+00  0.71462716747E+00 -0.45456585656E+00  0.90007685036E+02  0.89999945678E+02 0.  0.
        -12    1    1    2    0    0 -0.82208351647E+00 -0.71462716747E+00  0.45456585656E+00  0.11803149641E+01  0.00000000000E+00 0.  1.
         11    1    3    3    0    0  0.22971664943E+02 -0.32215666546E+02 -0.12600304922E+02  0.41524862981E+02  0.51100000000E-03 0. -1.
        -11    1    3    3    0    0 -0.50438636525E+01 -0.36954428625E+01  0.34254062742E+01  0.71295348305E+01  0.51100000000E-03 0.  1.
        -12    1    3    3    0    0 -0.17105717774E+02  0.36625736576E+02  0.87203327908E+01  0.41353287224E+02  0.00000000000E+00 0.  1.
</event>
<event>
 7    1  0.3622165E-015  0.9000778E+02  0.7816164E-02  0.1186339E+00
        -11   -1    0    0    0    0  0.00000000000E+00  0.00000000000E+00  0.45593999997E+02  0.45594000000E+02  0.51100000000E-03 0.  1.
         11   -1    0    0    0    0 -0.00000000000E+00 -0.00000000000E+00 -0.45593999997E+02  0.45594000000E+02  0.51100000000E-03 0. -1.
    9900012    2    1    2    0    0 -0.10251918501E+01 -0.34295113927E+00  0.47358889026E+00  0.90007779575E+02  0.90000041466E+02 0.  0.
        -12    1    1    2    0    0  0.10251918501E+01  0.34295113927E+00 -0.47358889026E+00  0.11802204245E+01  0.00000000000E+00 0.  1.
         11    1    3    3    0    0 -0.11628791317E+02  0.33748008977E+02 -0.13259598757E+02  0.38078522252E+02  0.51100000000E-03 0. -1.
        -11    1    3    3    0    0 -0.33778977999E+01 -0.33093867725E+01 -0.97018988439E+01  0.10793010507E+02  0.51100000000E-03 0.  1.
        -12    1    3    3    0    0  0.13981497267E+02 -0.30781573344E+02  0.23435086491E+02  0.41136246817E+02  0.00000000000E+00 0.  1.
</event>
<event>
 7    1  0.3622165E-015  0.9000775E+02  0.7816164E-02  0.1186339E+00
        -11   -1    0    0    0    0  0.00000000000E+00  0.00000000000E+00  0.45593999997E+02  0.45594000000E+02  0.51100000000E-03 0. -1.
         11   -1    0    0    0    0 -0.00000000000E+00 -0.00000000000E+00 -0.45593999997E+02  0.45594000000E+02  0.51100000000E-03 0.  1.
    9900012    2    1    2    0    0  0.71023774990E+00  0.25396393819E+00  0.90777549358E+00  0.90007749311E+02  0.90000010801E+02 0.  0.
        -12    1    1    2    0    0 -0.71023774990E+00 -0.25396393819E+00 -0.90777549358E+00  0.11802506895E+01  0.00000000000E+00 0.  1.
         11    1    3    3    0    0  0.12424237090E+02 -0.11365617757E+02  0.32181600071E+02  0.36320714719E+02  0.51100000000E-03 0. -1.
        -11    1    3    3    0    0  0.52570264554E+01 -0.29741150774E+00  0.78236376434E+01  0.94304871027E+01  0.51100000000E-03 0.  1.
        -12    1    3    3    0    0 -0.16971025795E+02  0.11916993203E+02 -0.39097462221E+02  0.44256547489E+02  0.00000000000E+00 0.  1.
</event>
<event>
 7    1  0.3622165E-015  0.9000779E+02  0.7816164E-02  0.1186339E+00
        -11   -1    0    0    0    0  0.00000000000E+00  0.00000000000E+00  0.45593999997E+02  0.45594000000E+02  0.51100000000E-03 0. -1.
         11   -1    0    0    0    0 -0.00000000000E+00 -0.00000000000E+00 -0.45593999997E+02  0.45594000000E+02  0.51100000000E-03 0.  1.
    9900012    2    1    2    0    0 -0.10939166156E+01  0.30073403818E+00  0.32525608087E+00  0.90007794068E+02  0.90000056150E+02 0.  0.
        -12    1    1    2    0    0  0.10939166156E+01 -0.30073403818E+00 -0.32525608087E+00  0.11802059319E+01  0.00000000000E+00 0.  1.
         11    1    3    3    0    0  0.31162834325E+02 -0.37026749131E+01  0.47807893376E+01  0.31744101682E+02  0.51100000000E-03 0. -1.
        -11    1    3    3    0    0  0.12600219150E+02  0.27699117950E+01  0.15333706762E+01  0.12991888233E+02  0.51100000000E-03 0.  1.
        -12    1    3    3    0    0 -0.44856970090E+02  0.12334971563E+01 -0.59889039329E+01  0.45271804152E+02  0.00000000000E+00 0.  1.
</event>
<event>
 7    1  0.3622165E-015  0.9000772E+02  0.7816164E-02  0.1186339E+00
        -11   -1    0    0    0    0  0.00000000000E+00  0.00000000000E+00  0.45593999997E+02  0.45594000000E+02  0.51100000000E-03 0. -1.
         11   -1    0    0    0    0 -0.00000000000E+00 -0.00000000000E+00 -0.45593999997E+02  0.45594000000E+02  0.51100000000E-03 0.  1.
    9900012    2    1    2    0    0  0.83779499992E+00  0.29352074761E+00  0.77781700821E+00  0.90007722834E+02  0.89999983975E+02 0.  0.
        -12    1    1    2    0    0 -0.83779499992E+00 -0.29352074761E+00 -0.77781700821E+00  0.11802771664E+01  0.00000000000E+00 0.  1.
         11    1    3    3    0    0 -0.62152732075E+00  0.69023140019E+01  0.74299520590E+01  0.10160335755E+02  0.51100000000E-03 0. -1.
        -11    1    3    3    0    0  0.39781112140E+01  0.23875368962E+02  0.25714310761E+02  0.35314082036E+02  0.51100000000E-03 0.  1.
         12    1    3    3    0    0 -0.25187888933E+01 -0.30484162216E+02 -0.32366445812E+02  0.44533305042E+02  0.00000000000E+00 0. -1.
</event>
<event>
 7    1  0.3622165E-015  0.9000775E+02  0.7816164E-02  0.1186339E+00
        -11   -1    0    0    0    0  0.00000000000E+00  0.00000000000E+00  0.45593999997E+02  0.45594000000E+02  0.51100000000E-03 0. -1.
         11   -1    0    0    0    0 -0.00000000000E+00 -0.00000000000E+00 -0.45593999997E+02  0.45594000000E+02  0.51100000000E-03 0.  1.
    9900012    2    1    2    0    0 -0.38470508010E+00 -0.28791647035E-02  0.11157850907E+01  0.90007753137E+02  0.90000014679E+02 0.  0.
        -12    1    1    2    0    0  0.38470508010E+00  0.28791647035E-02 -0.11157850907E+01  0.11802468627E+01  0.00000000000E+00 0.  1.
         11    1    3    3    0    0 -0.39710335394E+01  0.49125490201E+01  0.16707314462E+00  0.63190314877E+01  0.51100000000E-03 0. -1.
        -11    1    3    3    0    0 -0.18249130690E+01 -0.11526918213E+02 -0.40098240081E+02  0.41762052261E+02  0.51100000000E-03 0.  1.
         12    1    3    3    0    0  0.54112415282E+01  0.66114900283E+01  0.41046952027E+02  0.41926669388E+02  0.00000000000E+00 0. -1.
</event>
<event>
 7    1  0.3622165E-015  0.9000776E+02  0.7816164E-02  0.1186339E+00
        -11   -1    0    0    0    0  0.00000000000E+00  0.00000000000E+00  0.45593999997E+02  0.45594000000E+02  0.51100000000E-03 0.  1.
         11   -1    0    0    0    0 -0.00000000000E+00 -0.00000000000E+00 -0.45593999997E+02  0.45594000000E+02  0.51100000000E-03 0. -1.
    9900012    2    1    2    0    0 -0.72835520197E+00  0.57761101738E+00 -0.72719990539E+00  0.90007764646E+02  0.90000026340E+02 0.  0.
        -12    1    1    2    0    0  0.72835520197E+00 -0.57761101738E+00  0.72719990539E+00  0.11802353537E+01  0.00000000000E+00 0.  1.
         11    1    3    3    0    0  0.33871155110E+01 -0.78717087682E+01 -0.40529707109E+01  0.94796055962E+01  0.51100000000E-03 0. -1.
        -11    1    3    3    0    0 -0.27108345345E+02  0.85886908398E+01  0.32628564893E+02  0.43281072594E+02  0.51100000000E-03 0.  1.
         12    1    3    3    0    0  0.22992874632E+02 -0.13937105422E+00 -0.29302794087E+02  0.37247086456E+02  0.00000000000E+00 0. -1.
</event>
<event>
 7    1  0.3622165E-015  0.9000774E+02  0.7816164E-02  0.1186339E+00
        -11   -1    0    0    0    0  0.00000000000E+00  0.00000000000E+00  0.45593999997E+02  0.45594000000E+02  0.51100000000E-03 0.  1.
         11   -1    0    0    0    0 -0.00000000000E+00 -0.00000000000E+00 -0.45593999997E+02  0.45594000000E+02  0.51100000000E-03 0. -1.
    9900012    2    1    2    0    0  0.30775533556E+00 -0.10783293326E+01 -0.36812032248E+00  0.90007737289E+02  0.89999998621E+02 0.  0.
        -12    1    1    2    0    0 -0.30775533556E+00  0.10783293326E+01  0.36812032248E+00  0.11802627114E+01  0.00000000000E+00 0.  1.
         11    1    3    3    0    0  0.37058871407E+02  0.93777309390E+01  0.10960626929E+02  0.39767287190E+02  0.51100000000E-03 0. -1.
        -11    1    3    3    0    0  0.17835928828E+01 -0.93009918226E+01  0.15451975472E+01  0.95956911255E+01  0.51100000000E-03 0.  1.
        -12    1    3    3    0    0 -0.38534708954E+02 -0.11550684490E+01 -0.12873944798E+02  0.40644758973E+02  0.00000000000E+00 0.  1.
</event>
<event>
 7    1  0.3622165E-015  0.9000782E+02  0.7816164E-02  0.1186339E+00
        -11   -1    0    0    0    0  0.00000000000E+00  0.00000000000E+00  0.45593999997E+02  0.45594000000E+02  0.51100000000E-03 0. -1.
         11   -1    0    0    0    0 -0.00000000000E+00 -0.00000000000E+00 -0.45593999997E+02  0.45594000000E+02  0.51100000000E-03 0.  1.
    9900012    2    1    2    0    0  0.28315450514E+00  0.27118616468E+00  0.11131560380E+01  0.90007815788E+02  0.90000078156E+02 0.  0.
        -12    1    1    2    0    0 -0.28315450514E+00 -0.27118616468E+00 -0.11131560380E+01  0.11801842122E+01  0.00000000000E+00 0.  1.
         11    1    3    3    0    0 -0.84556691422E+01 -0.67262718563E+01 -0.28942291204E+01  0.11185599501E+02  0.51100000000E-03 0. -1.
        -11    1    3    3    0    0 -0.74446838407E+01  0.18784231363E+02 -0.31870694117E+02  0.37736080999E+02  0.51100000000E-03 0.  1.
         12    1    3    3    0    0  0.16183507488E+02 -0.11786773342E+02  0.35878079275E+02  0.41086135288E+02  0.00000000000E+00 0. -1.
</event>
<event>
 7    1  0.3622165E-015  0.9000771E+02  0.7816164E-02  0.1186339E+00
        -11   -1    0    0    0    0  0.00000000000E+00  0.00000000000E+00  0.45593999997E+02  0.45594000000E+02  0.51100000000E-03 0.  1.
         11   -1    0    0    0    0 -0.00000000000E+00 -0.00000000000E+00 -0.45593999997E+02  0.45594000000E+02  0.51100000000E-03 0. -1.
    9900012    2    1    2    0    0  0.10422700129E+01 -0.15451488120E+00  0.53187656435E+00  0.90007705838E+02  0.89999966755E+02 0.  0.
        -12    1    1    2    0    0 -0.10422700129E+01  0.15451488120E+00 -0.53187656435E+00  0.11802941616E+01  0.00000000000E+00 0.  1.
         11    1    3    3    0    0  0.15902092004E+01 -0.18449639065E+01  0.69701600821E+01  0.73834808152E+01  0.51100000000E-03 0. -1.
        -11    1    3    3    0    0  0.21176531923E+02  0.74546601650E+01  0.31408132683E+02  0.38606842157E+02  0.51100000000E-03 0.  1.
         12    1    3    3    0    0 -0.21724471110E+02 -0.57642111397E+01 -0.37846416201E+02  0.44017382866E+02  0.00000000000E+00 0. -1.
</event>
<event>
 7    1  0.3622165E-015  0.9000769E+02  0.7816164E-02  0.1186339E+00
        -11   -1    0    0    0    0  0.00000000000E+00  0.00000000000E+00  0.45593999997E+02  0.45594000000E+02  0.51100000000E-03 0.  1.
         11   -1    0    0    0    0 -0.00000000000E+00 -0.00000000000E+00 -0.45593999997E+02  0.45594000000E+02  0.51100000000E-03 0. -1.
    9900012    2    1    2    0    0  0.90760959064E+00 -0.34529010481E+00 -0.67093500250E+00  0.90007688938E+02  0.89999949632E+02 0.  0.
        -12    1    1    2    0    0 -0.90760959064E+00  0.34529010481E+00  0.67093500250E+00  0.11803110620E+01  0.00000000000E+00 0.  1.
         11    1    3    3    0    0  0.60225783370E+01  0.11160824108E+02 -0.12281821684E+00  0.12682686197E+02  0.51100000000E-03 0. -1.
        -11    1    3    3    0    0 -0.25181325688E+02 -0.11026265794E+01  0.30089704660E+02  0.39251818755E+02  0.51100000000E-03 0.  1.
         12    1    3    3    0    0  0.20066356942E+02 -0.10403487634E+02 -0.30637821446E+02  0.38073183986E+02  0.00000000000E+00 0. -1.
</event>
<event>
 7    1  0.3622165E-015  0.9000776E+02  0.7816164E-02  0.1186339E+00
        -11   -1    0    0    0    0  0.00000000000E+00  0.00000000000E+00  0.45593999997E+02  0.45594000000E+02  0.51100000000E-03 0. -1.
         11   -1    0    0    0    0 -0.00000000000E+00 -0.00000000000E+00 -0.45593999997E+02  0.45594000000E+02  0.51100000000E-03 0.  1.
    9900012    2    1    2    0    0  0.93604469463E+00  0.69600257425E+00  0.17991880650E+00  0.90007758486E+02  0.90000020098E+02 0.  0.
        -12    1    1    2    0    0 -0.93604469463E+00 -0.69600257425E+00 -0.17991880650E+00  0.11802415137E+01  0.00000000000E+00 0.  1.
         11    1    3    3    0    0  0.97179245491E+01 -0.33200110232E+02  0.16892469554E+02  0.38497284383E+02  0.51100000000E-03 0. -1.
        -11    1    3    3    0    0 -0.28301594403E+01 -0.66755517459E+01 -0.51889072063E+01  0.89161399623E+01  0.51100000000E-03 0.  1.
        -12    1    3    3    0    0 -0.59517204141E+01  0.40571664552E+02 -0.11523643541E+02  0.42594334141E+02  0.00000000000E+00 0.  1.
</event>
<event>
 7    1  0.3622165E-015  0.9000774E+02  0.7816164E-02  0.1186339E+00
        -11   -1    0    0    0    0  0.00000000000E+00  0.00000000000E+00  0.45593999997E+02  0.45594000000E+02  0.51100000000E-03 0.  1.
         11   -1    0    0    0    0 -0.00000000000E+00 -0.00000000000E+00 -0.45593999997E+02  0.45594000000E+02  0.51100000000E-03 0. -1.
    9900012    2    1    2    0    0  0.26100797643E+00 -0.22226441206E+00 -0.11293759901E+01  0.90007738690E+02  0.90000000041E+02 0.  0.
        -12    1    1    2    0    0 -0.26100797643E+00  0.22226441206E+00  0.11293759901E+01  0.11802613099E+01  0.00000000000E+00 0.  1.
         11    1    3    3    0    0 -0.13661339826E+02  0.30298134582E+02 -0.74524839788E+01  0.34060955400E+02  0.51100000000E-03 0. -1.
        -11    1    3    3    0    0 -0.18354323397E+01  0.98356803515E+01 -0.49754324862E+01  0.11174271723E+02  0.51100000000E-03 0.  1.
        -12    1    3    3    0    0  0.15757780142E+02 -0.40356079346E+02  0.11298540475E+02  0.44772511567E+02  0.00000000000E+00 0.  1.
</event>
<event>
 7    1  0.3622165E-015  0.9000769E+02  0.7816164E-02  0.1186339E+00
        -11   -1    0    0    0    0  0.00000000000E+00  0.00000000000E+00  0.45593999997E+02  0.45594000000E+02  0.51100000000E-03 0. -1.
         11   -1    0    0    0    0 -0.00000000000E+00 -0.00000000000E+00 -0.45593999997E+02  0.45594000000E+02  0.51100000000E-03 0.  1.
    9900012    2    1    2    0    0  0.96805048705E+00 -0.63304322845E+00 -0.23507134918E+00  0.90007693254E+02  0.89999954005E+02 0.  0.
        -12    1    1    2    0    0 -0.96805048705E+00  0.63304322845E+00  0.23507134918E+00  0.11803067456E+01  0.00000000000E+00 0.  1.
         11    1    3    3    0    0 -0.15357622458E+01  0.28302755627E-02 -0.20599312921E+02  0.20656482440E+02  0.51100000000E-03 0. -1.
        -11    1    3    3    0    0 -0.31342009139E+02  0.81460218259E+00  0.36161535306E+01  0.31560444867E+02  0.51100000000E-03 0.  1.
         12    1    3    3    0    0  0.33845821872E+02 -0.14504756866E+01  0.16748088042E+02  0.37790765948E+02  0.00000000000E+00 0. -1.
</event>
<event>
 7    1  0.3622165E-015  0.9000801E+02  0.7816164E-02  0.1186338E+00
        -11   -1    0    0    0    0  0.00000000000E+00  0.00000000000E+00  0.45593999997E+02  0.45594000000E+02  0.51100000000E-03 0. -1.
         11   -1    0    0    0    0 -0.00000000000E+00 -0.00000000000E+00 -0.45593999997E+02  0.45594000000E+02  0.51100000000E-03 0.  1.
    9900012    2    1    2    0    0  0.36955791462E+00 -0.11155070025E+01  0.10694868953E+00  0.90008014006E+02  0.90000278990E+02 0.  0.
        -12    1    1    2    0    0 -0.36955791462E+00  0.11155070025E+01 -0.10694868953E+00  0.11799859945E+01  0.00000000000E+00 0.  1.
         11    1    3    3    0    0 -0.34969028161E+01  0.21775215429E+01  0.79314693627E+01  0.89374569028E+01  0.51100000000E-03 0. -1.
        -11    1    3    3    0    0  0.54865562656E+01 -0.40070139451E+02 -0.15770483641E+02  0.43409981914E+02  0.51100000000E-03 0.  1.
         12    1    3    3    0    0 -0.16200955348E+01  0.36777110905E+02  0.79459629676E+01  0.37660575189E+02  0.00000000000E+00 0. -1.
</event>
<event>
 7    1  0.3622165E-015  0.9000850E+02  0.7816164E-02  0.1186338E+00
        -11   -1    0    0    0    0  0.00000000000E+00  0.00000000000E+00  0.45593999997E+02  0.45594000000E+02  0.51100000000E-03 0.  1.
         11   -1    0    0    0    0 -0.00000000000E+00 -0.00000000000E+00 -0.45593999997E+02  0.45594000000E+02  0.51100000000E-03 0. -1.
    9900012    2    1    2    0    0  0.29212035180E-01 -0.11688599066E+01 -0.15535239704E+00  0.90008499601E+02  0.90000770992E+02 0.  0.
        -12    1    1    2    0    0 -0.29212035180E-01  0.11688599066E+01  0.15535239704E+00  0.11795003991E+01  0.00000000000E+00 0.  1.
         11    1    3    3    0    0 -0.25346815676E+02  0.96832685723E+01  0.22188557762E+02  0.35050803857E+02  0.51100000000E-03 0. -1.
        -11    1    3    3    0    0  0.40182677767E+01  0.86292518906E+01  0.84446259863E+01  0.12724864338E+02  0.51100000000E-03 0.  1.
         12    1    3    3    0    0  0.21357759935E+02 -0.19481380370E+02 -0.30788536146E+02  0.42232831406E+02  0.00000000000E+00 0. -1.
</event>
<event>
 7    1  0.3622165E-015  0.9000767E+02  0.7816164E-02  0.1186339E+00
        -11   -1    0    0    0    0  0.00000000000E+00  0.00000000000E+00  0.45593999997E+02  0.45594000000E+02  0.51100000000E-03 0. -1.
         11   -1    0    0    0    0 -0.00000000000E+00 -0.00000000000E+00 -0.45593999997E+02  0.45594000000E+02  0.51100000000E-03 0.  1.
    9900012    2    1    2    0    0  0.63767768123E+00  0.52297389501E+00  0.84441357826E+00  0.90007674278E+02  0.89999934778E+02 0.  0.
        -12    1    1    2    0    0 -0.63767768123E+00 -0.52297389501E+00 -0.84441357826E+00  0.11803257225E+01  0.00000000000E+00 0.  1.
         11    1    3    3    0    0 -0.17597920638E+02  0.41151216399E+00  0.50879127702E+01  0.18323291453E+02  0.51100000000E-03 0. -1.
        -11    1    3    3    0    0 -0.16778994863E+02 -0.70944770545E+01 -0.24550301980E+02  0.30570960090E+02  0.51100000000E-03 0.  1.
         12    1    3    3    0    0  0.35014593182E+02  0.72059387855E+01  0.20306802788E+02  0.41113422734E+02  0.00000000000E+00 0. -1.
</event>
<event>
 7    1  0.3622165E-015  0.9000773E+02  0.7816164E-02  0.1186339E+00
        -11   -1    0    0    0    0  0.00000000000E+00  0.00000000000E+00  0.45593999997E+02  0.45594000000E+02  0.51100000000E-03 0.  1.
         11   -1    0    0    0    0 -0.00000000000E+00 -0.00000000000E+00 -0.45593999997E+02  0.45594000000E+02  0.51100000000E-03 0. -1.
    9900012    2    1    2    0    0 -0.11318840908E+01 -0.10201975475E-01  0.33431383989E+00  0.90007732480E+02  0.89999993749E+02 0.  0.
        -12    1    1    2    0    0  0.11318840908E+01  0.10201975475E-01 -0.33431383989E+00  0.11802675201E+01  0.00000000000E+00 0.  1.
         11    1    3    3    0    0 -0.26019976140E+00 -0.32544758493E+02 -0.10159065568E+02  0.34094510155E+02  0.51100000000E-03 0. -1.
        -11    1    3    3    0    0  0.11185050924E+02 -0.36144692675E+01 -0.73211851109E+01  0.13848086653E+02  0.51100000000E-03 0.  1.
        -12    1    3    3    0    0 -0.12056735253E+02  0.36149025785E+02  0.17814564518E+02  0.42065135672E+02  0.00000000000E+00 0.  1.
</event>
<event>
 7    1  0.3622165E-015  0.9000772E+02  0.7816164E-02  0.1186339E+00
        -11   -1    0    0    0    0  0.00000000000E+00  0.00000000000E+00  0.45593999997E+02  0.45594000000E+02  0.51100000000E-03 0.  1.
         11   -1    0    0    0    0 -0.00000000000E+00 -0.00000000000E+00 -0.45593999997E+02  0.45594000000E+02  0.51100000000E-03 0. -1.
    9900012    2    1    2    0    0 -0.45760925014E+00  0.10397855523E+01 -0.32016896496E+00  0.90007716819E+02  0.89999977881E+02 0.  0.
        -12    1    1    2    0    0  0.45760925014E+00 -0.10397855523E+01  0.32016896496E+00  0.11802831807E+01  0.00000000000E+00 0.  1.
         11    1    3    3    0    0  0.51345949866E+01  0.66620107596E+01  0.61989585464E+00  0.84339032582E+01  0.51100000000E-03 0. -1.
        -11    1    3    3    0    0 -0.12590796571E+02  0.66760011039E+01  0.37764348389E+02  0.40363884334E+02  0.51100000000E-03 0.  1.
         12    1    3    3    0    0  0.69985923346E+01 -0.12298226311E+02 -0.38704413209E+02  0.41209929227E+02  0.00000000000E+00 0. -1.
</event>
<event>
 7    1  0.3622165E-015  0.9000771E+02  0.7816164E-02  0.1186339E+00
        -11   -1    0    0    0    0  0.00000000000E+00  0.00000000000E+00  0.45593999997E+02  0.45594000000E+02  0.51100000000E-03 0.  1.
         11   -1    0    0    0    0 -0.00000000000E+00 -0.00000000000E+00 -0.45593999997E+02  0.45594000000E+02  0.51100000000E-03 0. -1.
    9900012    2    1    2    0    0 -0.25458067182E+00  0.27069116474E+00 -0.11202687100E+01  0.90007708931E+02  0.89999969889E+02 0.  0.
        -12    1    1    2    0    0  0.25458067182E+00 -0.27069116474E+00  0.11202687100E+01  0.11802910690E+01  0.00000000000E+00 0.  1.
         11    1    3    3    0    0  0.24546749893E+01  0.24333625022E+01  0.10930545382E+02  0.11464009115E+02  0.51100000000E-03 0. -1.
        -11    1    3    3    0    0 -0.14893363963E+00  0.30619042459E+02  0.16689267521E+02  0.34872332772E+02  0.51100000000E-03 0.  1.
         12    1    3    3    0    0 -0.25603220215E+01 -0.32781713797E+02 -0.28740081613E+02  0.43671367043E+02  0.00000000000E+00 0. -1.
</event>
<event>
 7    1  0.3622165E-015  0.9000762E+02  0.7816164E-02  0.1186339E+00
        -11   -1    0    0    0    0  0.00000000000E+00  0.00000000000E+00  0.45593999997E+02  0.45594000000E+02  0.51100000000E-03 0. -1.
         11   -1    0    0    0    0 -0.00000000000E+00 -0.00000000000E+00 -0.45593999997E+02  0.45594000000E+02  0.51100000000E-03 0.  1.
    9900012    2    1    2    0    0 -0.67109822860E-01  0.61617076116E+00  0.10045539931E+01  0.90007619188E+02  0.89999878962E+02 0.  0.
        -12    1    1    2    0    0  0.67109822860E-01 -0.61617076116E+00 -0.10045539931E+01  0.11803808116E+01  0.00000000000E+00 0.  1.
         11    1    3    3    0    0  0.20552055439E+02 -0.69756625930E+01  0.28004889921E+02  0.35430505375E+02  0.51100000000E-03 0. -1.
        -11    1    3    3    0    0  0.64262301088E+01 -0.37374486841E+01  0.66283463866E+01  0.99599162727E+01  0.51100000000E-03 0.  1.
        -12    1    3    3    0    0 -0.27045395370E+02  0.11329282038E+02 -0.33628682314E+02  0.44617197541E+02  0.00000000000E+00 0.  1.
</event>
<event>
 7    1  0.3622165E-015  0.9000773E+02  0.7816164E-02  0.1186339E+00
        -11   -1    0    0    0    0  0.00000000000E+00  0.00000000000E+00  0.45593999997E+02  0.45594000000E+02  0.51100000000E-03 0.  1.
         11   -1    0    0    0    0 -0.00000000000E+00 -0.00000000000E+00 -0.45593999997E+02  0.45594000000E+02  0.51100000000E-03 0. -1.
    9900012    2    1    2    0    0 -0.10472818761E+01 -0.40828938673E+00 -0.35990376509E+00  0.90007732966E+02  0.89999994241E+02 0.  0.
        -12    1    1    2    0    0  0.10472818761E+01  0.40828938673E+00  0.35990376509E+00  0.11802670339E+01  0.00000000000E+00 0.  1.
         11    1    3    3    0    0  0.50239315401E+01 -0.40539475072E+01 -0.38800218852E+00  0.64672192224E+01  0.51100000000E-03 0. -1.
        -11    1    3    3    0    0 -0.11948684128E+02  0.31516916146E+02  0.27850154830E+02  0.43723199563E+02  0.51100000000E-03 0.  1.
         12    1    3    3    0    0  0.58774707114E+01 -0.27871258026E+02 -0.27822056406E+02  0.39817314181E+02  0.00000000000E+00 0. -1.
</event>
<event>
 7    1  0.3622165E-015  0.9000779E+02  0.7816164E-02  0.1186339E+00
        -11   -1    0    0    0    0  0.00000000000E+00  0.00000000000E+00  0.45593999997E+02  0.45594000000E+02  0.51100000000E-03 0.  1.
         11   -1    0    0    0    0 -0.00000000000E+00 -0.00000000000E+00 -0.45593999997E+02  0.45594000000E+02  0.51100000000E-03 0. -1.
    9900012    2    1    2    0    0  0.27086883054E+00 -0.11432827118E+01  0.11148696008E+00  0.90007790432E+02  0.90000052466E+02 0.  0.
        -12    1    1    2    0    0 -0.27086883054E+00  0.11432827118E+01 -0.11148696008E+00  0.11802095682E+01  0.00000000000E+00 0.  1.
         11    1    3    3    0    0  0.10543836209E+02 -0.35223524009E+02 -0.21570463770E+02  0.42628089720E+02  0.51100000000E-03 0. -1.
        -11    1    3    3    0    0  0.17427538562E+00  0.96221587541E+01 -0.39871070910E+01  0.10416973371E+02  0.51100000000E-03 0.  1.
        -12    1    3    3    0    0 -0.10447242764E+02  0.24458082543E+02  0.25669057822E+02  0.36962727341E+02  0.00000000000E+00 0.  1.
</event>
<event>
 7    1  0.3622165E-015  0.9000775E+02  0.7816164E-02  0.1186339E+00
        -11   -1    0    0    0    0  0.00000000000E+00  0.00000000000E+00  0.45593999997E+02  0.45594000000E+02  0.51100000000E-03 0. -1.
         11   -1    0    0    0    0 -0.00000000000E+00 -0.00000000000E+00 -0.45593999997E+02  0.45594000000E+02  0.51100000000E-03 0.  1.
    9900012    2    1    2    0    0 -0.13803966208E+00 -0.11413183882E+01 -0.26706307973E+00  0.90007752018E+02  0.90000013544E+02 0.  0.
        -12    1    1    2    0    0  0.13803966208E+00  0.11413183882E+01  0.26706307973E+00  0.11802479825E+01  0.00000000000E+00 0.  1.
         11    1    3    3    0    0  0.13036105724E+02 -0.38146295417E+02  0.12642055438E+02  0.42248094305E+02  0.51100000000E-03 0. -1.
        -11    1    3    3    0    0 -0.83150159100E+01 -0.33098359724E+00 -0.27125707010E+01  0.87525470461E+01  0.51100000000E-03 0.  1.
        -12    1    3    3    0    0 -0.48591294758E+01  0.37335960626E+02 -0.10196547816E+02  0.39007110666E+02  0.00000000000E+00 0.  1.
</event>
<event>
 7    1  0.3622165E-015  0.9000776E+02  0.7816164E-02  0.1186339E+00
        -11   -1    0    0    0    0  0.00000000000E+00  0.00000000000E+00  0.45593999997E+02  0.45594000000E+02  0.51100000000E-03 0.  1.
         11   -1    0    0    0    0 -0.00000000000E+00 -0.00000000000E+00 -0.45593999997E+02  0.45594000000E+02  0.51100000000E-03 0. -1.
    9900012    2    1    2    0    0 -0.80699024735E+00 -0.20833099200E+00 -0.83565815843E+00  0.90007762897E+02  0.90000024567E+02 0.  0.
        -12    1    1    2    0    0  0.80699024735E+00  0.20833099200E+00  0.83565815843E+00  0.11802371030E+01  0.00000000000E+00 0.  1.
         11    1    3    3    0    0  0.77610377361E+00  0.85259195035E+01 -0.38856465856E+00  0.85699838508E+01  0.51100000000E-03 0. -1.
        -11    1    3    3    0    0 -0.11575485660E+02  0.32542916868E+02 -0.13382331277E+02  0.37042139479E+02  0.51100000000E-03 0.  1.
         12    1    3    3    0    0  0.99923916395E+01 -0.41277167363E+02  0.12935237777E+02  0.44395639567E+02  0.00000000000E+00 0. -1.
</event>
<event>
 8    1  0.3622165E-015  0.9000661E+02  0.7816164E-02  0.1186341E+00
        -11   -1    0    0    0    0  0.00000000000E+00  0.00000000000E+00  0.45593999997E+02  0.45594000000E+02  0.51100000000E-03 0.  1.
         11   -1    0    0    0    0 -0.00000000000E+00 -0.00000000000E+00 -0.45593999997E+02  0.45594000000E+02  0.51100000000E-03 0. -1.
    9900012    2    1    2    0    0  0.75664098430E+00  0.46769054417E+00 -0.77745919024E+00  0.90006609795E+02  0.89998856237E+02 0.  0.
         23    2    3    3    0    0  0.17287510104E+02 -0.86091189864E+01  0.20818885976E+02  0.61335017065E+02  0.54365277244E+02 0.  0.
        -12    1    1    2    0    0 -0.75664098430E+00 -0.46769054417E+00  0.77745919024E+00  0.11813902051E+01  0.00000000000E+00 0.  1.
         11    1    4    4    0    0  0.25390132210E+02 -0.10392024959E+01 -0.10962195594E+02  0.27675051725E+02  0.51100000000E-03 0. -1.
        -11    1    4    4    0    0 -0.81026221064E+01 -0.75699164905E+01  0.31781081570E+02  0.33659965340E+02  0.51100000000E-03 0.  1.
         12    1    3    3    0    0 -0.16530869120E+02  0.90768095306E+01 -0.21596345166E+02  0.28671592730E+02  0.00000000000E+00 0. -1.
</event>
<event>
 7    1  0.3622165E-015  0.9000742E+02  0.7816164E-02  0.1186340E+00
        -11   -1    0    0    0    0  0.00000000000E+00  0.00000000000E+00  0.45593999997E+02  0.45594000000E+02  0.51100000000E-03 0.  1.
         11   -1    0    0    0    0 -0.00000000000E+00 -0.00000000000E+00 -0.45593999997E+02  0.45594000000E+02  0.51100000000E-03 0. -1.
    9900012    2    1    2    0    0 -0.71854628673E+00  0.63955160353E+00 -0.68441636600E+00  0.90007423538E+02  0.89999680728E+02 0.  0.
        -12    1    1    2    0    0  0.71854628673E+00 -0.63955160353E+00  0.68441636600E+00  0.11805764617E+01  0.00000000000E+00 0.  1.
         11    1    3    3    0    0 -0.33897887150E+02  0.17891013343E+02  0.58038297811E+01  0.38766474589E+02  0.51100000000E-03 0. -1.
        -11    1    3    3    0    0 -0.53804222133E+01 -0.51447167491E+01  0.53034308421E+01  0.91402096573E+01  0.51100000000E-03 0.  1.
        -12    1    3    3    0    0  0.38559763076E+02 -0.12106744990E+02 -0.11791676989E+02  0.42100739292E+02  0.00000000000E+00 0.  1.
</event>
<event>
 7    1  0.3622165E-015  0.9000775E+02  0.7816164E-02  0.1186339E+00
        -11   -1    0    0    0    0  0.00000000000E+00  0.00000000000E+00  0.45593999997E+02  0.45594000000E+02  0.51100000000E-03 0. -1.
         11   -1    0    0    0    0 -0.00000000000E+00 -0.00000000000E+00 -0.45593999997E+02  0.45594000000E+02  0.51100000000E-03 0.  1.
    9900012    2    1    2    0    0  0.84009052937E+00  0.62660360135E+00  0.54276729146E+00  0.90007754050E+02  0.90000015603E+02 0.  0.
        -12    1    1    2    0    0 -0.84009052937E+00 -0.62660360135E+00 -0.54276729146E+00  0.11802459504E+01  0.00000000000E+00 0.  1.
         11    1    3    3    0    0 -0.34055848659E+02 -0.44177656218E+01 -0.91288510601E+01  0.35533834622E+02  0.51100000000E-03 0. -1.
        -11    1    3    3    0    0 -0.79744264056E+01 -0.46530144398E+01 -0.87132741382E+00  0.92736848986E+01  0.51100000000E-03 0.  1.
         12    1    3    3    0    0  0.42870365594E+02  0.96973836630E+01  0.10542945765E+02  0.45200234529E+02  0.00000000000E+00 0. -1.
</event>
<event>
 7    1  0.3622165E-015  0.9000779E+02  0.7816164E-02  0.1186339E+00
        -11   -1    0    0    0    0  0.00000000000E+00  0.00000000000E+00  0.45593999997E+02  0.45594000000E+02  0.51100000000E-03 0.  1.
         11   -1    0    0    0    0 -0.00000000000E+00 -0.00000000000E+00 -0.45593999997E+02  0.45594000000E+02  0.51100000000E-03 0. -1.
    9900012    2    1    2    0    0 -0.36210979457E+00  0.10991599362E+01  0.23157918227E+00  0.90007786042E+02  0.90000048018E+02 0.  0.
        -12    1    1    2    0    0  0.36210979457E+00 -0.10991599362E+01 -0.23157918227E+00  0.11802139579E+01  0.00000000000E+00 0.  1.
         11    1    3    3    0    0 -0.20724228814E+01 -0.85355383956E+01 -0.78789513712E-01  0.87838807113E+01  0.51100000000E-03 0. -1.
        -11    1    3    3    0    0 -0.14366981608E+02 -0.24959102051E+02  0.22984896696E+02  0.36846606521E+02  0.51100000000E-03 0.  1.
         12    1    3    3    0    0  0.16077294695E+02  0.34593800383E+02 -0.22674528000E+02  0.44377298810E+02  0.00000000000E+00 0. -1.
</event>
<event>
 7    1  0.3622165E-015  0.9000772E+02  0.7816164E-02  0.1186339E+00
        -11   -1    0    0    0    0  0.00000000000E+00  0.00000000000E+00  0.45593999997E+02  0.45594000000E+02  0.51100000000E-03 0.  1.
         11   -1    0    0    0    0 -0.00000000000E+00 -0.00000000000E+00 -0.45593999997E+02  0.45594000000E+02  0.51100000000E-03 0. -1.
    9900012    2    1    2    0    0  0.97028081722E-01 -0.75493004184E+00 -0.90206489185E+00  0.90007722539E+02  0.89999983676E+02 0.  0.
        -12    1    1    2    0    0 -0.97028081722E-01  0.75493004184E+00  0.90206489185E+00  0.11802774614E+01  0.00000000000E+00 0.  1.
         11    1    3    3    0    0 -0.84008689077E+01 -0.21389664043E+01  0.79519220518E+01  0.11763623603E+02  0.51100000000E-03 0. -1.
        -11    1    3    3    0    0  0.30917366469E+01 -0.32140805208E+02  0.16122023482E+02  0.36090301139E+02  0.51100000000E-03 0.  1.
         12    1    3    3    0    0  0.54061603425E+01  0.33524841570E+02 -0.24976010426E+02  0.42153797797E+02  0.00000000000E+00 0. -1.
</event>
<event>
 7    1  0.3622165E-015  0.9000773E+02  0.7816164E-02  0.1186339E+00
        -11   -1    0    0    0    0  0.00000000000E+00  0.00000000000E+00  0.45593999997E+02  0.45594000000E+02  0.51100000000E-03 0. -1.
         11   -1    0    0    0    0 -0.00000000000E+00 -0.00000000000E+00 -0.45593999997E+02  0.45594000000E+02  0.51100000000E-03 0.  1.
    9900012    2    1    2    0    0  0.14377701736E-01 -0.10607165157E+01  0.51741513148E+00  0.90007726869E+02  0.89999988064E+02 0.  0.
        -12    1    1    2    0    0 -0.14377701736E-01  0.10607165157E+01 -0.51741513148E+00  0.11802731308E+01  0.00000000000E+00 0.  1.
         11    1    3    3    0    0 -0.10578911125E+02 -0.15219851473E+01 -0.10053870353E+02  0.14673449108E+02  0.51100000000E-03 0. -1.
        -11    1    3    3    0    0  0.23907084757E+02  0.19281598248E-01 -0.26649529014E+02  0.35801486985E+02  0.51100000000E-03 0.  1.
         12    1    3    3    0    0 -0.13313795931E+02  0.44198703340E+00  0.37220814499E+02  0.39532790777E+02  0.00000000000E+00 0. -1.
</event>
<event>
 7    1  0.3622165E-015  0.9000787E+02  0.7816164E-02  0.1186339E+00
        -11   -1    0    0    0    0  0.00000000000E+00  0.00000000000E+00  0.45593999997E+02  0.45594000000E+02  0.51100000000E-03 0. -1.
         11   -1    0    0    0    0 -0.00000000000E+00 -0.00000000000E+00 -0.45593999997E+02  0.45594000000E+02  0.51100000000E-03 0.  1.
    9900012    2    1    2    0    0 -0.11691617967E+01  0.10185110568E+00 -0.12410550370E+00  0.90007866478E+02  0.90000129515E+02 0.  0.
        -12    1    1    2    0    0  0.11691617967E+01 -0.10185110568E+00  0.12410550370E+00  0.11801335224E+01  0.00000000000E+00 0.  1.
         11    1    3    3    0    0 -0.29412872546E+01  0.37825661636E+02  0.16353515702E+02  0.41314275075E+02  0.51100000000E-03 0. -1.
        -11    1    3    3    0    0 -0.59296100099E+01  0.12729394669E+01 -0.24537868364E+01  0.65423023360E+01  0.51100000000E-03 0.  1.
        -12    1    3    3    0    0  0.77017354678E+01 -0.38996749997E+02 -0.14023834369E+02  0.42151289066E+02  0.00000000000E+00 0.  1.
</event>
<event>
 7    1  0.3622165E-015  0.9000786E+02  0.7816164E-02  0.1186339E+00
        -11   -1    0    0    0    0  0.00000000000E+00  0.00000000000E+00  0.45593999997E+02  0.45594000000E+02  0.51100000000E-03 0. -1.
         11   -1    0    0    0    0 -0.00000000000E+00 -0.00000000000E+00 -0.45593999997E+02  0.45594000000E+02  0.51100000000E-03 0.  1.
    9900012    2    1    2    0    0 -0.59027880845E-02 -0.10848356383E+01  0.46456343298E+00  0.90007863403E+02  0.90000126400E+02 0.  0.
        -12    1    1    2    0    0  0.59027880845E-02  0.10848356383E+01 -0.46456343298E+00  0.11801365973E+01  0.00000000000E+00 0.  1.
         11    1    3    3    0    0 -0.36921234035E+02 -0.85546311845E+01  0.23561823810E+01  0.37972501011E+02  0.51100000000E-03 0. -1.
        -11    1    3    3    0    0 -0.18451749018E+01 -0.42966961113E-01  0.10495001722E+02  0.10656058277E+02  0.51100000000E-03 0.  1.
        -12    1    3    3    0    0  0.38760506149E+02  0.75127625073E+01 -0.12386620670E+02  0.41379304115E+02  0.00000000000E+00 0.  1.
</event>
<event>
 7    1  0.3622165E-015  0.9000776E+02  0.7816164E-02  0.1186339E+00
        -11   -1    0    0    0    0  0.00000000000E+00  0.00000000000E+00  0.45593999997E+02  0.45594000000E+02  0.51100000000E-03 0.  1.
         11   -1    0    0    0    0 -0.00000000000E+00 -0.00000000000E+00 -0.45593999997E+02  0.45594000000E+02  0.51100000000E-03 0. -1.
    9900012    2    1    2    0    0  0.99702258428E+00 -0.56064341479E+00 -0.29086095902E+00  0.90007756309E+02  0.90000017893E+02 0.  0.
        -12    1    1    2    0    0 -0.99702258428E+00  0.56064341479E+00  0.29086095902E+00  0.11802436908E+01  0.00000000000E+00 0.  1.
         11    1    3    3    0    0  0.65295178967E+01  0.26088058424E+00  0.92212911854E+01  0.11301985402E+02  0.51100000000E-03 0. -1.
        -11    1    3    3    0    0  0.17531130480E+02  0.46195193116E+01  0.28579498944E+02  0.33844767021E+02  0.51100000000E-03 0.  1.
         12    1    3    3    0    0 -0.23063625792E+02 -0.54410433106E+01 -0.38091651089E+02  0.44861003886E+02  0.00000000000E+00 0. -1.
</event>
<event>
 7    1  0.3622165E-015  0.9000779E+02  0.7816164E-02  0.1186339E+00
        -11   -1    0    0    0    0  0.00000000000E+00  0.00000000000E+00  0.45593999997E+02  0.45594000000E+02  0.51100000000E-03 0. -1.
         11   -1    0    0    0    0 -0.00000000000E+00 -0.00000000000E+00 -0.45593999997E+02  0.45594000000E+02  0.51100000000E-03 0.  1.
    9900012    2    1    2    0    0  0.95630390276E-01  0.50259421753E+00  0.10635573487E+01  0.90007788005E+02  0.90000050007E+02 0.  0.
        -12    1    1    2    0    0 -0.95630390276E-01 -0.50259421753E+00 -0.10635573487E+01  0.11802119949E+01  0.00000000000E+00 0.  1.
         11    1    3    3    0    0  0.17257144006E+01 -0.42522543504E+00  0.14668655323E+02  0.14775938417E+02  0.51100000000E-03 0. -1.
        -11    1    3    3    0    0  0.34877481208E+02 -0.15895284878E+01 -0.16314644166E+02  0.38537422212E+02  0.51100000000E-03 0.  1.
         12    1    3    3    0    0 -0.36507565218E+02  0.25173481404E+01  0.27095461919E+01  0.36694427375E+02  0.00000000000E+00 0. -1.
</event>
<event>
 7    1  0.3622165E-015  0.9000771E+02  0.7816164E-02  0.1186339E+00
        -11   -1    0    0    0    0  0.00000000000E+00  0.00000000000E+00  0.45593999997E+02  0.45594000000E+02  0.51100000000E-03 0. -1.
         11   -1    0    0    0    0 -0.00000000000E+00 -0.00000000000E+00 -0.45593999997E+02  0.45594000000E+02  0.51100000000E-03 0.  1.
    9900012    2    1    2    0    0  0.93179939352E+00  0.66318065124E+00  0.29161119660E+00  0.90007705217E+02  0.89999966125E+02 0.  0.
        -12    1    1    2    0    0 -0.93179939352E+00 -0.66318065124E+00 -0.29161119660E+00  0.11802947835E+01  0.00000000000E+00 0.  1.
         11    1    3    3    0    0  0.16396968158E+01  0.61272090791E+01 -0.64424173125E+01  0.90407985176E+01  0.51100000000E-03 0. -1.
        -11    1    3    3    0    0 -0.39233080934E+02 -0.39890801267E+01 -0.69773866708E+01  0.40047862925E+02  0.51100000000E-03 0.  1.
         12    1    3    3    0    0  0.38525183512E+02 -0.14749483011E+01  0.13711415180E+02  0.40919043774E+02  0.00000000000E+00 0. -1.
</event>
<event>
 7    1  0.4808577E-015  0.9000776E+02  0.7816164E-02  0.1186339E+00
        -11   -1    0    0    0    0  0.00000000000E+00  0.00000000000E+00  0.45593999997E+02  0.45594000000E+02  0.51100000000E-03 0. -1.
         11   -1    0    0    0    0 -0.00000000000E+00 -0.00000000000E+00 -0.45593999997E+02  0.45594000000E+02  0.51100000000E-03 0.  1.
    9900012    2    1    2    0    0  0.10282158639E+01 -0.14865766044E+00  0.56003019875E+00  0.90007762403E+02  0.90000024066E+02 0.  0.
        -12    1    1    2    0    0 -0.10282158639E+01  0.14865766044E+00 -0.56003019875E+00  0.11802375974E+01  0.00000000000E+00 0.  1.
         11    1    3    3    0    0  0.33974165880E+02  0.13377389288E+02  0.10815718933E+02  0.38081206227E+02  0.51100000000E-03 0. -1.
        -11    1    3    3    0    0  0.45055034561E+01  0.60894787357E+01 -0.55446590606E+01  0.93874680838E+01  0.51100000000E-03 0.  1.
        -12    1    3    3    0    0 -0.37451453473E+02 -0.19615525684E+02 -0.47110296737E+01  0.42539088091E+02  0.00000000000E+00 0.  1.
</event>
<event>
 7    1  0.3622165E-015  0.9000775E+02  0.7816164E-02  0.1186339E+00
        -11   -1    0    0    0    0  0.00000000000E+00  0.00000000000E+00  0.45593999997E+02  0.45594000000E+02  0.51100000000E-03 0. -1.
         11   -1    0    0    0    0 -0.00000000000E+00 -0.00000000000E+00 -0.45593999997E+02  0.45594000000E+02  0.51100000000E-03 0.  1.
    9900012    2    1    2    0    0 -0.94419248245E-01  0.70164256922E+00  0.94434287129E+00  0.90007745473E+02  0.90000006913E+02 0.  0.
        -12    1    1    2    0    0  0.94419248245E-01 -0.70164256922E+00 -0.94434287129E+00  0.11802545268E+01  0.00000000000E+00 0.  1.
         11    1    3    3    0    0  0.49143172904E+01  0.40209128896E+01  0.46151728882E+01  0.78497182080E+01  0.51100000000E-03 0. -1.
        -11    1    3    3    0    0  0.28767275290E+01  0.53410875991E-01 -0.42396503427E+02  0.42494022134E+02  0.51100000000E-03 0.  1.
         12    1    3    3    0    0 -0.78854640677E+01 -0.33726811964E+01  0.38725673410E+02  0.39664005132E+02  0.00000000000E+00 0. -1.
</event>
<event>
 7    1  0.3622165E-015  0.9000773E+02  0.7816164E-02  0.1186339E+00
        -11   -1    0    0    0    0  0.00000000000E+00  0.00000000000E+00  0.45593999997E+02  0.45594000000E+02  0.51100000000E-03 0.  1.
         11   -1    0    0    0    0 -0.00000000000E+00 -0.00000000000E+00 -0.45593999997E+02  0.45594000000E+02  0.51100000000E-03 0. -1.
    9900012    2    1    2    0    0 -0.11680071733E+00  0.29446668996E-01 -0.11741037998E+01  0.90007733400E+02  0.89999994681E+02 0.  0.
        -12    1    1    2    0    0  0.11680071733E+00 -0.29446668996E-01  0.11741037998E+01  0.11802665998E+01  0.00000000000E+00 0.  1.
         11    1    3    3    0    0 -0.39955755336E+01 -0.71120427816E+01 -0.19062738179E+01  0.83773299149E+01  0.51100000000E-03 0. -1.
        -11    1    3    3    0    0 -0.18815556023E+02 -0.30766125133E+02 -0.71110921536E+01  0.36757954731E+02  0.51100000000E-03 0.  1.
         12    1    3    3    0    0  0.22694330840E+02  0.37907614584E+02  0.78432621717E+01  0.44872448754E+02  0.00000000000E+00 0. -1.
</event>
<event>
 7    1  0.3622165E-015  0.9000777E+02  0.7816164E-02  0.1186339E+00
        -11   -1    0    0    0    0  0.00000000000E+00  0.00000000000E+00  0.45593999997E+02  0.45594000000E+02  0.51100000000E-03 0.  1.
         11   -1    0    0    0    0 -0.00000000000E+00 -0.00000000000E+00 -0.45593999997E+02  0.45594000000E+02  0.51100000000E-03 0. -1.
    9900012    2    1    2    0    0 -0.26890500158E+00  0.76206357141E+00 -0.86016869358E+00  0.90007770798E+02  0.90000032573E+02 0.  0.
        -12    1    1    2    0    0  0.26890500158E+00 -0.76206357141E+00  0.86016869358E+00  0.11802292015E+01  0.00000000000E+00 0.  1.
         11    1    3    3    0    0 -0.19343127633E+02 -0.12430457249E+02  0.39901570140E+01  0.23336542317E+02  0.51100000000E-03 0. -1.
        -11    1    3    3    0    0 -0.64787660252E+01  0.23760780513E+02  0.18239203271E+02  0.30646657828E+02  0.51100000000E-03 0.  1.
         12    1    3    3    0    0  0.25552988657E+02 -0.10568259693E+02 -0.23089528979E+02  0.36024570653E+02  0.00000000000E+00 0. -1.
</event>
<event>
 7    1  0.3622165E-015  0.9000779E+02  0.7816164E-02  0.1186339E+00
        -11   -1    0    0    0    0  0.00000000000E+00  0.00000000000E+00  0.45593999997E+02  0.45594000000E+02  0.51100000000E-03 0.  1.
         11   -1    0    0    0    0 -0.00000000000E+00 -0.00000000000E+00 -0.45593999997E+02  0.45594000000E+02  0.51100000000E-03 0. -1.
    9900012    2    1    2    0    0  0.83634820373E+00 -0.80696399355E+00 -0.20550954886E+00  0.90007786723E+02  0.90000048708E+02 0.  0.
        -12    1    1    2    0    0 -0.83634820373E+00  0.80696399355E+00  0.20550954886E+00  0.11802132771E+01  0.00000000000E+00 0.  1.
         11    1    3    3    0    0 -0.44161203340E+01  0.30901323739E+00 -0.94597467327E+01  0.10444348543E+02  0.51100000000E-03 0. -1.
        -11    1    3    3    0    0  0.64100920938E+01 -0.34337543647E+02  0.24826982317E+02  0.42854815781E+02  0.51100000000E-03 0.  1.
         12    1    3    3    0    0 -0.11576235561E+01  0.33221566416E+02 -0.15572745133E+02  0.36708622399E+02  0.00000000000E+00 0. -1.
</event>
<event>
 7    1  0.3622165E-015  0.9000773E+02  0.7816164E-02  0.1186339E+00
        -11   -1    0    0    0    0  0.00000000000E+00  0.00000000000E+00  0.45593999997E+02  0.45594000000E+02  0.51100000000E-03 0. -1.
         11   -1    0    0    0    0 -0.00000000000E+00 -0.00000000000E+00 -0.45593999997E+02  0.45594000000E+02  0.51100000000E-03 0.  1.
    9900012    2    1    2    0    0  0.78443450975E+00 -0.69447599760E+00  0.54350580997E+00  0.90007731820E+02  0.89999993080E+02 0.  0.
        -12    1    1    2    0    0 -0.78443450975E+00  0.69447599760E+00 -0.54350580997E+00  0.11802681800E+01  0.00000000000E+00 0.  1.
         11    1    3    3    0    0  0.27364710901E+02 -0.21582775957E+02  0.10225075110E+02  0.36320734876E+02  0.51100000000E-03 0. -1.
        -11    1    3    3    0    0  0.84291353987E+01 -0.41132765224E+01 -0.43460564804E+01  0.10337193744E+02  0.51100000000E-03 0.  1.
        -12    1    3    3    0    0 -0.35009411789E+02  0.25001576481E+02 -0.53355128195E+01  0.43349803200E+02  0.00000000000E+00 0.  1.
</event>
<event>
 7    1  0.3622165E-015  0.9000770E+02  0.7816164E-02  0.1186339E+00
        -11   -1    0    0    0    0  0.00000000000E+00  0.00000000000E+00  0.45593999997E+02  0.45594000000E+02  0.51100000000E-03 0. -1.
         11   -1    0    0    0    0 -0.00000000000E+00 -0.00000000000E+00 -0.45593999997E+02  0.45594000000E+02  0.51100000000E-03 0.  1.
    9900012    2    1    2    0    0 -0.79937556226E+00  0.74794864845E+00  0.44122290809E+00  0.90007700832E+02  0.89999961683E+02 0.  0.
        -12    1    1    2    0    0  0.79937556226E+00 -0.74794864845E+00 -0.44122290809E+00  0.11802991675E+01  0.00000000000E+00 0.  1.
         11    1    3    3    0    0  0.36706955551E+01 -0.84722822935E+01  0.72190589161E+01  0.11720425974E+02  0.51100000000E-03 0. -1.
        -11    1    3    3    0    0  0.34168259422E+02 -0.74677909179E+01  0.29194139318E+01  0.35096450406E+02  0.51100000000E-03 0.  1.
         12    1    3    3    0    0 -0.38638330540E+02  0.16688021860E+02 -0.96972499398E+01  0.43190824452E+02  0.00000000000E+00 0. -1.
</event>
<event>
 7    1  0.3622165E-015  0.9000777E+02  0.7816164E-02  0.1186339E+00
        -11   -1    0    0    0    0  0.00000000000E+00  0.00000000000E+00  0.45593999997E+02  0.45594000000E+02  0.51100000000E-03 0.  1.
         11   -1    0    0    0    0 -0.00000000000E+00 -0.00000000000E+00 -0.45593999997E+02  0.45594000000E+02  0.51100000000E-03 0. -1.
    9900012    2    1    2    0    0  0.10997350957E+01 -0.38498828360E+00 -0.18790810271E+00  0.90007770059E+02  0.90000031824E+02 0.  0.
        -12    1    1    2    0    0 -0.10997350957E+01  0.38498828360E+00  0.18790810271E+00  0.11802299412E+01  0.00000000000E+00 0.  1.
         11    1    3    3    0    0 -0.31273262653E+02  0.15280495415E+02  0.20408230164E+02  0.40348560765E+02  0.51100000000E-03 0. -1.
        -11    1    3    3    0    0  0.81045517715E+00  0.46348682224E+01 -0.93761421609E+01  0.10490513959E+02  0.51100000000E-03 0.  1.
        -12    1    3    3    0    0  0.31562542571E+02 -0.20300351921E+02 -0.11219996106E+02  0.39168695336E+02  0.00000000000E+00 0.  1.
</event>
<event>
 7    1  0.3622165E-015  0.9000772E+02  0.7816164E-02  0.1186339E+00
        -11   -1    0    0    0    0  0.00000000000E+00  0.00000000000E+00  0.45593999997E+02  0.45594000000E+02  0.51100000000E-03 0. -1.
         11   -1    0    0    0    0 -0.00000000000E+00 -0.00000000000E+00 -0.45593999997E+02  0.45594000000E+02  0.51100000000E-03 0.  1.
    9900012    2    1    2    0    0  0.65203089527E+00 -0.98382138427E+00  0.21595474049E-02  0.90007723139E+02  0.89999984285E+02 0.  0.
        -12    1    1    2    0    0 -0.65203089527E+00  0.98382138427E+00 -0.21595474049E-02  0.11802768608E+01  0.00000000000E+00 0.  1.
         11    1    3    3    0    0 -0.20878854351E+02 -0.18613621616E+02  0.25364793269E+02  0.37759319466E+02  0.51100000000E-03 0. -1.
        -11    1    3    3    0    0 -0.87450898056E+01  0.30211392155E+01  0.12987702501E+01  0.93429482655E+01  0.51100000000E-03 0.  1.
        -12    1    3    3    0    0  0.30275975052E+02  0.14608661016E+02 -0.26661403972E+02  0.42905455408E+02  0.00000000000E+00 0.  1.
</event>
<event>
 7    1  0.3622165E-015  0.9000772E+02  0.7816164E-02  0.1186339E+00
        -11   -1    0    0    0    0  0.00000000000E+00  0.00000000000E+00  0.45593999997E+02  0.45594000000E+02  0.51100000000E-03 0.  1.
         11   -1    0    0    0    0 -0.00000000000E+00 -0.00000000000E+00 -0.45593999997E+02  0.45594000000E+02  0.51100000000E-03 0. -1.
    9900012    2    1    2    0    0  0.11291337601E+01 -0.32553858072E+00 -0.11022235607E+00  0.90007717244E+02  0.89999978312E+02 0.  0.
        -12    1    1    2    0    0 -0.11291337601E+01  0.32553858072E+00  0.11022235607E+00  0.11802827558E+01  0.00000000000E+00 0.  1.
         11    1    3    3    0    0 -0.13067487264E+01 -0.83140020812E+01  0.28235864925E+01  0.88770977116E+01  0.51100000000E-03 0. -1.
        -11    1    3    3    0    0 -0.26674638784E+02  0.27256580981E+02  0.16068575056E+02  0.41384256253E+02  0.51100000000E-03 0.  1.
         12    1    3    3    0    0  0.29110521270E+02 -0.19268117481E+02 -0.19002383905E+02  0.39746363279E+02  0.00000000000E+00 0. -1.
</event>
<event>
 7    1  0.3622165E-015  0.9000782E+02  0.7816164E-02  0.1186339E+00
        -11   -1    0    0    0    0  0.00000000000E+00  0.00000000000E+00  0.45593999997E+02  0.45594000000E+02  0.51100000000E-03 0.  1.
         11   -1    0    0    0    0 -0.00000000000E+00 -0.00000000000E+00 -0.45593999997E+02  0.45594000000E+02  0.51100000000E-03 0. -1.
    9900012    2    1    2    0    0 -0.10615053019E+01 -0.48460058489E+00  0.17662288473E+00  0.90007819134E+02  0.90000081547E+02 0.  0.
        -12    1    1    2    0    0  0.10615053019E+01  0.48460058489E+00 -0.17662288473E+00  0.11801808659E+01  0.00000000000E+00 0.  1.
         11    1    3    3    0    0 -0.66863079951E+01 -0.39178546362E+01  0.71164046920E+01  0.10521383728E+02  0.51100000000E-03 0. -1.
        -11    1    3    3    0    0 -0.24234033716E+02 -0.23832187520E+02  0.10321284595E+02  0.35521690108E+02  0.51100000000E-03 0.  1.
         12    1    3    3    0    0  0.29858836410E+02  0.27265441571E+02 -0.17261066403E+02  0.43964745298E+02  0.00000000000E+00 0. -1.
</event>
<event>
 7    1  0.3622165E-015  0.9000779E+02  0.7816164E-02  0.1186339E+00
        -11   -1    0    0    0    0  0.00000000000E+00  0.00000000000E+00  0.45593999997E+02  0.45594000000E+02  0.51100000000E-03 0.  1.
         11   -1    0    0    0    0 -0.00000000000E+00 -0.00000000000E+00 -0.45593999997E+02  0.45594000000E+02  0.51100000000E-03 0. -1.
    9900012    2    1    2    0    0  0.53326475798E+00 -0.55753745058E+00 -0.89312937308E+00  0.90007788414E+02  0.90000050421E+02 0.  0.
        -12    1    1    2    0    0 -0.53326475798E+00  0.55753745058E+00  0.89312937308E+00  0.11802115861E+01  0.00000000000E+00 0.  1.
         11    1    3    3    0    0 -0.70510808542E+01 -0.65586747027E+01  0.45949561056E+01  0.10669938001E+02  0.51100000000E-03 0. -1.
        -11    1    3    3    0    0 -0.23278453248E+02 -0.15393400677E+02  0.19664105770E+02  0.34139716256E+02  0.51100000000E-03 0.  1.
         12    1    3    3    0    0  0.30862798860E+02  0.21394537929E+02 -0.25152191249E+02  0.45198134157E+02  0.00000000000E+00 0. -1.
</event>
<event>
 7    1  0.3622165E-015  0.9000771E+02  0.7816164E-02  0.1186339E+00
        -11   -1    0    0    0    0  0.00000000000E+00  0.00000000000E+00  0.45593999997E+02  0.45594000000E+02  0.51100000000E-03 0. -1.
         11   -1    0    0    0    0 -0.00000000000E+00 -0.00000000000E+00 -0.45593999997E+02  0.45594000000E+02  0.51100000000E-03 0.  1.
    9900012    2    1    2    0    0 -0.93818302869E+00  0.63901114634E+00  0.32334669357E+00  0.90007713711E+02  0.89999974732E+02 0.  0.
        -12    1    1    2    0    0  0.93818302869E+00 -0.63901114634E+00 -0.32334669357E+00  0.11802862893E+01  0.00000000000E+00 0.  1.
         11    1    3    3    0    0 -0.79025601484E+01 -0.34477224125E+02  0.17652758478E+02  0.39531624333E+02  0.51100000000E-03 0. -1.
        -11    1    3    3    0    0 -0.42030293460E+01 -0.34263598533E+01 -0.73359591494E+01  0.91225925279E+01  0.51100000000E-03 0.  1.
        -12    1    3    3    0    0  0.11167406466E+02  0.38542595125E+02 -0.99934526350E+01  0.41353496850E+02  0.00000000000E+00 0.  1.
</event>
<event>
 7    1  0.3622165E-015  0.9000780E+02  0.7816164E-02  0.1186339E+00
        -11   -1    0    0    0    0  0.00000000000E+00  0.00000000000E+00  0.45593999997E+02  0.45594000000E+02  0.51100000000E-03 0.  1.
         11   -1    0    0    0    0 -0.00000000000E+00 -0.00000000000E+00 -0.45593999997E+02  0.45594000000E+02  0.51100000000E-03 0. -1.
    9900012    2    1    2    0    0  0.95779129449E+00  0.68537263814E+00 -0.75936516358E-01  0.90007802486E+02  0.90000064679E+02 0.  0.
        -12    1    1    2    0    0 -0.95779129449E+00 -0.68537263814E+00  0.75936516358E-01  0.11801975137E+01  0.00000000000E+00 0.  1.
         11    1    3    3    0    0 -0.15629195012E+02  0.31435324045E+01  0.28517128594E+01  0.16195240016E+02  0.51100000000E-03 0. -1.
        -11    1    3    3    0    0 -0.12193113218E+02  0.19527274804E+02  0.20378155486E+02  0.30745010855E+02  0.51100000000E-03 0.  1.
         12    1    3    3    0    0  0.28780099524E+02 -0.21985434570E+02 -0.23305804862E+02  0.43067551615E+02  0.00000000000E+00 0. -1.
</event>
<event>
 7    1  0.3622165E-015  0.9000769E+02  0.7816164E-02  0.1186339E+00
        -11   -1    0    0    0    0  0.00000000000E+00  0.00000000000E+00  0.45593999997E+02  0.45594000000E+02  0.51100000000E-03 0. -1.
         11   -1    0    0    0    0 -0.00000000000E+00 -0.00000000000E+00 -0.45593999997E+02  0.45594000000E+02  0.51100000000E-03 0.  1.
    9900012    2    1    2    0    0  0.51500658391E+00  0.99293562628E+00  0.37680297417E+00  0.90007689269E+02  0.89999949968E+02 0.  0.
        -12    1    1    2    0    0 -0.51500658391E+00 -0.99293562628E+00 -0.37680297417E+00  0.11803107306E+01  0.00000000000E+00 0.  1.
         11    1    3    3    0    0 -0.15680597162E+02 -0.29989591076E+02  0.22435200207E+02  0.40602892863E+02  0.51100000000E-03 0. -1.
        -11    1    3    3    0    0 -0.56102037531E+01  0.62536744536E+01  0.19440431259E+01  0.86233482047E+01  0.51100000000E-03 0.  1.
        -12    1    3    3    0    0  0.21805807499E+02  0.24728852249E+02 -0.24002440359E+02  0.40781448201E+02  0.00000000000E+00 0.  1.
</event>
<event>
 7    1  0.3622165E-015  0.9000772E+02  0.7816164E-02  0.1186339E+00
        -11   -1    0    0    0    0  0.00000000000E+00  0.00000000000E+00  0.45593999997E+02  0.45594000000E+02  0.51100000000E-03 0.  1.
         11   -1    0    0    0    0 -0.00000000000E+00 -0.00000000000E+00 -0.45593999997E+02  0.45594000000E+02  0.51100000000E-03 0. -1.
    9900012    2    1    2    0    0  0.98127511595E+00 -0.41682046410E+00 -0.50638259561E+00  0.90007718896E+02  0.89999979985E+02 0.  0.
        -12    1    1    2    0    0 -0.98127511595E+00  0.41682046410E+00  0.50638259561E+00  0.11802811045E+01  0.00000000000E+00 0.  1.
         11    1    3    3    0    0  0.58367078204E+01 -0.36282684848E+02 -0.46830450631E+01  0.37046339755E+02  0.51100000000E-03 0. -1.
        -11    1    3    3    0    0  0.67248354097E+01 -0.48672754830E+01  0.65104204135E+01  0.10549851001E+02  0.51100000000E-03 0.  1.
        -12    1    3    3    0    0 -0.11580268114E+02  0.40733139867E+02 -0.23337579460E+01  0.42411528140E+02  0.00000000000E+00 0.  1.
</event>
<event>
 7    1  0.3622165E-015  0.9000770E+02  0.7816164E-02  0.1186339E+00
        -11   -1    0    0    0    0  0.00000000000E+00  0.00000000000E+00  0.45593999997E+02  0.45594000000E+02  0.51100000000E-03 0. -1.
         11   -1    0    0    0    0 -0.00000000000E+00 -0.00000000000E+00 -0.45593999997E+02  0.45594000000E+02  0.51100000000E-03 0.  1.
    9900012    2    1    2    0    0  0.10717464045E+01 -0.38150142586E+00  0.31452539002E+00  0.90007699227E+02  0.89999960057E+02 0.  0.
        -12    1    1    2    0    0 -0.10717464045E+01  0.38150142586E+00 -0.31452539002E+00  0.11803007729E+01  0.00000000000E+00 0.  1.
         11    1    3    3    0    0  0.33661727948E+01 -0.39931490179E+02  0.14202246786E+02  0.42515395344E+02  0.51100000000E-03 0. -1.
        -11    1    3    3    0    0 -0.82672233036E+01  0.39115225134E+01 -0.13579745070E+01  0.92461388994E+01  0.51100000000E-03 0.  1.
        -12    1    3    3    0    0  0.59727969134E+01  0.35638466240E+02 -0.12529746889E+02  0.38246164984E+02  0.00000000000E+00 0.  1.
</event>
<event>
 7    1  0.3622165E-015  0.9000765E+02  0.7816164E-02  0.1186339E+00
        -11   -1    0    0    0    0  0.00000000000E+00  0.00000000000E+00  0.45593999997E+02  0.45594000000E+02  0.51100000000E-03 0. -1.
         11   -1    0    0    0    0 -0.00000000000E+00 -0.00000000000E+00 -0.45593999997E+02  0.45594000000E+02  0.51100000000E-03 0.  1.
    9900012    2    1    2    0    0  0.96113061671E+00 -0.68355476887E+00 -0.46936697310E-01  0.90007651645E+02  0.89999911847E+02 0.  0.
        -12    1    1    2    0    0 -0.96113061671E+00  0.68355476887E+00  0.46936697310E-01  0.11803483545E+01  0.00000000000E+00 0.  1.
         11    1    3    3    0    0  0.31534822513E+01  0.67518405870E+01  0.15928650885E+01  0.76203032139E+01  0.51100000000E-03 0. -1.
        -11    1    3    3    0    0  0.19200473716E+02  0.31896277688E+02 -0.46207473341E+01  0.37515090663E+02  0.51100000000E-03 0.  1.
         12    1    3    3    0    0 -0.21392825351E+02 -0.39331673044E+02  0.29809455483E+01  0.44872257769E+02  0.00000000000E+00 0. -1.
</event>
<event>
 7    1  0.3622165E-015  0.9000738E+02  0.7816164E-02  0.1186340E+00
        -11   -1    0    0    0    0  0.00000000000E+00  0.00000000000E+00  0.45593999997E+02  0.45594000000E+02  0.51100000000E-03 0. -1.
         11   -1    0    0    0    0 -0.00000000000E+00 -0.00000000000E+00 -0.45593999997E+02  0.45594000000E+02  0.51100000000E-03 0.  1.
    9900012    2    1    2    0    0 -0.95153527889E+00 -0.19491308886E+00  0.67115930275E+00  0.90007379270E+02  0.89999635875E+02 0.  0.
        -12    1    1    2    0    0  0.95153527889E+00  0.19491308886E+00 -0.67115930275E+00  0.11806207303E+01  0.00000000000E+00 0.  1.
         11    1    3    3    0    0 -0.22677688087E+02 -0.68087202634E+01 -0.33894042112E+02  0.41345402399E+02  0.51100000000E-03 0. -1.
        -11    1    3    3    0    0  0.52106846865E+01  0.73493796034E+01 -0.13640752673E+01  0.91118229270E+01  0.51100000000E-03 0.  1.
        -12    1    3    3    0    0  0.16515468121E+02 -0.73557242888E+00  0.35929276682E+02  0.39550153944E+02  0.00000000000E+00 0.  1.
</event>
<event>
 7    1  0.3622165E-015  0.9000771E+02  0.7816164E-02  0.1186339E+00
        -11   -1    0    0    0    0  0.00000000000E+00  0.00000000000E+00  0.45593999997E+02  0.45594000000E+02  0.51100000000E-03 0.  1.
         11   -1    0    0    0    0 -0.00000000000E+00 -0.00000000000E+00 -0.45593999997E+02  0.45594000000E+02  0.51100000000E-03 0. -1.
    9900012    2    1    2    0    0 -0.73572505888E+00 -0.25585790244E+00 -0.88674841432E+00  0.90007713010E+02  0.89999974022E+02 0.  0.
        -12    1    1    2    0    0  0.73572505888E+00  0.25585790244E+00  0.88674841432E+00  0.11802869900E+01  0.00000000000E+00 0.  1.
         11    1    3    3    0    0  0.19453644145E+02 -0.28451550165E+02 -0.82897770158E+01  0.35449335404E+02  0.51100000000E-03 0. -1.
        -11    1    3    3    0    0 -0.62823903824E+00 -0.89132605898E+01 -0.57143876549E+01  0.10606371913E+02  0.51100000000E-03 0.  1.
        -12    1    3    3    0    0 -0.19561130166E+02  0.37108952853E+02  0.13117416256E+02  0.43952005693E+02  0.00000000000E+00 0.  1.
</event>
<event>
 7    1  0.3622165E-015  0.9000756E+02  0.7816164E-02  0.1186339E+00
        -11   -1    0    0    0    0  0.00000000000E+00  0.00000000000E+00  0.45593999997E+02  0.45594000000E+02  0.51100000000E-03 0.  1.
         11   -1    0    0    0    0 -0.00000000000E+00 -0.00000000000E+00 -0.45593999997E+02  0.45594000000E+02  0.51100000000E-03 0. -1.
    9900012    2    1    2    0    0  0.26759095345E+00  0.94519320671E+00  0.65455851532E+00  0.90007558571E+02  0.89999817544E+02 0.  0.
        -12    1    1    2    0    0 -0.26759095345E+00 -0.94519320671E+00 -0.65455851532E+00  0.11804414286E+01  0.00000000000E+00 0.  1.
         11    1    3    3    0    0  0.10113762978E+02 -0.35028425714E+02  0.17644073711E+02  0.40504223816E+02  0.51100000000E-03 0. -1.
        -11    1    3    3    0    0 -0.71151487511E+01  0.52254498545E+01  0.62905235861E+01  0.10839804204E+02  0.51100000000E-03 0.  1.
        -12    1    3    3    0    0 -0.27310232738E+01  0.30748169066E+02 -0.23280038782E+02  0.38663530551E+02  0.00000000000E+00 0.  1.
</event>
<event>
 7    1  0.3794665E-015  0.9000796E+02  0.7816164E-02  0.1186339E+00
        -11   -1    0    0    0    0  0.00000000000E+00  0.00000000000E+00  0.45593999997E+02  0.45594000000E+02  0.51100000000E-03 0. -1.
         11   -1    0    0    0    0 -0.00000000000E+00 -0.00000000000E+00 -0.45593999997E+02  0.45594000000E+02  0.51100000000E-03 0.  1.
    9900012    2    1    2    0    0  0.10672030211E+01 -0.16389243474E+00  0.47615038188E+00  0.90007956694E+02  0.90000220922E+02 0.  0.
        -12    1    1    2    0    0 -0.10672030211E+01  0.16389243474E+00 -0.47615038188E+00  0.11800433062E+01  0.00000000000E+00 0.  1.
         11    1    3    3    0    0 -0.19479271800E+02 -0.96004363237E+01  0.28748473253E+02  0.36028948390E+02  0.51100000000E-03 0. -1.
        -11    1    3    3    0    0 -0.38569855520E+00 -0.14609592569E+01  0.94026262848E+01  0.95232634447E+01  0.51100000000E-03 0.  1.
        -12    1    3    3    0    0  0.20932173376E+02  0.10897503146E+02 -0.37674949156E+02  0.44455744859E+02  0.00000000000E+00 0.  1.
</event>
<event>
 7    1  0.3622165E-015  0.9000798E+02  0.7816164E-02  0.1186339E+00
        -11   -1    0    0    0    0  0.00000000000E+00  0.00000000000E+00  0.45593999997E+02  0.45594000000E+02  0.51100000000E-03 0. -1.
         11   -1    0    0    0    0 -0.00000000000E+00 -0.00000000000E+00 -0.45593999997E+02  0.45594000000E+02  0.51100000000E-03 0.  1.
    9900012    2    1    2    0    0  0.31697294471E+00  0.11266923752E+01  0.15015166834E+00  0.90007977509E+02  0.90000242012E+02 0.  0.
        -12    1    1    2    0    0 -0.31697294471E+00 -0.11266923752E+01 -0.15015166834E+00  0.11800224911E+01  0.00000000000E+00 0.  1.
         11    1    3    3    0    0  0.15984321612E+02  0.58988653198E+01 -0.12125542036E+02  0.20912291108E+02  0.51100000000E-03 0. -1.
        -11    1    3    3    0    0  0.75912535711E+01 -0.16691442822E+02 -0.20284567575E+02  0.27344013536E+02  0.51100000000E-03 0.  1.
         12    1    3    3    0    0 -0.23258602238E+02  0.11919269878E+02  0.32560261279E+02  0.41751672865E+02  0.00000000000E+00 0. -1.
</event>
<event>
 7    1  0.3622165E-015  0.9000772E+02  0.7816164E-02  0.1186339E+00
        -11   -1    0    0    0    0  0.00000000000E+00  0.00000000000E+00  0.45593999997E+02  0.45594000000E+02  0.51100000000E-03 0.  1.
         11   -1    0    0    0    0 -0.00000000000E+00 -0.00000000000E+00 -0.45593999997E+02  0.45594000000E+02  0.51100000000E-03 0. -1.
    9900012    2    1    2    0    0 -0.10242723363E+01  0.52535826758E+00  0.26064661363E+00  0.90007715380E+02  0.89999976423E+02 0.  0.
        -12    1    1    2    0    0  0.10242723363E+01 -0.52535826758E+00 -0.26064661363E+00  0.11802846205E+01  0.00000000000E+00 0.  1.
         11    1    3    3    0    0 -0.15439771016E+02 -0.29521918280E+02  0.15182661716E+02  0.36612066385E+02  0.51100000000E-03 0. -1.
        -11    1    3    3    0    0 -0.35158038300E+01 -0.66882029183E+01  0.37726728804E+01  0.84454719093E+01  0.51100000000E-03 0.  1.
        -12    1    3    3    0    0  0.17931302509E+02  0.36735479466E+02 -0.18694687982E+02  0.44950177085E+02  0.00000000000E+00 0.  1.
</event>
<event>
 8    1  0.3622165E-015  0.9000781E+02  0.7816164E-02  0.1186339E+00
        -11   -1    0    0    0    0  0.00000000000E+00  0.00000000000E+00  0.45593999997E+02  0.45594000000E+02  0.51100000000E-03 0. -1.
         11   -1    0    0    0    0 -0.00000000000E+00 -0.00000000000E+00 -0.45593999997E+02  0.45594000000E+02  0.51100000000E-03 0.  1.
    9900012    2    1    2    0    0 -0.41664086869E+00 -0.94744487407E+00  0.56710888031E+00  0.90007807692E+02  0.90000069953E+02 0.  0.
         23    2    3    3    0    0 -0.23298452548E+02 -0.14862825837E+02 -0.97914197932E+01  0.61293451537E+02  0.53826515926E+02 0.  0.
        -12    1    1    2    0    0  0.41664086869E+00  0.94744487407E+00 -0.56710888031E+00  0.11801923085E+01  0.00000000000E+00 0.  1.
         11    1    4    4    0    0 -0.60699195068E+01 -0.33806679189E+02 -0.96854870856E+01  0.35686750216E+02  0.51100000000E-03 0. -1.
        -11    1    4    4    0    0 -0.17228533041E+02  0.18943853352E+02 -0.10593270763E+00  0.25606701321E+02  0.51100000000E-03 0.  1.
        -12    1    3    3    0    0  0.22881811679E+02  0.13915380963E+02  0.10358528673E+02  0.28714356154E+02  0.00000000000E+00 0.  1.
</event>
<event>
 7    1  0.3622165E-015  0.9000783E+02  0.7816164E-02  0.1186339E+00
        -11   -1    0    0    0    0  0.00000000000E+00  0.00000000000E+00  0.45593999997E+02  0.45594000000E+02  0.51100000000E-03 0. -1.
         11   -1    0    0    0    0 -0.00000000000E+00 -0.00000000000E+00 -0.45593999997E+02  0.45594000000E+02  0.51100000000E-03 0.  1.
    9900012    2    1    2    0    0  0.10289347804E+01 -0.12322605799E+00 -0.56471667933E+00  0.90007832058E+02  0.90000094641E+02 0.  0.
        -12    1    1    2    0    0 -0.10289347804E+01  0.12322605799E+00  0.56471667933E+00  0.11801679421E+01  0.00000000000E+00 0.  1.
         11    1    3    3    0    0 -0.34758449815E+02  0.46694149232E+01 -0.22368007484E+02  0.41596646840E+02  0.51100000000E-03 0. -1.
        -11    1    3    3    0    0  0.59796630091E-01 -0.67787861179E+01  0.68263885334E+01  0.96205559891E+01  0.51100000000E-03 0.  1.
        -12    1    3    3    0    0  0.35727587965E+02  0.19861451367E+01  0.14976902272E+02  0.38790629229E+02  0.00000000000E+00 0.  1.
</event>
<event>
 7    1  0.3622165E-015  0.9000763E+02  0.7816164E-02  0.1186339E+00
        -11   -1    0    0    0    0  0.00000000000E+00  0.00000000000E+00  0.45593999997E+02  0.45594000000E+02  0.51100000000E-03 0. -1.
         11   -1    0    0    0    0 -0.00000000000E+00 -0.00000000000E+00 -0.45593999997E+02  0.45594000000E+02  0.51100000000E-03 0.  1.
    9900012    2    1    2    0    0 -0.16010363638E+00 -0.24222501605E+00  0.11441011322E+01  0.90007629917E+02  0.89999889832E+02 0.  0.
        -12    1    1    2    0    0  0.16010363638E+00  0.24222501605E+00 -0.11441011322E+01  0.11803700833E+01  0.00000000000E+00 0.  1.
         11    1    3    3    0    0  0.32323406189E+02  0.10797645164E+01 -0.13030813491E+02  0.34867901853E+02  0.51100000000E-03 0. -1.
        -11    1    3    3    0    0  0.92764573061E+01  0.30937741882E+01 -0.22750071744E+01  0.10039908206E+02  0.51100000000E-03 0.  1.
        -12    1    3    3    0    0 -0.41759967132E+02 -0.44157637207E+01  0.16449921798E+02  0.45099819858E+02  0.00000000000E+00 0.  1.
</event>
<event>
 7    1  0.3622165E-015  0.9000772E+02  0.7816164E-02  0.1186339E+00
        -11   -1    0    0    0    0  0.00000000000E+00  0.00000000000E+00  0.45593999997E+02  0.45594000000E+02  0.51100000000E-03 0. -1.
         11   -1    0    0    0    0 -0.00000000000E+00 -0.00000000000E+00 -0.45593999997E+02  0.45594000000E+02  0.51100000000E-03 0.  1.
    9900012    2    1    2    0    0  0.82386667686E+00  0.59126748696E+00  0.60390571061E+00  0.90007722215E+02  0.89999983348E+02 0.  0.
        -12    1    1    2    0    0 -0.82386667686E+00 -0.59126748696E+00 -0.60390571061E+00  0.11802777850E+01  0.00000000000E+00 0.  1.
         11    1    3    3    0    0 -0.36951427522E+01  0.44040736127E+01 -0.81928722716E+01  0.10008651291E+02  0.51100000000E-03 0. -1.
        -11    1    3    3    0    0 -0.32764917275E+02  0.79609038904E+01 -0.11904782926E+02  0.35758071139E+02  0.51100000000E-03 0.  1.
         12    1    3    3    0    0  0.37283926704E+02 -0.11773710016E+02  0.20701560908E+02  0.44240999786E+02  0.00000000000E+00 0. -1.
</event>
<event>
 7    1  0.3622165E-015  0.9000775E+02  0.7816164E-02  0.1186339E+00
        -11   -1    0    0    0    0  0.00000000000E+00  0.00000000000E+00  0.45593999997E+02  0.45594000000E+02  0.51100000000E-03 0. -1.
         11   -1    0    0    0    0 -0.00000000000E+00 -0.00000000000E+00 -0.45593999997E+02  0.45594000000E+02  0.51100000000E-03 0.  1.
    9900012    2    1    2    0    0 -0.90754448126E+00  0.26044063451E+00  0.70818704674E+00  0.90007747822E+02  0.90000009294E+02 0.  0.
        -12    1    1    2    0    0  0.90754448126E+00 -0.26044063451E+00 -0.70818704674E+00  0.11802521776E+01  0.00000000000E+00 0.  1.
         11    1    3    3    0    0 -0.27227463761E+02  0.10294136953E+02  0.10070942106E+02  0.30801427136E+02  0.51100000000E-03 0. -1.
        -11    1    3    3    0    0 -0.12298836071E+02  0.71081853862E+01  0.42297304861E+01  0.14821548111E+02  0.51100000000E-03 0.  1.
        -12    1    3    3    0    0  0.38618755350E+02 -0.17141881705E+02 -0.13592485545E+02  0.44384772575E+02  0.00000000000E+00 0.  1.
</event>
<event>
 7    1  0.3622165E-015  0.9000782E+02  0.7816164E-02  0.1186339E+00
        -11   -1    0    0    0    0  0.00000000000E+00  0.00000000000E+00  0.45593999997E+02  0.45594000000E+02  0.51100000000E-03 0. -1.
         11   -1    0    0    0    0 -0.00000000000E+00 -0.00000000000E+00 -0.45593999997E+02  0.45594000000E+02  0.51100000000E-03 0.  1.
    9900012    2    1    2    0    0 -0.55840115391E+00  0.10397006635E+01  0.58731116034E-02  0.90007820432E+02  0.90000082862E+02 0.  0.
        -12    1    1    2    0    0  0.55840115391E+00 -0.10397006635E+01 -0.58731116034E-02  0.11801795676E+01  0.00000000000E+00 0.  1.
         11    1    3    3    0    0  0.95960124413E+01  0.15050192981E+01  0.15938474044E+01  0.98432153116E+01  0.51100000000E-03 0. -1.
        -11    1    3    3    0    0 -0.28901541896E+02  0.28503024296E+02  0.13113682427E+02  0.42657826774E+02  0.51100000000E-03 0.  1.
         12    1    3    3    0    0  0.18747128301E+02 -0.28968342930E+02 -0.14701656720E+02  0.37506778347E+02  0.00000000000E+00 0. -1.
</event>
<event>
 7    1  0.3622165E-015  0.9000773E+02  0.7816164E-02  0.1186339E+00
        -11   -1    0    0    0    0  0.00000000000E+00  0.00000000000E+00  0.45593999997E+02  0.45594000000E+02  0.51100000000E-03 0.  1.
         11   -1    0    0    0    0 -0.00000000000E+00 -0.00000000000E+00 -0.45593999997E+02  0.45594000000E+02  0.51100000000E-03 0. -1.
    9900012    2    1    2    0    0 -0.10898586896E+01 -0.43478851807E+00 -0.12725267553E+00  0.90007734665E+02  0.89999995962E+02 0.  0.
        -12    1    1    2    0    0  0.10898586896E+01  0.43478851807E+00  0.12725267553E+00  0.11802653355E+01  0.00000000000E+00 0.  1.
         11    1    3    3    0    0 -0.20682504504E+01 -0.12118119627E+02 -0.30314661259E+01  0.12661606152E+02  0.51100000000E-03 0. -1.
        -11    1    3    3    0    0  0.41556805099E+01 -0.22310909647E+02  0.27212786014E+02  0.35434193835E+02  0.51100000000E-03 0.  1.
         12    1    3    3    0    0 -0.31772887491E+01  0.33994240756E+02 -0.24308572564E+02  0.41911934678E+02  0.00000000000E+00 0. -1.
</event>
<event>
 7    1  0.3622165E-015  0.9000772E+02  0.7816164E-02  0.1186339E+00
        -11   -1    0    0    0    0  0.00000000000E+00  0.00000000000E+00  0.45593999997E+02  0.45594000000E+02  0.51100000000E-03 0.  1.
         11   -1    0    0    0    0 -0.00000000000E+00 -0.00000000000E+00 -0.45593999997E+02  0.45594000000E+02  0.51100000000E-03 0. -1.
    9900012    2    1    2    0    0  0.26077660438E+00 -0.82108476920E+00 -0.80676529974E+00  0.90007722539E+02  0.89999983677E+02 0.  0.
        -12    1    1    2    0    0 -0.26077660438E+00  0.82108476920E+00  0.80676529974E+00  0.11802774608E+01  0.00000000000E+00 0.  1.
         11    1    3    3    0    0  0.85667763757E+01 -0.10776061943E+02 -0.63807673611E+01  0.15173244902E+02  0.51100000000E-03 0. -1.
        -11    1    3    3    0    0  0.29986164046E+02  0.95347615131E+01  0.15783692558E+02  0.35202367283E+02  0.51100000000E-03 0.  1.
         12    1    3    3    0    0 -0.38292163818E+02  0.42021566115E+00 -0.10209690497E+02  0.39632110354E+02  0.00000000000E+00 0. -1.
</event>
<event>
 7    1  0.3622165E-015  0.9000766E+02  0.7816164E-02  0.1186339E+00
        -11   -1    0    0    0    0  0.00000000000E+00  0.00000000000E+00  0.45593999997E+02  0.45594000000E+02  0.51100000000E-03 0.  1.
         11   -1    0    0    0    0 -0.00000000000E+00 -0.00000000000E+00 -0.45593999997E+02  0.45594000000E+02  0.51100000000E-03 0. -1.
    9900012    2    1    2    0    0 -0.12184199978E+00 -0.83871923934E+00 -0.82152799326E+00  0.90007659507E+02  0.89999919813E+02 0.  0.
        -12    1    1    2    0    0  0.12184199978E+00  0.83871923934E+00  0.82152799326E+00  0.11803404928E+01  0.00000000000E+00 0.  1.
         11    1    3    3    0    0 -0.35729100004E+02  0.15424257787E+02  0.14358843741E+02  0.41480751069E+02  0.51100000000E-03 0. -1.
        -11    1    3    3    0    0  0.17341365447E+01  0.55149319142E+01 -0.12423736127E+01  0.59131375790E+01  0.51100000000E-03 0.  1.
        -12    1    3    3    0    0  0.33873121459E+02 -0.21777908941E+02 -0.13937998122E+02  0.42613770860E+02  0.00000000000E+00 0.  1.
</event>
<event>
 7    1  0.3622165E-015  0.9000778E+02  0.7816164E-02  0.1186339E+00
        -11   -1    0    0    0    0  0.00000000000E+00  0.00000000000E+00  0.45593999997E+02  0.45594000000E+02  0.51100000000E-03 0. -1.
         11   -1    0    0    0    0 -0.00000000000E+00 -0.00000000000E+00 -0.45593999997E+02  0.45594000000E+02  0.51100000000E-03 0.  1.
    9900012    2    1    2    0    0  0.77074891361E+00  0.39241894313E+00  0.80304200501E+00  0.90007778421E+02  0.90000040296E+02 0.  0.
        -12    1    1    2    0    0 -0.77074891361E+00 -0.39241894313E+00 -0.80304200501E+00  0.11802215794E+01  0.00000000000E+00 0.  1.
         11    1    3    3    0    0 -0.19694817301E+02 -0.25034702081E+02  0.18166718547E+02  0.36669494131E+02  0.51100000000E-03 0. -1.
        -11    1    3    3    0    0 -0.10296275905E+02  0.55641377641E+01  0.20674089658E+01  0.11884742600E+02  0.51100000000E-03 0.  1.
        -12    1    3    3    0    0  0.30761842120E+02  0.19862983260E+02 -0.19431085508E+02  0.41453541690E+02  0.00000000000E+00 0.  1.
</event>
<event>
 7    1  0.3622165E-015  0.9000770E+02  0.7816164E-02  0.1186339E+00
        -11   -1    0    0    0    0  0.00000000000E+00  0.00000000000E+00  0.45593999997E+02  0.45594000000E+02  0.51100000000E-03 0.  1.
         11   -1    0    0    0    0 -0.00000000000E+00 -0.00000000000E+00 -0.45593999997E+02  0.45594000000E+02  0.51100000000E-03 0. -1.
    9900012    2    1    2    0    0 -0.94295937972E+00  0.56773061791E+00  0.42617923604E+00  0.90007695299E+02  0.89999956077E+02 0.  0.
        -12    1    1    2    0    0  0.94295937972E+00 -0.56773061791E+00 -0.42617923604E+00  0.11803047011E+01  0.00000000000E+00 0.  1.
         11    1    3    3    0    0  0.96534270466E+00 -0.43728920973E+01 -0.90660984315E+01  0.10111785839E+02  0.51100000000E-03 0. -1.
        -11    1    3    3    0    0  0.68080810506E+01  0.39567314904E+02 -0.66742666354E+01  0.40699732329E+02  0.51100000000E-03 0.  1.
         12    1    3    3    0    0 -0.87163831350E+01 -0.34626692189E+02  0.16166544303E+02  0.39196177130E+02  0.00000000000E+00 0. -1.
</event>
<event>
 7    1  0.3622165E-015  0.9000774E+02  0.7816164E-02  0.1186339E+00
        -11   -1    0    0    0    0  0.00000000000E+00  0.00000000000E+00  0.45593999997E+02  0.45594000000E+02  0.51100000000E-03 0.  1.
         11   -1    0    0    0    0 -0.00000000000E+00 -0.00000000000E+00 -0.45593999997E+02  0.45594000000E+02  0.51100000000E-03 0. -1.
    9900012    2    1    2    0    0 -0.49820985457E+00 -0.55644190010E+00 -0.91387297249E+00  0.90007743902E+02  0.90000005321E+02 0.  0.
        -12    1    1    2    0    0  0.49820985457E+00  0.55644190010E+00  0.91387297249E+00  0.11802560982E+01  0.00000000000E+00 0.  1.
         11    1    3    3    0    0  0.37652263291E+01 -0.38705066264E+01  0.54901704684E+01  0.77006313305E+01  0.51100000000E-03 0. -1.
        -11    1    3    3    0    0  0.80400198308E+01 -0.29468353073E+02  0.21649749062E+02  0.37439783472E+02  0.51100000000E-03 0.  1.
         12    1    3    3    0    0 -0.12303456014E+02  0.32782417800E+02 -0.28053792503E+02  0.44867329099E+02  0.00000000000E+00 0. -1.
</event>
<event>
 7    1  0.3622165E-015  0.9000876E+02  0.7816164E-02  0.1186337E+00
        -11   -1    0    0    0    0  0.00000000000E+00  0.00000000000E+00  0.45593999997E+02  0.45594000000E+02  0.51100000000E-03 0.  1.
         11   -1    0    0    0    0 -0.00000000000E+00 -0.00000000000E+00 -0.45593999997E+02  0.45594000000E+02  0.51100000000E-03 0. -1.
    9900012    2    1    2    0    0  0.75930726975E+00 -0.55867586173E+00  0.70847871629E+00  0.90008759422E+02  0.90001034241E+02 0.  0.
        -12    1    1    2    0    0 -0.75930726975E+00  0.55867586173E+00 -0.70847871629E+00  0.11792405776E+01  0.00000000000E+00 0.  1.
         11    1    3    3    0    0 -0.13888390022E+02 -0.26561591007E+02  0.13039052029E+02  0.32686730829E+02  0.51100000000E-03 0. -1.
        -11    1    3    3    0    0 -0.10180208802E+02 -0.75213327438E+01 -0.88821308239E+01  0.15462837570E+02  0.51100000000E-03 0.  1.
        -12    1    3    3    0    0  0.24827906093E+02  0.33524247889E+02 -0.34484424890E+01  0.41859191023E+02  0.00000000000E+00 0.  1.
</event>
<event>
 7    1  0.3622165E-015  0.9000775E+02  0.7816164E-02  0.1186339E+00
        -11   -1    0    0    0    0  0.00000000000E+00  0.00000000000E+00  0.45593999997E+02  0.45594000000E+02  0.51100000000E-03 0.  1.
         11   -1    0    0    0    0 -0.00000000000E+00 -0.00000000000E+00 -0.45593999997E+02  0.45594000000E+02  0.51100000000E-03 0. -1.
    9900012    2    1    2    0    0 -0.49487221253E+00 -0.32310236977E+00 -0.10216165520E+01  0.90007748320E+02  0.90000009798E+02 0.  0.
        -12    1    1    2    0    0  0.49487221253E+00  0.32310236977E+00  0.10216165520E+01  0.11802516797E+01  0.00000000000E+00 0.  1.
         11    1    3    3    0    0 -0.35662006308E+02  0.19222520879E+02 -0.34509346282E+01  0.40659475562E+02  0.51100000000E-03 0. -1.
        -11    1    3    3    0    0 -0.12838888730E+01 -0.65232359050E+01 -0.68482362876E+01  0.95445962629E+01  0.51100000000E-03 0.  1.
        -12    1    3    3    0    0  0.36451022969E+02 -0.13022387344E+02  0.92775543637E+01  0.39803676496E+02  0.00000000000E+00 0.  1.
</event>
<event>
 7    1  0.3622165E-015  0.9000797E+02  0.7816164E-02  0.1186339E+00
        -11   -1    0    0    0    0  0.00000000000E+00  0.00000000000E+00  0.45593999997E+02  0.45594000000E+02  0.51100000000E-03 0.  1.
         11   -1    0    0    0    0 -0.00000000000E+00 -0.00000000000E+00 -0.45593999997E+02  0.45594000000E+02  0.51100000000E-03 0. -1.
    9900012    2    1    2    0    0  0.11328271300E+00  0.40459104175E+00 -0.11026968590E+01  0.90007971506E+02  0.90000235929E+02 0.  0.
        -12    1    1    2    0    0 -0.11328271300E+00 -0.40459104175E+00  0.11026968590E+01  0.11800284941E+01  0.00000000000E+00 0.  1.
         11    1    3    3    0    0 -0.46902071113E+01 -0.62863059014E+01 -0.48911113895E+01  0.92433032796E+01  0.51100000000E-03 0. -1.
        -11    1    3    3    0    0  0.41657774970E+02  0.88627768614E+01  0.88534678981E+01  0.43500608308E+02  0.51100000000E-03 0.  1.
         12    1    3    3    0    0 -0.36854285145E+02 -0.21718799182E+01 -0.50650533676E+01  0.37264059918E+02  0.00000000000E+00 0. -1.
</event>
<event>
 7    1  0.3622165E-015  0.9000791E+02  0.7816164E-02  0.1186339E+00
        -11   -1    0    0    0    0  0.00000000000E+00  0.00000000000E+00  0.45593999997E+02  0.45594000000E+02  0.51100000000E-03 0.  1.
         11   -1    0    0    0    0 -0.00000000000E+00 -0.00000000000E+00 -0.45593999997E+02  0.45594000000E+02  0.51100000000E-03 0. -1.
    9900012    2    1    2    0    0  0.99818100734E+00 -0.17594201196E+00 -0.60439594166E+00  0.90007908745E+02  0.90000172341E+02 0.  0.
        -12    1    1    2    0    0 -0.99818100734E+00  0.17594201196E+00  0.60439594166E+00  0.11800912546E+01  0.00000000000E+00 0.  1.
         11    1    3    3    0    0  0.32931081207E+02  0.13601435264E+02 -0.13503255185E+02  0.38102402176E+02  0.51100000000E-03 0. -1.
        -11    1    3    3    0    0  0.68308055253E+01  0.13889960301E+01  0.69750515096E+01  0.98610627175E+01  0.51100000000E-03 0.  1.
        -12    1    3    3    0    0 -0.38763705725E+02 -0.15166373306E+02  0.59238077342E+01  0.42044443852E+02  0.00000000000E+00 0.  1.
</event>
<event>
 7    1  0.3622165E-015  0.9000771E+02  0.7816164E-02  0.1186339E+00
        -11   -1    0    0    0    0  0.00000000000E+00  0.00000000000E+00  0.45593999997E+02  0.45594000000E+02  0.51100000000E-03 0.  1.
         11   -1    0    0    0    0 -0.00000000000E+00 -0.00000000000E+00 -0.45593999997E+02  0.45594000000E+02  0.51100000000E-03 0. -1.
    9900012    2    1    2    0    0  0.29598160891E+00 -0.10862489474E+01 -0.35431555479E+00  0.90007711306E+02  0.89999972295E+02 0.  0.
        -12    1    1    2    0    0 -0.29598160891E+00  0.10862489474E+01  0.35431555479E+00  0.11802886939E+01  0.00000000000E+00 0.  1.
         11    1    3    3    0    0 -0.72382025295E+01 -0.63178479631E+00  0.59148565508E+01  0.93688983432E+01  0.51100000000E-03 0. -1.
        -11    1    3    3    0    0  0.10644865534E+02 -0.20888461687E+02  0.30493353866E+02  0.38464082260E+02  0.51100000000E-03 0.  1.
         12    1    3    3    0    0 -0.31106813953E+01  0.20433997536E+02 -0.36762525971E+02  0.42174730703E+02  0.00000000000E+00 0. -1.
</event>
<event>
 7    1  0.3622165E-015  0.9000771E+02  0.7816164E-02  0.1186339E+00
        -11   -1    0    0    0    0  0.00000000000E+00  0.00000000000E+00  0.45593999997E+02  0.45594000000E+02  0.51100000000E-03 0.  1.
         11   -1    0    0    0    0 -0.00000000000E+00 -0.00000000000E+00 -0.45593999997E+02  0.45594000000E+02  0.51100000000E-03 0. -1.
    9900012    2    1    2    0    0  0.62444680329E+00 -0.13313392826E+00 -0.99268169997E+00  0.90007713844E+02  0.89999974867E+02 0.  0.
        -12    1    1    2    0    0 -0.62444680329E+00  0.13313392826E+00  0.99268169997E+00  0.11802861562E+01  0.00000000000E+00 0.  1.
         11    1    3    3    0    0  0.66251528443E+01 -0.10157398356E+00  0.29871722761E+01  0.72681611122E+01  0.51100000000E-03 0. -1.
        -11    1    3    3    0    0  0.35931878495E+02  0.11589023661E+02  0.56465752770E+01  0.38174457092E+02  0.51100000000E-03 0.  1.
         12    1    3    3    0    0 -0.41932584536E+02 -0.11620583606E+02 -0.96264292531E+01  0.44565095640E+02  0.00000000000E+00 0. -1.
</event>
<event>
 7    1  0.3622165E-015  0.9000778E+02  0.7816164E-02  0.1186339E+00
        -11   -1    0    0    0    0  0.00000000000E+00  0.00000000000E+00  0.45593999997E+02  0.45594000000E+02  0.51100000000E-03 0. -1.
         11   -1    0    0    0    0 -0.00000000000E+00 -0.00000000000E+00 -0.45593999997E+02  0.45594000000E+02  0.51100000000E-03 0.  1.
    9900012    2    1    2    0    0 -0.52312340734E+00 -0.65830787790E-01  0.10558975136E+01  0.90007783346E+02  0.90000045286E+02 0.  0.
        -12    1    1    2    0    0  0.52312340734E+00  0.65830787790E-01 -0.10558975136E+01  0.11802166543E+01  0.00000000000E+00 0.  1.
         11    1    3    3    0    0 -0.67180404242E+01  0.55556647087E+01  0.58627163596E+01  0.10505661372E+02  0.51100000000E-03 0. -1.
        -11    1    3    3    0    0 -0.31719678647E+02  0.13467116738E+02 -0.11916057186E+02  0.36462222448E+02  0.51100000000E-03 0.  1.
         12    1    3    3    0    0  0.37914595664E+02 -0.19088612235E+02  0.71092383397E+01  0.43039899526E+02  0.00000000000E+00 0. -1.
</event>
<event>
 7    1  0.3622165E-015  0.9000821E+02  0.7816164E-02  0.1186338E+00
        -11   -1    0    0    0    0  0.00000000000E+00  0.00000000000E+00  0.45593999997E+02  0.45594000000E+02  0.51100000000E-03 0.  1.
         11   -1    0    0    0    0 -0.00000000000E+00 -0.00000000000E+00 -0.45593999997E+02  0.45594000000E+02  0.51100000000E-03 0. -1.
    9900012    2    1    2    0    0  0.79899363888E+00  0.63628903602E+00 -0.59046484150E+00  0.90008210484E+02  0.90000478061E+02 0.  0.
        -12    1    1    2    0    0 -0.79899363888E+00 -0.63628903602E+00  0.59046484150E+00  0.11797895157E+01  0.00000000000E+00 0.  1.
         11    1    3    3    0    0  0.14592716739E+02 -0.34049245470E+02 -0.13257207164E+02  0.39345292488E+02  0.51100000000E-03 0. -1.
        -11    1    3    3    0    0  0.27740187735E+01  0.30092700384E+01 -0.82758906672E+01  0.92326189630E+01  0.51100000000E-03 0.  1.
        -12    1    3    3    0    0 -0.16567741874E+02  0.31676264468E+02  0.20942632990E+02  0.41430299033E+02  0.00000000000E+00 0.  1.
</event>
<event>
 7    1  0.3622165E-015  0.9000772E+02  0.7816164E-02  0.1186339E+00
        -11   -1    0    0    0    0  0.00000000000E+00  0.00000000000E+00  0.45593999997E+02  0.45594000000E+02  0.51100000000E-03 0.  1.
         11   -1    0    0    0    0 -0.00000000000E+00 -0.00000000000E+00 -0.45593999997E+02  0.45594000000E+02  0.51100000000E-03 0. -1.
    9900012    2    1    2    0    0  0.55929518793E+00  0.42678279570E+00 -0.94768044800E+00  0.90007723383E+02  0.89999984531E+02 0.  0.
        -12    1    1    2    0    0 -0.55929518793E+00 -0.42678279570E+00  0.94768044800E+00  0.11802766173E+01  0.00000000000E+00 0.  1.
         11    1    3    3    0    0 -0.34620630336E+02 -0.80708885446E+01  0.95374513466E+01  0.36806117226E+02  0.51100000000E-03 0. -1.
        -11    1    3    3    0    0 -0.52650258139E+01  0.61290487166E+01  0.53631578946E+01  0.96978965686E+01  0.51100000000E-03 0.  1.
        -12    1    3    3    0    0  0.40444951338E+02  0.23686226237E+01 -0.15848289689E+02  0.43503709588E+02  0.00000000000E+00 0.  1.
</event>
<event>
 7    1  0.3622165E-015  0.9000739E+02  0.7816164E-02  0.1186340E+00
        -11   -1    0    0    0    0  0.00000000000E+00  0.00000000000E+00  0.45593999997E+02  0.45594000000E+02  0.51100000000E-03 0.  1.
         11   -1    0    0    0    0 -0.00000000000E+00 -0.00000000000E+00 -0.45593999997E+02  0.45594000000E+02  0.51100000000E-03 0. -1.
    9900012    2    1    2    0    0 -0.10054305939E+01  0.50001179297E+00  0.36459827121E+00  0.90007392372E+02  0.89999649150E+02 0.  0.
        -12    1    1    2    0    0  0.10054305939E+01 -0.50001179297E+00 -0.36459827121E+00  0.11806076281E+01  0.00000000000E+00 0.  1.
         11    1    3    3    0    0 -0.48679894094E+01  0.55356443009E+01  0.54682958695E+01  0.91783952134E+01  0.51100000000E-03 0. -1.
        -11    1    3    3    0    0  0.19923504058E+02 -0.34488795892E+02  0.14005592609E+02  0.42220607298E+02  0.51100000000E-03 0.  1.
         12    1    3    3    0    0 -0.16060945243E+02  0.29453163384E+02 -0.19109290207E+02  0.38608389861E+02  0.00000000000E+00 0. -1.
</event>
<event>
 7    1  0.3622165E-015  0.9000770E+02  0.7816164E-02  0.1186339E+00
        -11   -1    0    0    0    0  0.00000000000E+00  0.00000000000E+00  0.45593999997E+02  0.45594000000E+02  0.51100000000E-03 0.  1.
         11   -1    0    0    0    0 -0.00000000000E+00 -0.00000000000E+00 -0.45593999997E+02  0.45594000000E+02  0.51100000000E-03 0. -1.
    9900012    2    1    2    0    0  0.33252279485E+00 -0.69102677696E+00 -0.89722925145E+00  0.90007699299E+02  0.89999960130E+02 0.  0.
        -12    1    1    2    0    0 -0.33252279485E+00  0.69102677696E+00  0.89722925145E+00  0.11803007012E+01  0.00000000000E+00 0.  1.
         11    1    3    3    0    0  0.54439237194E+01 -0.86867324922E+01 -0.89175073885E+00  0.10290327813E+02  0.51100000000E-03 0. -1.
        -11    1    3    3    0    0  0.27206856772E+02  0.27318804386E+01  0.26130338424E+02  0.37821565443E+02  0.51100000000E-03 0.  1.
         12    1    3    3    0    0 -0.32318257697E+02  0.52638252766E+01 -0.26135816936E+02  0.41895806043E+02  0.00000000000E+00 0. -1.
</event>
<event>
 7    1  0.3622165E-015  0.9000775E+02  0.7816164E-02  0.1186339E+00
        -11   -1    0    0    0    0  0.00000000000E+00  0.00000000000E+00  0.45593999997E+02  0.45594000000E+02  0.51100000000E-03 0.  1.
         11   -1    0    0    0    0 -0.00000000000E+00 -0.00000000000E+00 -0.45593999997E+02  0.45594000000E+02  0.51100000000E-03 0. -1.
    9900012    2    1    2    0    0 -0.88766670106E+00 -0.35883424702E-01 -0.77701090395E+00  0.90007751832E+02  0.90000013357E+02 0.  0.
        -12    1    1    2    0    0  0.88766670106E+00  0.35883424702E-01  0.77701090395E+00  0.11802481676E+01  0.00000000000E+00 0.  1.
         11    1    3    3    0    0  0.26742082109E+02  0.43102725833E+01 -0.26210277204E+02  0.37692121679E+02  0.51100000000E-03 0. -1.
        -11    1    3    3    0    0  0.17562713296E+01 -0.10350883664E+02 -0.30704741989E+01  0.10938605655E+02  0.51100000000E-03 0.  1.
        -12    1    3    3    0    0 -0.29386020140E+02  0.60047276563E+01  0.28503740499E+02  0.41377024498E+02  0.00000000000E+00 0.  1.
</event>
<event>
 7    1  0.3622165E-015  0.9000770E+02  0.7816164E-02  0.1186339E+00
        -11   -1    0    0    0    0  0.00000000000E+00  0.00000000000E+00  0.45593999997E+02  0.45594000000E+02  0.51100000000E-03 0. -1.
         11   -1    0    0    0    0 -0.00000000000E+00 -0.00000000000E+00 -0.45593999997E+02  0.45594000000E+02  0.51100000000E-03 0.  1.
    9900012    2    1    2    0    0  0.33559824608E+00  0.65369947610E-01  0.11296905746E+01  0.90007703339E+02  0.89999964223E+02 0.  0.
        -12    1    1    2    0    0 -0.33559824608E+00 -0.65369947610E-01 -0.11296905746E+01  0.11802966606E+01  0.00000000000E+00 0.  1.
         11    1    3    3    0    0  0.19257709256E+02  0.27724880122E+02  0.11683911853E+02  0.35721732041E+02  0.51100000000E-03 0. -1.
        -11    1    3    3    0    0  0.65718278947E+01  0.73580919606E+01 -0.30467097477E+01  0.10325351313E+02  0.51100000000E-03 0.  1.
        -12    1    3    3    0    0 -0.25493938905E+02 -0.35017602135E+02 -0.75075115304E+01  0.43960619986E+02  0.00000000000E+00 0.  1.
</event>
<event>
 7    1  0.3622165E-015  0.9000773E+02  0.7816164E-02  0.1186339E+00
        -11   -1    0    0    0    0  0.00000000000E+00  0.00000000000E+00  0.45593999997E+02  0.45594000000E+02  0.51100000000E-03 0.  1.
         11   -1    0    0    0    0 -0.00000000000E+00 -0.00000000000E+00 -0.45593999997E+02  0.45594000000E+02  0.51100000000E-03 0. -1.
    9900012    2    1    2    0    0 -0.11714293996E+01 -0.35935717130E-01  0.13960858700E+00  0.90007733601E+02  0.89999994885E+02 0.  0.
        -12    1    1    2    0    0  0.11714293996E+01  0.35935717130E-01 -0.13960858700E+00  0.11802663986E+01  0.00000000000E+00 0.  1.
         11    1    3    3    0    0 -0.93979613169E+01  0.43016519920E+00 -0.35790648806E+01  0.10065606027E+02  0.51100000000E-03 0. -1.
        -11    1    3    3    0    0 -0.28555761217E+01  0.38111374456E+02  0.95233526303E+01  0.39386868669E+02  0.51100000000E-03 0.  1.
         12    1    3    3    0    0  0.11082108039E+02 -0.38577475373E+02 -0.58046791627E+01  0.40555258906E+02  0.00000000000E+00 0. -1.
</event>
<event>
 7    1  0.3622165E-015  0.9000763E+02  0.7816164E-02  0.1186339E+00
        -11   -1    0    0    0    0  0.00000000000E+00  0.00000000000E+00  0.45593999997E+02  0.45594000000E+02  0.51100000000E-03 0. -1.
         11   -1    0    0    0    0 -0.00000000000E+00 -0.00000000000E+00 -0.45593999997E+02  0.45594000000E+02  0.51100000000E-03 0.  1.
    9900012    2    1    2    0    0 -0.56396907450E+00  0.86389016066E+00 -0.57350258824E+00  0.90007630335E+02  0.89999890256E+02 0.  0.
        -12    1    1    2    0    0  0.56396907450E+00 -0.86389016066E+00  0.57350258824E+00  0.11803696647E+01  0.00000000000E+00 0.  1.
         11    1    3    3    0    0  0.40171800983E+02 -0.64405388296E+01  0.66991340313E+01  0.41232663407E+02  0.51100000000E-03 0. -1.
        -11    1    3    3    0    0 -0.63360092139E+01 -0.19852229598E+01  0.76629050747E+01  0.10139341074E+02  0.51100000000E-03 0.  1.
        -12    1    3    3    0    0 -0.34399760844E+02  0.92896519500E+01 -0.14935541694E+02  0.38635625854E+02  0.00000000000E+00 0.  1.
</event>
<event>
 7    1  0.3622165E-015  0.9000766E+02  0.7816164E-02  0.1186339E+00
        -11   -1    0    0    0    0  0.00000000000E+00  0.00000000000E+00  0.45593999997E+02  0.45594000000E+02  0.51100000000E-03 0. -1.
         11   -1    0    0    0    0 -0.00000000000E+00 -0.00000000000E+00 -0.45593999997E+02  0.45594000000E+02  0.51100000000E-03 0.  1.
    9900012    2    1    2    0    0 -0.51990557509E+00  0.10558782898E+01  0.89511409128E-01  0.90007664004E+02  0.89999924369E+02 0.  0.
        -12    1    1    2    0    0  0.51990557509E+00 -0.10558782898E+01 -0.89511409128E-01  0.11803359955E+01  0.00000000000E+00 0.  1.
         11    1    3    3    0    0  0.18348929713E+02  0.23206696893E+02 -0.26401556763E+02  0.39651938188E+02  0.51100000000E-03 0. -1.
        -11    1    3    3    0    0 -0.50050382061E+01 -0.66806732544E+00 -0.67433586887E+01  0.84243461504E+01  0.51100000000E-03 0.  1.
        -12    1    3    3    0    0 -0.13863797082E+02 -0.21482751277E+02  0.33234426861E+02  0.41931379666E+02  0.00000000000E+00 0.  1.
</event>
<event>
 7    1  0.3622165E-015  0.9000774E+02  0.7816164E-02  0.1186339E+00
        -11   -1    0    0    0    0  0.00000000000E+00  0.00000000000E+00  0.45593999997E+02  0.45594000000E+02  0.51100000000E-03 0.  1.
         11   -1    0    0    0    0 -0.00000000000E+00 -0.00000000000E+00 -0.45593999997E+02  0.45594000000E+02  0.51100000000E-03 0. -1.
    9900012    2    1    2    0    0  0.33353702561E+00  0.10939642238E+01 -0.29157390699E+00  0.90007737312E+02  0.89999998644E+02 0.  0.
        -12    1    1    2    0    0 -0.33353702561E+00 -0.10939642238E+01  0.29157390699E+00  0.11802626884E+01  0.00000000000E+00 0.  1.
         11    1    3    3    0    0  0.36897768908E+01 -0.33826092933E+02 -0.93568930111E+01  0.35289806796E+02  0.51100000000E-03 0. -1.
        -11    1    3    3    0    0 -0.33333351213E+01 -0.91953546069E+01  0.61281305025E+00  0.98000617076E+01  0.51100000000E-03 0.  1.
        -12    1    3    3    0    0 -0.22904743917E-01  0.44115411763E+02  0.84525060538E+01  0.44917868808E+02  0.00000000000E+00 0.  1.
</event>
<event>
 7    1  0.3622165E-015  0.9000777E+02  0.7816164E-02  0.1186339E+00
        -11   -1    0    0    0    0  0.00000000000E+00  0.00000000000E+00  0.45593999997E+02  0.45594000000E+02  0.51100000000E-03 0. -1.
         11   -1    0    0    0    0 -0.00000000000E+00 -0.00000000000E+00 -0.45593999997E+02  0.45594000000E+02  0.51100000000E-03 0.  1.
    9900012    2    1    2    0    0 -0.50372767633E+00 -0.59624729722E+00  0.88526299142E+00  0.90007769948E+02  0.90000031711E+02 0.  0.
        -12    1    1    2    0    0  0.50372767633E+00  0.59624729722E+00 -0.88526299142E+00  0.11802300519E+01  0.00000000000E+00 0.  1.
         11    1    3    3    0    0  0.66552461152E+00  0.16016617600E+02  0.17678258931E+01  0.16127621368E+02  0.51100000000E-03 0. -1.
        -11    1    3    3    0    0 -0.54250949600E+00  0.86730442643E+01 -0.32355972422E+02  0.33502611316E+02  0.51100000000E-03 0.  1.
         12    1    3    3    0    0 -0.62674279185E+00 -0.25285909161E+02  0.31473409521E+02  0.40377537264E+02  0.00000000000E+00 0. -1.
</event>
<event>
 7    1  0.3622165E-015  0.9000777E+02  0.7816164E-02  0.1186339E+00
        -11   -1    0    0    0    0  0.00000000000E+00  0.00000000000E+00  0.45593999997E+02  0.45594000000E+02  0.51100000000E-03 0. -1.
         11   -1    0    0    0    0 -0.00000000000E+00 -0.00000000000E+00 -0.45593999997E+02  0.45594000000E+02  0.51100000000E-03 0.  1.
    9900012    2    1    2    0    0  0.61137273505E+00  0.38981185326E+00  0.93124180232E+00  0.90007770702E+02  0.90000032475E+02 0.  0.
        -12    1    1    2    0    0 -0.61137273505E+00 -0.38981185326E+00 -0.93124180232E+00  0.11802292983E+01  0.00000000000E+00 0.  1.
         11    1    3    3    0    0 -0.15416666398E+02  0.27425048257E+02 -0.14060093265E+02  0.34460021730E+02  0.51100000000E-03 0. -1.
        -11    1    3    3    0    0 -0.45743875668E+01  0.83381214687E+01 -0.41273446026E+01  0.10367461838E+02  0.51100000000E-03 0.  1.
        -12    1    3    3    0    0  0.20602426700E+02 -0.35373357873E+02  0.19118679670E+02  0.45180287133E+02  0.00000000000E+00 0.  1.
</event>
<event>
 7    1  0.3622165E-015  0.9000781E+02  0.7816164E-02  0.1186339E+00
        -11   -1    0    0    0    0  0.00000000000E+00  0.00000000000E+00  0.45593999997E+02  0.45594000000E+02  0.51100000000E-03 0. -1.
         11   -1    0    0    0    0 -0.00000000000E+00 -0.00000000000E+00 -0.45593999997E+02  0.45594000000E+02  0.51100000000E-03 0.  1.
    9900012    2    1    2    0    0 -0.66119418879E+00  0.49926734756E+00  0.84047243086E+00  0.90007813766E+02  0.90000076108E+02 0.  0.
        -12    1    1    2    0    0  0.66119418879E+00 -0.49926734756E+00 -0.84047243086E+00  0.11801862339E+01  0.00000000000E+00 0.  1.
         11    1    3    3    0    0 -0.37254305975E+01 -0.14157286193E+02 -0.17662709277E+00  0.14640313620E+02  0.51100000000E-03 0. -1.
        -11    1    3    3    0    0  0.29560825399E+02  0.31438119873E+02 -0.49663098852E+01  0.43438024973E+02  0.51100000000E-03 0.  1.
         12    1    3    3    0    0 -0.26496588990E+02 -0.16781566333E+02  0.59834094088E+01  0.31929475173E+02  0.00000000000E+00 0. -1.
</event>
<event>
 7    1  0.3622165E-015  0.9000770E+02  0.7816164E-02  0.1186339E+00
        -11   -1    0    0    0    0  0.00000000000E+00  0.00000000000E+00  0.45593999997E+02  0.45594000000E+02  0.51100000000E-03 0.  1.
         11   -1    0    0    0    0 -0.00000000000E+00 -0.00000000000E+00 -0.45593999997E+02  0.45594000000E+02  0.51100000000E-03 0. -1.
    9900012    2    1    2    0    0 -0.94208337057E+00  0.45365757656E+00 -0.54751867619E+00  0.90007702167E+02  0.89999963036E+02 0.  0.
        -12    1    1    2    0    0  0.94208337057E+00 -0.45365757656E+00  0.54751867619E+00  0.11802978330E+01  0.00000000000E+00 0.  1.
         11    1    3    3    0    0 -0.93783804995E+01  0.64682789749E+01 -0.36523688776E+02  0.38259279865E+02  0.51100000000E-03 0. -1.
        -11    1    3    3    0    0 -0.40698600706E+01  0.29274798221E+01 -0.55431967655E+01  0.74740169752E+01  0.51100000000E-03 0.  1.
        -12    1    3    3    0    0  0.12506157200E+02 -0.89421012205E+01  0.41519366866E+02  0.44274405327E+02  0.00000000000E+00 0.  1.
</event>
<event>
 7    1  0.3622165E-015  0.9000776E+02  0.7816164E-02  0.1186339E+00
        -11   -1    0    0    0    0  0.00000000000E+00  0.00000000000E+00  0.45593999997E+02  0.45594000000E+02  0.51100000000E-03 0.  1.
         11   -1    0    0    0    0 -0.00000000000E+00 -0.00000000000E+00 -0.45593999997E+02  0.45594000000E+02  0.51100000000E-03 0. -1.
    9900012    2    1    2    0    0  0.96078426106E+00 -0.33834690997E+00 -0.59614068416E+00  0.90007759032E+02  0.90000020651E+02 0.  0.
        -12    1    1    2    0    0 -0.96078426106E+00  0.33834690997E+00  0.59614068416E+00  0.11802409682E+01  0.00000000000E+00 0.  1.
         11    1    3    3    0    0  0.32283060869E+02  0.44285378491E+01 -0.16103783176E+02  0.36347486838E+02  0.51100000000E-03 0. -1.
        -11    1    3    3    0    0  0.79155935457E+01  0.66556365632E+00 -0.46601631178E+01  0.92095991611E+01  0.51100000000E-03 0.  1.
        -12    1    3    3    0    0 -0.39237870154E+02 -0.54324484154E+01  0.20167805609E+02  0.44450673033E+02  0.00000000000E+00 0.  1.
</event>
<event>
 7    1  0.3622165E-015  0.9000756E+02  0.7816164E-02  0.1186339E+00
        -11   -1    0    0    0    0  0.00000000000E+00  0.00000000000E+00  0.45593999997E+02  0.45594000000E+02  0.51100000000E-03 0.  1.
         11   -1    0    0    0    0 -0.00000000000E+00 -0.00000000000E+00 -0.45593999997E+02  0.45594000000E+02  0.51100000000E-03 0. -1.
    9900012    2    1    2    0    0  0.15210517292E+00 -0.14679929818E+00 -0.11613569562E+01  0.90007561100E+02  0.89999820106E+02 0.  0.
        -12    1    1    2    0    0 -0.15210517292E+00  0.14679929818E+00  0.11613569562E+01  0.11804389002E+01  0.00000000000E+00 0.  1.
         11    1    3    3    0    0 -0.65575557930E+01 -0.63987030927E+01  0.12448482285E+01  0.92463282778E+01  0.51100000000E-03 0. -1.
        -11    1    3    3    0    0 -0.35348396477E+02  0.13885869084E+02 -0.14256660736E+01  0.38004723624E+02  0.51100000000E-03 0.  1.
         12    1    3    3    0    0  0.42058057442E+02 -0.76339652898E+01 -0.98053911112E+00  0.42756509198E+02  0.00000000000E+00 0. -1.
</event>
<event>
 7    1  0.3622165E-015  0.9000773E+02  0.7816164E-02  0.1186339E+00
        -11   -1    0    0    0    0  0.00000000000E+00  0.00000000000E+00  0.45593999997E+02  0.45594000000E+02  0.51100000000E-03 0. -1.
         11   -1    0    0    0    0 -0.00000000000E+00 -0.00000000000E+00 -0.45593999997E+02  0.45594000000E+02  0.51100000000E-03 0.  1.
    9900012    2    1    2    0    0 -0.11093103549E+01  0.37117554696E+00 -0.15713530062E+00  0.90007732127E+02  0.89999993391E+02 0.  0.
        -12    1    1    2    0    0  0.11093103549E+01 -0.37117554696E+00  0.15713530062E+00  0.11802678734E+01  0.00000000000E+00 0.  1.
         11    1    3    3    0    0  0.31630864915E+02 -0.35259135016E+01  0.16895989027E+02  0.36033569442E+02  0.51100000000E-03 0. -1.
        -11    1    3    3    0    0  0.56098328116E+01  0.42096204135E+01 -0.13806359704E+02  0.15485693292E+02  0.51100000000E-03 0.  1.
        -12    1    3    3    0    0 -0.38350008081E+02 -0.31253136491E+00 -0.32467646234E+01  0.38488469393E+02  0.00000000000E+00 0.  1.
</event>
<event>
 7    1  0.3622165E-015  0.9000771E+02  0.7816164E-02  0.1186339E+00
        -11   -1    0    0    0    0  0.00000000000E+00  0.00000000000E+00  0.45593999997E+02  0.45594000000E+02  0.51100000000E-03 0.  1.
         11   -1    0    0    0    0 -0.00000000000E+00 -0.00000000000E+00 -0.45593999997E+02  0.45594000000E+02  0.51100000000E-03 0. -1.
    9900012    2    1    2    0    0 -0.94775835484E+00  0.52022450983E+00 -0.47349414590E+00  0.90007713532E+02  0.89999974551E+02 0.  0.
        -12    1    1    2    0    0  0.94775835484E+00 -0.52022450983E+00  0.47349414590E+00  0.11802864678E+01  0.00000000000E+00 0.  1.
         11    1    3    3    0    0  0.11990040182E+02  0.20283489761E+02 -0.29149140670E+02  0.37481374341E+02  0.51100000000E-03 0. -1.
        -11    1    3    3    0    0  0.47237152158E+01 -0.47217941260E+01 -0.71890059803E+01  0.98127790383E+01  0.51100000000E-03 0.  1.
        -12    1    3    3    0    0 -0.17661513753E+02 -0.15041471125E+02  0.35864652505E+02  0.42713560153E+02  0.00000000000E+00 0.  1.
</event>
<event>
 8    1  0.3622165E-015  0.9000828E+02  0.7816164E-02  0.1186338E+00
        -11   -1    0    0    0    0  0.00000000000E+00  0.00000000000E+00  0.45593999997E+02  0.45594000000E+02  0.51100000000E-03 0. -1.
         11   -1    0    0    0    0 -0.00000000000E+00 -0.00000000000E+00 -0.45593999997E+02  0.45594000000E+02  0.51100000000E-03 0.  1.
    9900012    2    1    2    0    0  0.23060375641E+00 -0.10993103821E+01 -0.36066741466E+00  0.90008278680E+02  0.90000547157E+02 0.  0.
         23    2    3    3    0    0  0.12118279120E+02 -0.69326109115E+00 -0.20651786161E+02  0.66487836474E+02  0.62022599329E+02 0.  0.
        -12    1    1    2    0    0 -0.23060375641E+00  0.10993103821E+01  0.36066741466E+00  0.11797213199E+01  0.00000000000E+00 0.  1.
         11    1    4    4    0    0 -0.20287771898E+02 -0.14703879194E+02  0.99364762282E+00  0.25075587487E+02  0.51100000000E-03 0. -1.
        -11    1    4    4    0    0  0.32406051018E+02  0.14010618103E+02 -0.21645433784E+02  0.41412248987E+02  0.51100000000E-03 0.  1.
         12    1    3    3    0    0 -0.11887675364E+02 -0.40604929093E+00  0.20291118747E+02  0.23520442206E+02  0.00000000000E+00 0. -1.
</event>
<event>
 7    1  0.3622165E-015  0.9000785E+02  0.7816164E-02  0.1186339E+00
        -11   -1    0    0    0    0  0.00000000000E+00  0.00000000000E+00  0.45593999997E+02  0.45594000000E+02  0.51100000000E-03 0.  1.
         11   -1    0    0    0    0 -0.00000000000E+00 -0.00000000000E+00 -0.45593999997E+02  0.45594000000E+02  0.51100000000E-03 0. -1.
    9900012    2    1    2    0    0 -0.46597346693E+00 -0.10698066205E+01 -0.17645879056E+00  0.90007849509E+02  0.90000112322E+02 0.  0.
        -12    1    1    2    0    0  0.46597346693E+00  0.10698066205E+01  0.17645879056E+00  0.11801504912E+01  0.00000000000E+00 0.  1.
         11    1    3    3    0    0  0.32761796935E+02  0.20659459266E+02 -0.31865814121E+01  0.38862615673E+02  0.51100000000E-03 0. -1.
        -11    1    3    3    0    0 -0.23590652363E+01  0.43987842830E+01 -0.78209398404E+01  0.92780166094E+01  0.51100000000E-03 0.  1.
        -12    1    3    3    0    0 -0.30868705166E+02 -0.26128050169E+02  0.10831062462E+02  0.41867217227E+02  0.00000000000E+00 0.  1.
</event>
<event>
 7    1  0.3622165E-015  0.9000775E+02  0.7816164E-02  0.1186339E+00
        -11   -1    0    0    0    0  0.00000000000E+00  0.00000000000E+00  0.45593999997E+02  0.45594000000E+02  0.51100000000E-03 0. -1.
         11   -1    0    0    0    0 -0.00000000000E+00 -0.00000000000E+00 -0.45593999997E+02  0.45594000000E+02  0.51100000000E-03 0.  1.
    9900012    2    1    2    0    0 -0.82407664094E-01 -0.27567179714E+00  0.11446365790E+01  0.90007754745E+02  0.90000016308E+02 0.  0.
        -12    1    1    2    0    0  0.82407664094E-01  0.27567179714E+00 -0.11446365790E+01  0.11802452546E+01  0.00000000000E+00 0.  1.
         11    1    3    3    0    0 -0.15562214751E+02  0.73958893527E+01  0.27219498899E+02  0.32214636858E+02  0.51100000000E-03 0. -1.
        -11    1    3    3    0    0 -0.10032786652E+02  0.38552603641E-01  0.91791034404E+01  0.13598317342E+02  0.51100000000E-03 0.  1.
        -12    1    3    3    0    0  0.25512593739E+02 -0.77101137535E+01 -0.35253965761E+02  0.44194800545E+02  0.00000000000E+00 0.  1.
</event>
<event>
 7    1  0.3622165E-015  0.9000778E+02  0.7816164E-02  0.1186339E+00
        -11   -1    0    0    0    0  0.00000000000E+00  0.00000000000E+00  0.45593999997E+02  0.45594000000E+02  0.51100000000E-03 0. -1.
         11   -1    0    0    0    0 -0.00000000000E+00 -0.00000000000E+00 -0.45593999997E+02  0.45594000000E+02  0.51100000000E-03 0.  1.
    9900012    2    1    2    0    0 -0.96584758397E+00  0.67406532540E-01 -0.67492288447E+00  0.90007777099E+02  0.90000038957E+02 0.  0.
        -12    1    1    2    0    0  0.96584758397E+00 -0.67406532540E-01  0.67492288447E+00  0.11802229010E+01  0.00000000000E+00 0.  1.
         11    1    3    3    0    0 -0.39049875031E+02 -0.70892843383E+01  0.14682333580E+02  0.42316918744E+02  0.51100000000E-03 0. -1.
        -11    1    3    3    0    0 -0.17187315681E+01 -0.29407271218E+01  0.90505970424E+00  0.35243506547E+01  0.51100000000E-03 0.  1.
        -12    1    3    3    0    0  0.39802759015E+02  0.10097417993E+02 -0.16262316169E+02  0.44166507701E+02  0.00000000000E+00 0.  1.
</event>
<event>
 7    1  0.4662593E-015  0.9000781E+02  0.7816164E-02  0.1186339E+00
        -11   -1    0    0    0    0  0.00000000000E+00  0.00000000000E+00  0.45593999997E+02  0.45594000000E+02  0.51100000000E-03 0.  1.
         11   -1    0    0    0    0 -0.00000000000E+00 -0.00000000000E+00 -0.45593999997E+02  0.45594000000E+02  0.51100000000E-03 0. -1.
    9900012    2    1    2    0    0 -0.43763835789E+00  0.84691605580E+00  0.69573427705E+00  0.90007813438E+02  0.90000075775E+02 0.  0.
        -12    1    1    2    0    0  0.43763835789E+00 -0.84691605580E+00 -0.69573427705E+00  0.11801865624E+01  0.00000000000E+00 0.  1.
         11    1    3    3    0    0  0.45059215977E+01 -0.85774628938E+01  0.16503608814E+00  0.96903785432E+01  0.51100000000E-03 0. -1.
        -11    1    3    3    0    0  0.37222184336E+02  0.93313793530E+00  0.19132154951E+01  0.37283000777E+02  0.51100000000E-03 0.  1.
         12    1    3    3    0    0 -0.42165744292E+02  0.84912410143E+01 -0.13825173062E+01  0.43034434117E+02  0.00000000000E+00 0. -1.
</event>
<event>
 7    1  0.3622165E-015  0.9000760E+02  0.7816164E-02  0.1186339E+00
        -11   -1    0    0    0    0  0.00000000000E+00  0.00000000000E+00  0.45593999997E+02  0.45594000000E+02  0.51100000000E-03 0. -1.
         11   -1    0    0    0    0 -0.00000000000E+00 -0.00000000000E+00 -0.45593999997E+02  0.45594000000E+02  0.51100000000E-03 0.  1.
    9900012    2    1    2    0    0 -0.25338667728E+00  0.99813452962E+00  0.57693980639E+00  0.90007603080E+02  0.89999862641E+02 0.  0.
        -12    1    1    2    0    0  0.25338667728E+00 -0.99813452962E+00 -0.57693980639E+00  0.11803969195E+01  0.00000000000E+00 0.  1.
         11    1    3    3    0    0  0.87958288133E+01 -0.12753407078E+01  0.40308142167E+02  0.41276378519E+02  0.51100000000E-03 0. -1.
        -11    1    3    3    0    0 -0.33572927459E+01  0.90839171421E+00  0.36004735602E+01  0.50059964250E+01  0.51100000000E-03 0.  1.
        -12    1    3    3    0    0 -0.56919227446E+01  0.13650835232E+01 -0.43331675920E+02  0.43725228137E+02  0.00000000000E+00 0.  1.
</event>
<event>
 7    1  0.3622165E-015  0.9000775E+02  0.7816164E-02  0.1186339E+00
        -11   -1    0    0    0    0  0.00000000000E+00  0.00000000000E+00  0.45593999997E+02  0.45594000000E+02  0.51100000000E-03 0. -1.
         11   -1    0    0    0    0 -0.00000000000E+00 -0.00000000000E+00 -0.45593999997E+02  0.45594000000E+02  0.51100000000E-03 0.  1.
    9900012    2    1    2    0    0 -0.83557882900E+00 -0.71386789339E+00  0.43033926117E+00  0.90007749506E+02  0.90000011000E+02 0.  0.
        -12    1    1    2    0    0  0.83557882900E+00  0.71386789339E+00 -0.43033926117E+00  0.11802504939E+01  0.00000000000E+00 0.  1.
         11    1    3    3    0    0 -0.73561166091E+00  0.19629977970E+02  0.23703977862E+02  0.30785641562E+02  0.51100000000E-03 0. -1.
        -11    1    3    3    0    0 -0.15123766124E+02  0.79897244217E+01 -0.20981400720E+02  0.27069968129E+02  0.51100000000E-03 0.  1.
        -12    1    3    3    0    0  0.15023798956E+02 -0.28333570285E+02 -0.22922378812E+01  0.32152139815E+02  0.00000000000E+00 0.  1.
</event>
<event>
 7    1  0.3622165E-015  0.9000766E+02  0.7816164E-02  0.1186339E+00
        -11   -1    0    0    0    0  0.00000000000E+00  0.00000000000E+00  0.45593999997E+02  0.45594000000E+02  0.51100000000E-03 0. -1.
         11   -1    0    0    0    0 -0.00000000000E+00 -0.00000000000E+00 -0.45593999997E+02  0.45594000000E+02  0.51100000000E-03 0.  1.
    9900012    2    1    2    0    0  0.64155517783E+00  0.54977855412E+00 -0.82423540114E+00  0.90007655346E+02  0.89999915597E+02 0.  0.
        -12    1    1    2    0    0 -0.64155517783E+00 -0.54977855412E+00  0.82423540114E+00  0.11803446536E+01  0.00000000000E+00 0.  1.
         11    1    3    3    0    0 -0.15896563010E+02 -0.17291448042E+02  0.24034082575E+01  0.23610829347E+02  0.51100000000E-03 0. -1.
        -11    1    3    3    0    0 -0.40407304029E+01 -0.16604669528E+02 -0.16872753060E+02  0.24015252412E+02  0.51100000000E-03 0.  1.
        -12    1    3    3    0    0  0.20578848591E+02  0.34445896125E+02  0.13645109401E+02  0.42381573587E+02  0.00000000000E+00 0.  1.
</event>
<event>
 7    1  0.3622165E-015  0.9000774E+02  0.7816164E-02  0.1186339E+00
        -11   -1    0    0    0    0  0.00000000000E+00  0.00000000000E+00  0.45593999997E+02  0.45594000000E+02  0.51100000000E-03 0. -1.
         11   -1    0    0    0    0 -0.00000000000E+00 -0.00000000000E+00 -0.45593999997E+02  0.45594000000E+02  0.51100000000E-03 0.  1.
    9900012    2    1    2    0    0 -0.94507475190E+00 -0.18476568567E+00 -0.68243312239E+00  0.90007737482E+02  0.89999998817E+02 0.  0.
        -12    1    1    2    0    0  0.94507475190E+00  0.18476568567E+00  0.68243312239E+00  0.11802625182E+01  0.00000000000E+00 0.  1.
         11    1    3    3    0    0 -0.47007127832E+01 -0.15480711469E+01 -0.15351920405E+02  0.16129931349E+02  0.51100000000E-03 0. -1.
        -11    1    3    3    0    0  0.28610756829E+02 -0.21842638878E+02 -0.19116841165E+01  0.36046231646E+02  0.51100000000E-03 0.  1.
         12    1    3    3    0    0 -0.24855118798E+02  0.23205944339E+02  0.16581171399E+02  0.37831574486E+02  0.00000000000E+00 0. -1.
</event>
<event>
 7    1  0.3622165E-015  0.9000773E+02  0.7816164E-02  0.1186339E+00
        -11   -1    0    0    0    0  0.00000000000E+00  0.00000000000E+00  0.45593999997E+02  0.45594000000E+02  0.51100000000E-03 0.  1.
         11   -1    0    0    0    0 -0.00000000000E+00 -0.00000000000E+00 -0.45593999997E+02  0.45594000000E+02  0.51100000000E-03 0. -1.
    9900012    2    1    2    0    0 -0.11439207893E+01  0.24462051260E+00  0.15699483742E+00  0.90007728274E+02  0.89999989488E+02 0.  0.
        -12    1    1    2    0    0  0.11439207893E+01 -0.24462051260E+00 -0.15699483742E+00  0.11802717256E+01  0.00000000000E+00 0.  1.
         11    1    3    3    0    0  0.12904762578E+02  0.32247864964E+02 -0.15672457559E+02  0.38106214954E+02  0.51100000000E-03 0. -1.
        -11    1    3    3    0    0 -0.46914544766E+00 -0.20863522014E+01 -0.99268183023E+01  0.10154540109E+02  0.51100000000E-03 0.  1.
        -12    1    3    3    0    0 -0.13579537919E+02 -0.29916892250E+02  0.25756270699E+02  0.41746973211E+02  0.00000000000E+00 0.  1.
</event>
<event>
 7    1  0.3622165E-015  0.9000776E+02  0.7816164E-02  0.1186339E+00
        -11   -1    0    0    0    0  0.00000000000E+00  0.00000000000E+00  0.45593999997E+02  0.45594000000E+02  0.51100000000E-03 0.  1.
         11   -1    0    0    0    0 -0.00000000000E+00 -0.00000000000E+00 -0.45593999997E+02  0.45594000000E+02  0.51100000000E-03 0. -1.
    9900012    2    1    2    0    0  0.68499882199E+00  0.53133262373E+00 -0.80089562688E+00  0.90007757843E+02  0.90000019447E+02 0.  0.
        -12    1    1    2    0    0 -0.68499882199E+00 -0.53133262373E+00  0.80089562688E+00  0.11802421566E+01  0.00000000000E+00 0.  1.
         11    1    3    3    0    0  0.59483725540E+01 -0.53644380924E+01  0.53359050395E+01  0.96245631038E+01  0.51100000000E-03 0. -1.
        -11    1    3    3    0    0  0.29425116671E+02 -0.16475382452E+02  0.11311788562E+02  0.35570103722E+02  0.51100000000E-03 0.  1.
         12    1    3    3    0    0 -0.34688490403E+02  0.22371153168E+02 -0.17448589228E+02  0.44813091018E+02  0.00000000000E+00 0. -1.
</event>
<event>
 7    1  0.3622165E-015  0.9000733E+02  0.7816164E-02  0.1186340E+00
        -11   -1    0    0    0    0  0.00000000000E+00  0.00000000000E+00  0.45593999997E+02  0.45594000000E+02  0.51100000000E-03 0.  1.
         11   -1    0    0    0    0 -0.00000000000E+00 -0.00000000000E+00 -0.45593999997E+02  0.45594000000E+02  0.51100000000E-03 0. -1.
    9900012    2    1    2    0    0  0.75337562902E+00  0.27157821491E+00 -0.86756084877E+00  0.90007325874E+02  0.89999581775E+02 0.  0.
        -12    1    1    2    0    0 -0.75337562902E+00 -0.27157821491E+00  0.86756084877E+00  0.11806741259E+01  0.00000000000E+00 0.  1.
         11    1    3    3    0    0  0.26476941346E+01 -0.42400608372E+01  0.89654216490E+01  0.10264851959E+02  0.51100000000E-03 0. -1.
        -11    1    3    3    0    0  0.36056437426E+02  0.15847017771E+02 -0.25216385257E+01  0.39465849961E+02  0.51100000000E-03 0.  1.
         12    1    3    3    0    0 -0.37950755931E+02 -0.11335378718E+02 -0.73113439721E+01  0.40276623954E+02  0.00000000000E+00 0. -1.
</event>
<event>
 7    1  0.3622165E-015  0.9000776E+02  0.7816164E-02  0.1186339E+00
        -11   -1    0    0    0    0  0.00000000000E+00  0.00000000000E+00  0.45593999997E+02  0.45594000000E+02  0.51100000000E-03 0.  1.
         11   -1    0    0    0    0 -0.00000000000E+00 -0.00000000000E+00 -0.45593999997E+02  0.45594000000E+02  0.51100000000E-03 0. -1.
    9900012    2    1    2    0    0 -0.10523879033E+01  0.37173967600E+00 -0.38372832711E+00  0.90007763534E+02  0.90000025213E+02 0.  0.
        -12    1    1    2    0    0  0.10523879033E+01 -0.37173967600E+00  0.38372832711E+00  0.11802364656E+01  0.00000000000E+00 0.  1.
         11    1    3    3    0    0 -0.13222164863E+02 -0.35064686511E+02  0.92432162440E+01  0.38597861736E+02  0.51100000000E-03 0. -1.
        -11    1    3    3    0    0  0.53415411408E+01 -0.24625819985E+01  0.72745218402E+01  0.93549473608E+01  0.51100000000E-03 0.  1.
        -12    1    3    3    0    0  0.68282358189E+01  0.37899008186E+02 -0.16901466411E+02  0.42054954437E+02  0.00000000000E+00 0.  1.
</event>
<event>
 7    1  0.3622165E-015  0.9000779E+02  0.7816164E-02  0.1186339E+00
        -11   -1    0    0    0    0  0.00000000000E+00  0.00000000000E+00  0.45593999997E+02  0.45594000000E+02  0.51100000000E-03 0. -1.
         11   -1    0    0    0    0 -0.00000000000E+00 -0.00000000000E+00 -0.45593999997E+02  0.45594000000E+02  0.51100000000E-03 0.  1.
    9900012    2    1    2    0    0  0.72086481525E+00  0.86615596107E+00  0.35073144655E+00  0.90007794603E+02  0.90000056692E+02 0.  0.
        -12    1    1    2    0    0 -0.72086481525E+00 -0.86615596107E+00 -0.35073144655E+00  0.11802053967E+01  0.00000000000E+00 0.  1.
         11    1    3    3    0    0 -0.89625380807E+01 -0.23324838261E+01 -0.28654312203E+01  0.96942388039E+01  0.51100000000E-03 0. -1.
        -11    1    3    3    0    0  0.27141561531E+02  0.29065357484E+02 -0.16873550232E+02  0.43199260013E+02  0.51100000000E-03 0.  1.
         12    1    3    3    0    0 -0.17458158635E+02 -0.25866717697E+02  0.20089712898E+02  0.37114295786E+02  0.00000000000E+00 0. -1.
</event>
<event>
 7    1  0.3622165E-015  0.9000774E+02  0.7816164E-02  0.1186339E+00
        -11   -1    0    0    0    0  0.00000000000E+00  0.00000000000E+00  0.45593999997E+02  0.45594000000E+02  0.51100000000E-03 0. -1.
         11   -1    0    0    0    0 -0.00000000000E+00 -0.00000000000E+00 -0.45593999997E+02  0.45594000000E+02  0.51100000000E-03 0.  1.
    9900012    2    1    2    0    0 -0.83682931882E+00  0.55185609054E+00  0.62304175089E+00  0.90007741775E+02  0.90000003167E+02 0.  0.
        -12    1    1    2    0    0  0.83682931882E+00 -0.55185609054E+00 -0.62304175089E+00  0.11802582247E+01  0.00000000000E+00 0.  1.
         11    1    3    3    0    0 -0.39374272530E+01  0.34253542105E+02 -0.67395652150E+01  0.35131612825E+02  0.51100000000E-03 0. -1.
        -11    1    3    3    0    0 -0.20286090988E+01  0.96825034425E+01  0.51031138006E+01  0.11131392479E+02  0.51100000000E-03 0.  1.
        -12    1    3    3    0    0  0.51292070329E+01 -0.43384189457E+02  0.22594931652E+01  0.43744736472E+02  0.00000000000E+00 0.  1.
</event>
<event>
 7    1  0.3622165E-015  0.9000769E+02  0.7816164E-02  0.1186339E+00
        -11   -1    0    0    0    0  0.00000000000E+00  0.00000000000E+00  0.45593999997E+02  0.45594000000E+02  0.51100000000E-03 0.  1.
         11   -1    0    0    0    0 -0.00000000000E+00 -0.00000000000E+00 -0.45593999997E+02  0.45594000000E+02  0.51100000000E-03 0. -1.
    9900012    2    1    2    0    0 -0.87439011305E+00 -0.23034448758E+00  0.75861934156E+00  0.90007694972E+02  0.89999955746E+02 0.  0.
        -12    1    1    2    0    0  0.87439011305E+00  0.23034448758E+00 -0.75861934156E+00  0.11803050276E+01  0.00000000000E+00 0.  1.
         11    1    3    3    0    0 -0.97986703660E+01  0.10750890340E+01  0.19686870690E+01  0.10052138400E+02  0.51100000000E-03 0. -1.
        -11    1    3    3    0    0 -0.21325225410E+02 -0.29141519659E+02  0.97643967051E+01  0.37407711105E+02  0.51100000000E-03 0.  1.
         12    1    3    3    0    0  0.30249505663E+02  0.27836086138E+02 -0.10974464433E+02  0.42547845467E+02  0.00000000000E+00 0. -1.
</event>
<event>
 7    1  0.3622165E-015  0.9000765E+02  0.7816164E-02  0.1186339E+00
        -11   -1    0    0    0    0  0.00000000000E+00  0.00000000000E+00  0.45593999997E+02  0.45594000000E+02  0.51100000000E-03 0.  1.
         11   -1    0    0    0    0 -0.00000000000E+00 -0.00000000000E+00 -0.45593999997E+02  0.45594000000E+02  0.51100000000E-03 0. -1.
    9900012    2    1    2    0    0 -0.49330712953E-01  0.11686983973E+01 -0.15792455663E+00  0.90007648515E+02  0.89999908675E+02 0.  0.
        -12    1    1    2    0    0  0.49330712953E-01 -0.11686983973E+01  0.15792455663E+00  0.11803514853E+01  0.00000000000E+00 0.  1.
         11    1    3    3    0    0 -0.72935509474E+01  0.70551772799E+01 -0.55159815478E+00  0.10162463907E+02  0.51100000000E-03 0. -1.
        -11    1    3    3    0    0  0.14296626552E+01  0.36762067980E+02  0.85001276477E+00  0.36799675263E+02  0.51100000000E-03 0.  1.
         12    1    3    3    0    0  0.58145575793E+01 -0.42648546863E+02 -0.45633916662E+00  0.43045509345E+02  0.00000000000E+00 0. -1.
</event>
<event>
 7    1  0.3622165E-015  0.9000776E+02  0.7816164E-02  0.1186339E+00
        -11   -1    0    0    0    0  0.00000000000E+00  0.00000000000E+00  0.45593999997E+02  0.45594000000E+02  0.51100000000E-03 0. -1.
         11   -1    0    0    0    0 -0.00000000000E+00 -0.00000000000E+00 -0.45593999997E+02  0.45594000000E+02  0.51100000000E-03 0.  1.
    9900012    2    1    2    0    0  0.52906572599E+00 -0.99330761061E+00 -0.35550807485E+00  0.90007764200E+02  0.90000025888E+02 0.  0.
        -12    1    1    2    0    0 -0.52906572599E+00  0.99330761061E+00  0.35550807485E+00  0.11802357997E+01  0.00000000000E+00 0.  1.
         11    1    3    3    0    0 -0.35904758822E+01  0.30977768065E+01 -0.10827947886E+02  0.11820837275E+02  0.51100000000E-03 0. -1.
        -11    1    3    3    0    0 -0.24681810860E+02  0.77171640233E+01  0.31399979833E+02  0.40678067084E+02  0.51100000000E-03 0.  1.
         12    1    3    3    0    0  0.28801352468E+02 -0.11808248440E+02 -0.20927540022E+02  0.37508859842E+02  0.00000000000E+00 0. -1.
</event>
<event>
 7    1  0.3622165E-015  0.9000775E+02  0.7816164E-02  0.1186339E+00
        -11   -1    0    0    0    0  0.00000000000E+00  0.00000000000E+00  0.45593999997E+02  0.45594000000E+02  0.51100000000E-03 0. -1.
         11   -1    0    0    0    0 -0.00000000000E+00 -0.00000000000E+00 -0.45593999997E+02  0.45594000000E+02  0.51100000000E-03 0.  1.
    9900012    2    1    2    0    0  0.28569442789E+00  0.10619631487E+01  0.42847977743E+00  0.90007753435E+02  0.90000014980E+02 0.  0.
        -12    1    1    2    0    0 -0.28569442789E+00 -0.10619631487E+01 -0.42847977743E+00  0.11802465653E+01  0.00000000000E+00 0.  1.
         11    1    3    3    0    0  0.27222134008E+02  0.29936262041E+02 -0.48284287802E+01  0.40749700486E+02  0.51100000000E-03 0. -1.
        -11    1    3    3    0    0  0.61769875175E+01 -0.57226499427E+01  0.23861916315E+01  0.87520173630E+01  0.51100000000E-03 0.  1.
        -12    1    3    3    0    0 -0.33113427098E+02 -0.23151648949E+02  0.28707169261E+01  0.40506035586E+02  0.00000000000E+00 0.  1.
</event>
<event>
 7    1  0.5770961E-015  0.9000778E+02  0.7816164E-02  0.1186339E+00
        -11   -1    0    0    0    0  0.00000000000E+00  0.00000000000E+00  0.45593999997E+02  0.45594000000E+02  0.51100000000E-03 0. -1.
         11   -1    0    0    0    0 -0.00000000000E+00 -0.00000000000E+00 -0.45593999997E+02  0.45594000000E+02  0.51100000000E-03 0.  1.
    9900012    2    1    2    0    0  0.29628312477E+00 -0.51455867074E+00  0.10199774336E+01  0.90007784646E+02  0.90000046604E+02 0.  0.
        -12    1    1    2    0    0 -0.29628312477E+00  0.51455867074E+00 -0.10199774336E+01  0.11802153535E+01  0.00000000000E+00 0.  1.
         11    1    3    3    0    0  0.38959257324E+02  0.71790435083E+01  0.10083508331E+02  0.40878350474E+02  0.51100000000E-03 0. -1.
        -11    1    3    3    0    0 -0.38796916975E+00  0.37324290346E+01 -0.83773990599E+01  0.91794532432E+01  0.51100000000E-03 0.  1.
        -12    1    3    3    0    0 -0.38275005030E+02 -0.11426031214E+02 -0.68613183721E+00  0.39949980929E+02  0.00000000000E+00 0.  1.
</event>
<event>
 7    1  0.3622165E-015  0.9000775E+02  0.7816164E-02  0.1186339E+00
        -11   -1    0    0    0    0  0.00000000000E+00  0.00000000000E+00  0.45593999997E+02  0.45594000000E+02  0.51100000000E-03 0.  1.
         11   -1    0    0    0    0 -0.00000000000E+00 -0.00000000000E+00 -0.45593999997E+02  0.45594000000E+02  0.51100000000E-03 0. -1.
    9900012    2    1    2    0    0  0.31844053465E+00  0.11360917715E+01 -0.29643588494E-01  0.90007751031E+02  0.90000012544E+02 0.  0.
        -12    1    1    2    0    0 -0.31844053465E+00 -0.11360917715E+01  0.29643588494E-01  0.11802489694E+01  0.00000000000E+00 0.  1.
         11    1    3    3    0    0  0.16057080309E+02  0.26785138940E+02  0.37971910790E+01  0.31459373109E+02  0.51100000000E-03 0. -1.
        -11    1    3    3    0    0  0.85565917874E+01  0.17018392298E+01  0.15039629630E+02  0.17386833508E+02  0.51100000000E-03 0.  1.
        -12    1    3    3    0    0 -0.24295231562E+02 -0.27350886398E+02 -0.18866464298E+02  0.41161544413E+02  0.00000000000E+00 0.  1.
</event>
<event>
 7    1  0.3622165E-015  0.9000777E+02  0.7816164E-02  0.1186339E+00
        -11   -1    0    0    0    0  0.00000000000E+00  0.00000000000E+00  0.45593999997E+02  0.45594000000E+02  0.51100000000E-03 0. -1.
         11   -1    0    0    0    0 -0.00000000000E+00 -0.00000000000E+00 -0.45593999997E+02  0.45594000000E+02  0.51100000000E-03 0.  1.
    9900012    2    1    2    0    0  0.11289064187E+01 -0.30138452425E+00 -0.16634117729E+00  0.90007774716E+02  0.90000036542E+02 0.  0.
        -12    1    1    2    0    0 -0.11289064187E+01  0.30138452425E+00  0.16634117729E+00  0.11802252840E+01  0.00000000000E+00 0.  1.
         11    1    3    3    0    0  0.17242207937E+02 -0.16419145886E+02 -0.70619070751E+01  0.24834504585E+02  0.51100000000E-03 0. -1.
        -11    1    3    3    0    0 -0.60651489503E+01 -0.23102128115E+02 -0.10764361245E+01  0.23909267455E+02  0.51100000000E-03 0.  1.
        -12    1    3    3    0    0 -0.10048152568E+02  0.39219889477E+02  0.79720020223E+01  0.41264002676E+02  0.00000000000E+00 0.  1.
</event>
<event>
 7    1  0.3622165E-015  0.9000787E+02  0.7816164E-02  0.1186339E+00
        -11   -1    0    0    0    0  0.00000000000E+00  0.00000000000E+00  0.45593999997E+02  0.45594000000E+02  0.51100000000E-03 0. -1.
         11   -1    0    0    0    0 -0.00000000000E+00 -0.00000000000E+00 -0.45593999997E+02  0.45594000000E+02  0.51100000000E-03 0.  1.
    9900012    2    1    2    0    0  0.36092900784E+00 -0.11225157813E+01  0.48824266678E-01  0.90007874906E+02  0.90000138055E+02 0.  0.
        -12    1    1    2    0    0 -0.36092900784E+00  0.11225157813E+01 -0.48824266678E-01  0.11801250938E+01  0.00000000000E+00 0.  1.
         11    1    3    3    0    0  0.35385365507E+02  0.22399438605E+02  0.71127714530E+01  0.42478823664E+02  0.51100000000E-03 0. -1.
        -11    1    3    3    0    0 -0.12536784625E+01 -0.31032159847E+01 -0.73370223636E+01  0.80643385693E+01  0.51100000000E-03 0.  1.
        -12    1    3    3    0    0 -0.33770758037E+02 -0.20418738402E+02  0.27307517732E+00  0.39464712673E+02  0.00000000000E+00 0.  1.
</event>
<event>
 7    1  0.3622165E-015  0.9000776E+02  0.7816164E-02  0.1186339E+00
        -11   -1    0    0    0    0  0.00000000000E+00  0.00000000000E+00  0.45593999997E+02  0.45594000000E+02  0.51100000000E-03 0.  1.
         11   -1    0    0    0    0 -0.00000000000E+00 -0.00000000000E+00 -0.45593999997E+02  0.45594000000E+02  0.51100000000E-03 0. -1.
    9900012    2    1    2    0    0 -0.88585548514E+00 -0.35362523001E+00 -0.69510749922E+00  0.90007760542E+02  0.90000022181E+02 0.  0.
        -12    1    1    2    0    0  0.88585548514E+00  0.35362523001E+00  0.69510749922E+00  0.11802394585E+01  0.00000000000E+00 0.  1.
         11    1    3    3    0    0  0.43004599649E+01 -0.62070026524E+01  0.43051083699E-01  0.75513370666E+01  0.51100000000E-03 0. -1.
        -11    1    3    3    0    0  0.62894305819E+01 -0.35538793423E+02  0.11351247070E+02  0.37834026819E+02  0.51100000000E-03 0.  1.
         12    1    3    3    0    0 -0.11475746032E+02  0.41392170846E+02 -0.12089405653E+02  0.44622396656E+02  0.00000000000E+00 0. -1.
</event>
<event>
 7    1  0.3622165E-015  0.9000773E+02  0.7816164E-02  0.1186339E+00
        -11   -1    0    0    0    0  0.00000000000E+00  0.00000000000E+00  0.45593999997E+02  0.45594000000E+02  0.51100000000E-03 0.  1.
         11   -1    0    0    0    0 -0.00000000000E+00 -0.00000000000E+00 -0.45593999997E+02  0.45594000000E+02  0.51100000000E-03 0. -1.
    9900012    2    1    2    0    0 -0.42352133337E+00  0.66188415710E+00 -0.88067356538E+00  0.90007725928E+02  0.89999987110E+02 0.  0.
        -12    1    1    2    0    0  0.42352133337E+00 -0.66188415710E+00  0.88067356538E+00  0.11802740724E+01  0.00000000000E+00 0.  1.
         11    1    3    3    0    0  0.37388908864E+02  0.94876234606E+01 -0.50151961267E+01  0.38898556495E+02  0.51100000000E-03 0. -1.
        -11    1    3    3    0    0  0.39795316888E+01 -0.36489921900E+01 -0.57141133644E+01  0.78614825744E+01  0.51100000000E-03 0.  1.
        -12    1    3    3    0    0 -0.41791961886E+02 -0.51767471135E+01  0.98486359256E+01  0.43247686858E+02  0.00000000000E+00 0.  1.
</event>
<event>
 7    1  0.3622165E-015  0.9000770E+02  0.7816164E-02  0.1186339E+00
        -11   -1    0    0    0    0  0.00000000000E+00  0.00000000000E+00  0.45593999997E+02  0.45594000000E+02  0.51100000000E-03 0. -1.
         11   -1    0    0    0    0 -0.00000000000E+00 -0.00000000000E+00 -0.45593999997E+02  0.45594000000E+02  0.51100000000E-03 0.  1.
    9900012    2    1    2    0    0  0.49159943943E+00  0.49756954479E+00  0.95071457885E+00  0.90007701872E+02  0.89999962737E+02 0.  0.
        -12    1    1    2    0    0 -0.49159943943E+00 -0.49756954479E+00 -0.95071457885E+00  0.11802981281E+01  0.00000000000E+00 0.  1.
         11    1    3    3    0    0  0.95576352692E+01  0.97554076041E+00 -0.42737707239E+01  0.10514998249E+02  0.51100000000E-03 0. -1.
        -11    1    3    3    0    0  0.27671128672E+02 -0.88491203958E+01  0.23733035600E+02  0.37513401243E+02  0.51100000000E-03 0.  1.
         12    1    3    3    0    0 -0.36737164502E+02  0.83711491802E+01 -0.18508550297E+02  0.41979302380E+02  0.00000000000E+00 0. -1.
</event>
<event>
 7    1  0.3622165E-015  0.9000779E+02  0.7816164E-02  0.1186339E+00
        -11   -1    0    0    0    0  0.00000000000E+00  0.00000000000E+00  0.45593999997E+02  0.45594000000E+02  0.51100000000E-03 0. -1.
         11   -1    0    0    0    0 -0.00000000000E+00 -0.00000000000E+00 -0.45593999997E+02  0.45594000000E+02  0.51100000000E-03 0.  1.
    9900012    2    1    2    0    0  0.10483902238E+01 -0.44348389581E+00  0.31161100034E+00  0.90007787543E+02  0.90000049539E+02 0.  0.
        -12    1    1    2    0    0 -0.10483902238E+01  0.44348389581E+00 -0.31161100034E+00  0.11802124566E+01  0.00000000000E+00 0.  1.
         11    1    3    3    0    0 -0.14111479148E+02 -0.16226469322E+02  0.21339630196E+02  0.30295411658E+02  0.51100000000E-03 0. -1.
        -11    1    3    3    0    0 -0.89895380854E+01 -0.10574771820E+02  0.57741820069E+01  0.15032590334E+02  0.51100000000E-03 0.  1.
        -12    1    3    3    0    0  0.24149407457E+02  0.26357757246E+02 -0.26802201202E+02  0.44679785551E+02  0.00000000000E+00 0.  1.
</event>
<event>
 7    1  0.3622165E-015  0.9000763E+02  0.7816164E-02  0.1186339E+00
        -11   -1    0    0    0    0  0.00000000000E+00  0.00000000000E+00  0.45593999997E+02  0.45594000000E+02  0.51100000000E-03 0.  1.
         11   -1    0    0    0    0 -0.00000000000E+00 -0.00000000000E+00 -0.45593999997E+02  0.45594000000E+02  0.51100000000E-03 0. -1.
    9900012    2    1    2    0    0 -0.28542577507E+00  0.96600557307E+00 -0.61533042173E+00  0.90007633037E+02  0.89999892993E+02 0.  0.
        -12    1    1    2    0    0  0.28542577507E+00 -0.96600557307E+00  0.61533042173E+00  0.11803669634E+01  0.00000000000E+00 0.  1.
         11    1    3    3    0    0  0.52864794739E+01  0.29496056532E+02 -0.19193152575E+02  0.35585689851E+02  0.51100000000E-03 0. -1.
        -11    1    3    3    0    0  0.18718176466E+01  0.75913735439E+01 -0.62105238041E+01  0.99851519652E+01  0.51100000000E-03 0.  1.
        -12    1    3    3    0    0 -0.74437228956E+01 -0.36121424503E+02  0.24788345957E+02  0.44436791220E+02  0.00000000000E+00 0.  1.
</event>
<event>
 7    1  0.3622165E-015  0.9000767E+02  0.7816164E-02  0.1186339E+00
        -11   -1    0    0    0    0  0.00000000000E+00  0.00000000000E+00  0.45593999997E+02  0.45594000000E+02  0.51100000000E-03 0.  1.
         11   -1    0    0    0    0 -0.00000000000E+00 -0.00000000000E+00 -0.45593999997E+02  0.45594000000E+02  0.51100000000E-03 0. -1.
    9900012    2    1    2    0    0  0.11200309903E+01  0.34147248537E+00  0.14871824416E+00  0.90007665304E+02  0.89999925686E+02 0.  0.
        -12    1    1    2    0    0 -0.11200309903E+01 -0.34147248537E+00 -0.14871824416E+00  0.11803346956E+01  0.00000000000E+00 0.  1.
         11    1    3    3    0    0  0.73933934517E+01 -0.11689771225E+02 -0.23914877481E+02  0.27626696929E+02  0.51100000000E-03 0. -1.
        -11    1    3    3    0    0  0.43959677051E+01 -0.75067042158E+01 -0.15045866513E+02  0.17379678928E+02  0.51100000000E-03 0.  1.
        -12    1    3    3    0    0 -0.10669330166E+02  0.19537947927E+02  0.39109462238E+02  0.45001289447E+02  0.00000000000E+00 0.  1.
</event>
<event>
 7    1  0.3622165E-015  0.9000781E+02  0.7816164E-02  0.1186339E+00
        -11   -1    0    0    0    0  0.00000000000E+00  0.00000000000E+00  0.45593999997E+02  0.45594000000E+02  0.51100000000E-03 0.  1.
         11   -1    0    0    0    0 -0.00000000000E+00 -0.00000000000E+00 -0.45593999997E+02  0.45594000000E+02  0.51100000000E-03 0. -1.
    9900012    2    1    2    0    0  0.54124811272E+00 -0.86483033392E+00 -0.59327001682E+00  0.90007809194E+02  0.90000071475E+02 0.  0.
        -12    1    1    2    0    0 -0.54124811272E+00  0.86483033392E+00  0.59327001682E+00  0.11801908061E+01  0.00000000000E+00 0.  1.
         11    1    3    3    0    0 -0.39252747563E+01 -0.82170483585E+01  0.28921824118E+01  0.95547048622E+01  0.51100000000E-03 0. -1.
        -11    1    3    3    0    0 -0.13072423314E+02 -0.29190322666E+02  0.15675744133E+02  0.35618704960E+02  0.51100000000E-03 0.  1.
         12    1    3    3    0    0  0.17538946183E+02  0.36542540690E+02 -0.19161196562E+02  0.44834399372E+02  0.00000000000E+00 0. -1.
</event>
<event>
 7    1  0.3622165E-015  0.9000773E+02  0.7816164E-02  0.1186339E+00
        -11   -1    0    0    0    0  0.00000000000E+00  0.00000000000E+00  0.45593999997E+02  0.45594000000E+02  0.51100000000E-03 0. -1.
         11   -1    0    0    0    0 -0.00000000000E+00 -0.00000000000E+00 -0.45593999997E+02  0.45594000000E+02  0.51100000000E-03 0.  1.
    9900012    2    1    2    0    0 -0.86199045038E+00 -0.43842007552E+00  0.67660418418E+00  0.90007731844E+02  0.89999993104E+02 0.  0.
        -12    1    1    2    0    0  0.86199045038E+00  0.43842007552E+00 -0.67660418418E+00  0.11802681565E+01  0.00000000000E+00 0.  1.
         11    1    3    3    0    0  0.32527228141E+02 -0.13029580534E+02 -0.12389821392E+02  0.37165820505E+02  0.51100000000E-03 0. -1.
        -11    1    3    3    0    0  0.65105773069E+01  0.49590474415E+01  0.87646202741E+01  0.11991594440E+02  0.51100000000E-03 0.  1.
        -12    1    3    3    0    0 -0.39899795899E+02  0.76321130173E+01  0.43018053017E+01  0.40850316898E+02  0.00000000000E+00 0.  1.
</event>
<event>
 7    1  0.3622165E-015  0.9000748E+02  0.7816164E-02  0.1186340E+00
        -11   -1    0    0    0    0  0.00000000000E+00  0.00000000000E+00  0.45593999997E+02  0.45594000000E+02  0.51100000000E-03 0. -1.
         11   -1    0    0    0    0 -0.00000000000E+00 -0.00000000000E+00 -0.45593999997E+02  0.45594000000E+02  0.51100000000E-03 0.  1.
    9900012    2    1    2    0    0  0.51127105233E+00 -0.10629242884E+01  0.49214823662E-01  0.90007479678E+02  0.89999737609E+02 0.  0.
        -12    1    1    2    0    0 -0.51127105233E+00  0.10629242884E+01 -0.49214823662E-01  0.11805203221E+01  0.00000000000E+00 0.  1.
         11    1    3    3    0    0 -0.15282600209E+02 -0.93315161080E+01 -0.99319821199E+01  0.20476311463E+02  0.51100000000E-03 0. -1.
        -11    1    3    3    0    0 -0.10085534388E+02  0.75508338773E+01 -0.23824589870E+02  0.26950773252E+02  0.51100000000E-03 0.  1.
         12    1    3    3    0    0  0.25879405649E+02  0.71775794217E+00  0.33805786813E+02  0.42580394964E+02  0.00000000000E+00 0. -1.
</event>
<event>
 7    1  0.3622165E-015  0.9000766E+02  0.7816164E-02  0.1186339E+00
        -11   -1    0    0    0    0  0.00000000000E+00  0.00000000000E+00  0.45593999997E+02  0.45594000000E+02  0.51100000000E-03 0.  1.
         11   -1    0    0    0    0 -0.00000000000E+00 -0.00000000000E+00 -0.45593999997E+02  0.45594000000E+02  0.51100000000E-03 0. -1.
    9900012    2    1    2    0    0 -0.16077516273E+00 -0.81981313833E+00 -0.83382472701E+00  0.90007658562E+02  0.89999918855E+02 0.  0.
        -12    1    1    2    0    0  0.16077516273E+00  0.81981313833E+00  0.83382472701E+00  0.11803414379E+01  0.00000000000E+00 0.  1.
         11    1    3    3    0    0 -0.23902499741E+01  0.92432026648E+01 -0.11942859474E+01  0.96216635582E+01  0.51100000000E-03 0. -1.
        -11    1    3    3    0    0  0.22782968769E+02 -0.11759966385E+02  0.32992282972E+02  0.41783384393E+02  0.51100000000E-03 0.  1.
         12    1    3    3    0    0 -0.20553493958E+02  0.16969505814E+01 -0.32631821752E+02  0.38602610611E+02  0.00000000000E+00 0. -1.
</event>
<event>
 7    1  0.3622165E-015  0.9000779E+02  0.7816164E-02  0.1186339E+00
        -11   -1    0    0    0    0  0.00000000000E+00  0.00000000000E+00  0.45593999997E+02  0.45594000000E+02  0.51100000000E-03 0.  1.
         11   -1    0    0    0    0 -0.00000000000E+00 -0.00000000000E+00 -0.45593999997E+02  0.45594000000E+02  0.51100000000E-03 0. -1.
    9900012    2    1    2    0    0  0.42899397377E+00  0.99073237754E+00 -0.47678095882E+00  0.90007785377E+02  0.90000047344E+02 0.  0.
        -12    1    1    2    0    0 -0.42899397377E+00 -0.99073237754E+00  0.47678095882E+00  0.11802146229E+01  0.00000000000E+00 0.  1.
         11    1    3    3    0    0  0.28860024398E+02  0.25057628288E+02  0.14565241997E+02  0.40901491639E+02  0.51100000000E-03 0. -1.
        -11    1    3    3    0    0 -0.29291918312E+01  0.59980124329E+01 -0.52294464782E+01  0.84795889440E+01  0.51100000000E-03 0.  1.
        -12    1    3    3    0    0 -0.25501838593E+02 -0.30064908343E+02 -0.98125764774E+01  0.40626704794E+02  0.00000000000E+00 0.  1.
</event>
<event>
 7    1  0.3622165E-015  0.9000768E+02  0.7816164E-02  0.1186339E+00
        -11   -1    0    0    0    0  0.00000000000E+00  0.00000000000E+00  0.45593999997E+02  0.45594000000E+02  0.51100000000E-03 0.  1.
         11   -1    0    0    0    0 -0.00000000000E+00 -0.00000000000E+00 -0.45593999997E+02  0.45594000000E+02  0.51100000000E-03 0. -1.
    9900012    2    1    2    0    0 -0.11652297684E+01 -0.17566179705E+00 -0.67292493074E-01  0.90007684042E+02  0.89999944672E+02 0.  0.
        -12    1    1    2    0    0  0.11652297684E+01  0.17566179705E+00  0.67292493074E-01  0.11803159576E+01  0.00000000000E+00 0.  1.
         11    1    3    3    0    0 -0.68789163756E+01 -0.37240341547E+01  0.31817242202E+01  0.84446012436E+01  0.51100000000E-03 0. -1.
        -11    1    3    3    0    0 -0.30306130106E+02 -0.46881371266E+01  0.21178560711E+02  0.37268909104E+02  0.51100000000E-03 0.  1.
         12    1    3    3    0    0  0.36019816713E+02  0.82365094842E+01 -0.24427577425E+02  0.44294173695E+02  0.00000000000E+00 0. -1.
</event>
<event>
 7    1  0.4675839E-015  0.9000718E+02  0.7816164E-02  0.1186340E+00
        -11   -1    0    0    0    0  0.00000000000E+00  0.00000000000E+00  0.45593999997E+02  0.45594000000E+02  0.51100000000E-03 0. -1.
         11   -1    0    0    0    0 -0.00000000000E+00 -0.00000000000E+00 -0.45593999997E+02  0.45594000000E+02  0.51100000000E-03 0.  1.
    9900012    2    1    2    0    0 -0.45229941644E+00 -0.15871550494E-01  0.10906413573E+01  0.90007184503E+02  0.89999438536E+02 0.  0.
        -12    1    1    2    0    0  0.45229941644E+00  0.15871550494E-01 -0.10906413573E+01  0.11808154972E+01  0.00000000000E+00 0.  1.
         11    1    3    3    0    0  0.51208208198E+00 -0.10410364106E+02  0.70349998921E-01  0.10423188488E+02  0.51100000000E-03 0. -1.
        -11    1    3    3    0    0  0.14664734849E+02  0.25942463696E+02 -0.29501359956E+02  0.41933233960E+02  0.51100000000E-03 0.  1.
         12    1    3    3    0    0 -0.15629116348E+02 -0.15547971141E+02  0.30521651314E+02  0.37650762055E+02  0.00000000000E+00 0. -1.
</event>
<event>
 7    1  0.3622165E-015  0.9000774E+02  0.7816164E-02  0.1186339E+00
        -11   -1    0    0    0    0  0.00000000000E+00  0.00000000000E+00  0.45593999997E+02  0.45594000000E+02  0.51100000000E-03 0.  1.
         11   -1    0    0    0    0 -0.00000000000E+00 -0.00000000000E+00 -0.45593999997E+02  0.45594000000E+02  0.51100000000E-03 0. -1.
    9900012    2    1    2    0    0 -0.11321985379E+01 -0.51943426335E-01  0.32929371145E+00  0.90007743249E+02  0.90000004660E+02 0.  0.
        -12    1    1    2    0    0  0.11321985379E+01  0.51943426335E-01 -0.32929371145E+00  0.11802567506E+01  0.00000000000E+00 0.  1.
         11    1    3    3    0    0 -0.53544430867E+00  0.12337441814E+02 -0.37501370182E+02  0.39482299033E+02  0.51100000000E-03 0. -1.
        -11    1    3    3    0    0 -0.13403922602E+01 -0.94032649371E+01 -0.27027607574E+01  0.98753713278E+01  0.51100000000E-03 0.  1.
        -12    1    3    3    0    0  0.74363803091E+00 -0.29861203038E+01  0.40533424651E+02  0.40650072889E+02  0.00000000000E+00 0.  1.
</event>
<event>
 7    1  0.3622165E-015  0.9000768E+02  0.7816164E-02  0.1186339E+00
        -11   -1    0    0    0    0  0.00000000000E+00  0.00000000000E+00  0.45593999997E+02  0.45594000000E+02  0.51100000000E-03 0. -1.
         11   -1    0    0    0    0 -0.00000000000E+00 -0.00000000000E+00 -0.45593999997E+02  0.45594000000E+02  0.51100000000E-03 0.  1.
    9900012    2    1    2    0    0 -0.62562270618E+00  0.60306184225E+00  0.79879587756E+00  0.90007677074E+02  0.89999937611E+02 0.  0.
        -12    1    1    2    0    0  0.62562270618E+00 -0.60306184225E+00 -0.79879587756E+00  0.11803229262E+01  0.00000000000E+00 0.  1.
         11    1    3    3    0    0 -0.11336200985E+02 -0.30979959052E+01  0.54202344043E+01  0.12941637170E+02  0.51100000000E-03 0. -1.
        -11    1    3    3    0    0 -0.17355675594E+02  0.32410737266E+02 -0.29163433237E+01  0.36880623965E+02  0.51100000000E-03 0.  1.
         12    1    3    3    0    0  0.28066253872E+02 -0.28709679518E+02 -0.17050952031E+01  0.40185415938E+02  0.00000000000E+00 0. -1.
</event>
<event>
 7    1  0.3622165E-015  0.9000790E+02  0.7816164E-02  0.1186339E+00
        -11   -1    0    0    0    0  0.00000000000E+00  0.00000000000E+00  0.45593999997E+02  0.45594000000E+02  0.51100000000E-03 0. -1.
         11   -1    0    0    0    0 -0.00000000000E+00 -0.00000000000E+00 -0.45593999997E+02  0.45594000000E+02  0.51100000000E-03 0.  1.
    9900012    2    1    2    0    0  0.76912479816E+00  0.76117919233E+00  0.47083311865E+00  0.90007902316E+02  0.90000165826E+02 0.  0.
        -12    1    1    2    0    0 -0.76912479816E+00 -0.76117919233E+00 -0.47083311865E+00  0.11800976839E+01  0.00000000000E+00 0.  1.
         11    1    3    3    0    0 -0.44449905179E+01  0.69367835312E+01  0.71213103516E+00  0.82694641505E+01  0.51100000000E-03 0. -1.
        -11    1    3    3    0    0 -0.28078577094E+02 -0.22131419996E+02  0.18587878576E+02  0.40295352994E+02  0.51100000000E-03 0.  1.
         12    1    3    3    0    0  0.33292692410E+02  0.15955815657E+02 -0.18829176492E+02  0.41443085172E+02  0.00000000000E+00 0. -1.
</event>
<event>
 7    1  0.3622165E-015  0.9000771E+02  0.7816164E-02  0.1186339E+00
        -11   -1    0    0    0    0  0.00000000000E+00  0.00000000000E+00  0.45593999997E+02  0.45594000000E+02  0.51100000000E-03 0. -1.
         11   -1    0    0    0    0 -0.00000000000E+00 -0.00000000000E+00 -0.45593999997E+02  0.45594000000E+02  0.51100000000E-03 0.  1.
    9900012    2    1    2    0    0  0.10860200209E+01 -0.43780053472E+00  0.14825925805E+00  0.90007707832E+02  0.89999968775E+02 0.  0.
        -12    1    1    2    0    0 -0.10860200209E+01  0.43780053472E+00 -0.14825925805E+00  0.11802921679E+01  0.00000000000E+00 0.  1.
         11    1    3    3    0    0  0.29432805060E+02 -0.29196371804E+02 -0.19861543938E+01  0.41504975000E+02  0.51100000000E-03 0. -1.
        -11    1    3    3    0    0 -0.68949538560E+01 -0.40386263224E+01  0.46272662219E+01  0.92337686888E+01  0.51100000000E-03 0.  1.
        -12    1    3    3    0    0 -0.21451831183E+02  0.32797197591E+02 -0.24928525700E+01  0.39268964143E+02  0.00000000000E+00 0.  1.
</event>
<event>
 7    1  0.3622165E-015  0.9000770E+02  0.7816164E-02  0.1186339E+00
        -11   -1    0    0    0    0  0.00000000000E+00  0.00000000000E+00  0.45593999997E+02  0.45594000000E+02  0.51100000000E-03 0. -1.
         11   -1    0    0    0    0 -0.00000000000E+00 -0.00000000000E+00 -0.45593999997E+02  0.45594000000E+02  0.51100000000E-03 0.  1.
    9900012    2    1    2    0    0 -0.10451780622E+01  0.28842035168E+00  0.46640766213E+00  0.90007695129E+02  0.89999955905E+02 0.  0.
        -12    1    1    2    0    0  0.10451780622E+01 -0.28842035168E+00 -0.46640766213E+00  0.11803048709E+01  0.00000000000E+00 0.  1.
         11    1    3    3    0    0  0.89158524487E+01  0.43319445188E+01  0.71622355857E+01  0.12229300350E+02  0.51100000000E-03 0. -1.
        -11    1    3    3    0    0 -0.14141771864E+02  0.23591330302E+02  0.23828330087E+02  0.36391343639E+02  0.51100000000E-03 0.  1.
         12    1    3    3    0    0  0.41807413533E+01 -0.27634854469E+02 -0.30524158010E+02  0.41387051140E+02  0.00000000000E+00 0. -1.
</event>
<event>
 7    1  0.3622165E-015  0.9000767E+02  0.7816164E-02  0.1186339E+00
        -11   -1    0    0    0    0  0.00000000000E+00  0.00000000000E+00  0.45593999997E+02  0.45594000000E+02  0.51100000000E-03 0. -1.
         11   -1    0    0    0    0 -0.00000000000E+00 -0.00000000000E+00 -0.45593999997E+02  0.45594000000E+02  0.51100000000E-03 0.  1.
    9900012    2    1    2    0    0 -0.89782523326E+00 -0.48156885021E+00 -0.59596903741E+00  0.90007670470E+02  0.89999930920E+02 0.  0.
        -12    1    1    2    0    0  0.89782523326E+00  0.48156885021E+00  0.59596903741E+00  0.11803295305E+01  0.00000000000E+00 0.  1.
         11    1    3    3    0    0 -0.11782440662E+02  0.95298392244E+01  0.44362114012E+00  0.15160492854E+02  0.51100000000E-03 0. -1.
        -11    1    3    3    0    0  0.26848186978E+02  0.12184657687E+02 -0.24875197802E+02  0.38575464908E+02  0.51100000000E-03 0.  1.
         12    1    3    3    0    0 -0.15963571549E+02 -0.22196065762E+02  0.23835607624E+02  0.36271712707E+02  0.00000000000E+00 0. -1.
</event>
<event>
 7    1  0.3622165E-015  0.9000799E+02  0.7816164E-02  0.1186339E+00
        -11   -1    0    0    0    0  0.00000000000E+00  0.00000000000E+00  0.45593999997E+02  0.45594000000E+02  0.51100000000E-03 0.  1.
         11   -1    0    0    0    0 -0.00000000000E+00 -0.00000000000E+00 -0.45593999997E+02  0.45594000000E+02  0.51100000000E-03 0. -1.
    9900012    2    1    2    0    0 -0.77118536305E+00 -0.68104114063E+00 -0.57782795553E+00  0.90007987693E+02  0.90000252330E+02 0.  0.
        -12    1    1    2    0    0  0.77118536305E+00  0.68104114063E+00  0.57782795553E+00  0.11800123074E+01  0.00000000000E+00 0.  1.
         11    1    3    3    0    0  0.10134805489E+02  0.28428733451E+02 -0.26811905543E+02  0.40370601272E+02  0.51100000000E-03 0. -1.
        -11    1    3    3    0    0  0.81549037835E+01 -0.71528980461E+01  0.58198863772E+00  0.10863016027E+02  0.51100000000E-03 0.  1.
        -12    1    3    3    0    0 -0.19060894635E+02 -0.21956876546E+02  0.25652088949E+02  0.38774370394E+02  0.00000000000E+00 0.  1.
</event>
<event>
 7    1  0.3622165E-015  0.9000758E+02  0.7816164E-02  0.1186339E+00
        -11   -1    0    0    0    0  0.00000000000E+00  0.00000000000E+00  0.45593999997E+02  0.45594000000E+02  0.51100000000E-03 0. -1.
         11   -1    0    0    0    0 -0.00000000000E+00 -0.00000000000E+00 -0.45593999997E+02  0.45594000000E+02  0.51100000000E-03 0.  1.
    9900012    2    1    2    0    0 -0.19766876688E+00 -0.11606552163E+01  0.84862173234E-01  0.90007578439E+02  0.89999837675E+02 0.  0.
        -12    1    1    2    0    0  0.19766876688E+00  0.11606552163E+01 -0.84862173234E-01  0.11804215607E+01  0.00000000000E+00 0.  1.
         11    1    3    3    0    0 -0.10417896282E+02 -0.22755264528E+00  0.19066133066E+01  0.10593371404E+02  0.51100000000E-03 0. -1.
        -11    1    3    3    0    0 -0.20561064371E+02  0.49157273398E+01  0.28718346863E+02  0.35660414890E+02  0.51100000000E-03 0.  1.
         12    1    3    3    0    0  0.30781291886E+02 -0.58488299109E+01 -0.30540097996E+02  0.43753792145E+02  0.00000000000E+00 0. -1.
</event>
<event>
 7    1  0.3622165E-015  0.9000795E+02  0.7816164E-02  0.1186339E+00
        -11   -1    0    0    0    0  0.00000000000E+00  0.00000000000E+00  0.45593999997E+02  0.45594000000E+02  0.51100000000E-03 0. -1.
         11   -1    0    0    0    0 -0.00000000000E+00 -0.00000000000E+00 -0.45593999997E+02  0.45594000000E+02  0.51100000000E-03 0.  1.
    9900012    2    1    2    0    0  0.53705076743E+00 -0.95908259279E+00  0.42923688413E+00  0.90007954556E+02  0.90000218756E+02 0.  0.
        -12    1    1    2    0    0 -0.53705076743E+00  0.95908259279E+00 -0.42923688413E+00  0.11800454437E+01  0.00000000000E+00 0.  1.
         11    1    3    3    0    0  0.79899401523E+01 -0.59232104539E+01 -0.39578850991E+00  0.99539044864E+01  0.51100000000E-03 0. -1.
        -11    1    3    3    0    0  0.34934969097E+02  0.34676127282E+01  0.10315861620E+02  0.36590892379E+02  0.51100000000E-03 0.  1.
         12    1    3    3    0    0 -0.42387858482E+02  0.14965151329E+01 -0.94908362258E+01  0.43463157691E+02  0.00000000000E+00 0. -1.
</event>
<event>
 7    1  0.3622165E-015  0.9000770E+02  0.7816164E-02  0.1186339E+00
        -11   -1    0    0    0    0  0.00000000000E+00  0.00000000000E+00  0.45593999997E+02  0.45594000000E+02  0.51100000000E-03 0. -1.
         11   -1    0    0    0    0 -0.00000000000E+00 -0.00000000000E+00 -0.45593999997E+02  0.45594000000E+02  0.51100000000E-03 0.  1.
    9900012    2    1    2    0    0 -0.61557999189E+00 -0.98039090873E+00 -0.23022292455E+00  0.90007700184E+02  0.89999961027E+02 0.  0.
        -12    1    1    2    0    0  0.61557999189E+00  0.98039090873E+00  0.23022292455E+00  0.11802998159E+01  0.00000000000E+00 0.  1.
         11    1    3    3    0    0 -0.97366774882E+01  0.29044935132E+02 -0.25916680854E+02  0.40125870608E+02  0.51100000000E-03 0. -1.
        -11    1    3    3    0    0  0.80867012872E+01 -0.46581226453E+01 -0.45646329296E+01  0.10388874738E+02  0.51100000000E-03 0.  1.
        -12    1    3    3    0    0  0.10343962091E+01 -0.25367203395E+02  0.30251090859E+02  0.39492954837E+02  0.00000000000E+00 0.  1.
</event>
<event>
 7    1  0.3622165E-015  0.9000775E+02  0.7816164E-02  0.1186339E+00
        -11   -1    0    0    0    0  0.00000000000E+00  0.00000000000E+00  0.45593999997E+02  0.45594000000E+02  0.51100000000E-03 0. -1.
         11   -1    0    0    0    0 -0.00000000000E+00 -0.00000000000E+00 -0.45593999997E+02  0.45594000000E+02  0.51100000000E-03 0.  1.
    9900012    2    1    2    0    0  0.90406847450E+00 -0.60844986312E+00  0.45324852891E+00  0.90007752030E+02  0.90000013556E+02 0.  0.
        -12    1    1    2    0    0 -0.90406847450E+00  0.60844986312E+00 -0.45324852891E+00  0.11802479703E+01  0.00000000000E+00 0.  1.
         11    1    3    3    0    0  0.46014682410E+01 -0.83147568503E+01 -0.19897494502E+01  0.97091603441E+01  0.51100000000E-03 0. -1.
        -11    1    3    3    0    0  0.34001205703E+02  0.15658138573E+02  0.14169524097E+02  0.40025425747E+02  0.51100000000E-03 0.  1.
         12    1    3    3    0    0 -0.37698605469E+02 -0.79518315861E+01 -0.11726526118E+02  0.40273165938E+02  0.00000000000E+00 0. -1.
</event>
<event>
 7    1  0.3622165E-015  0.9000772E+02  0.7816164E-02  0.1186339E+00
        -11   -1    0    0    0    0  0.00000000000E+00  0.00000000000E+00  0.45593999997E+02  0.45594000000E+02  0.51100000000E-03 0.  1.
         11   -1    0    0    0    0 -0.00000000000E+00 -0.00000000000E+00 -0.45593999997E+02  0.45594000000E+02  0.51100000000E-03 0. -1.
    9900012    2    1    2    0    0  0.10527336400E+01 -0.53318237011E+00  0.23064999684E-01  0.90007718868E+02  0.89999979957E+02 0.  0.
        -12    1    1    2    0    0 -0.10527336400E+01  0.53318237011E+00 -0.23064999684E-01  0.11802811321E+01  0.00000000000E+00 0.  1.
         11    1    3    3    0    0  0.23830737531E+01  0.28583448433E+02 -0.21009524514E+02  0.35554081136E+02  0.51100000000E-03 0. -1.
        -11    1    3    3    0    0 -0.11386964248E+02  0.16583779102E+01 -0.53491470959E+01  0.12689623595E+02  0.51100000000E-03 0.  1.
        -12    1    3    3    0    0  0.10056624135E+02 -0.30775008714E+02  0.26381736609E+02  0.41764014137E+02  0.00000000000E+00 0.  1.
</event>
<event>
 7    1  0.3622165E-015  0.9000775E+02  0.7816164E-02  0.1186339E+00
        -11   -1    0    0    0    0  0.00000000000E+00  0.00000000000E+00  0.45593999997E+02  0.45594000000E+02  0.51100000000E-03 0.  1.
         11   -1    0    0    0    0 -0.00000000000E+00 -0.00000000000E+00 -0.45593999997E+02  0.45594000000E+02  0.51100000000E-03 0. -1.
    9900012    2    1    2    0    0  0.29529038371E+00 -0.38694668301E+00 -0.10752075325E+01  0.90007747746E+02  0.90000009216E+02 0.  0.
        -12    1    1    2    0    0 -0.29529038371E+00  0.38694668301E+00  0.10752075325E+01  0.11802522545E+01  0.00000000000E+00 0.  1.
         11    1    3    3    0    0 -0.43110016880E+02  0.27470424022E+01  0.29797915333E+01  0.43300103409E+02  0.51100000000E-03 0. -1.
        -11    1    3    3    0    0  0.11671691058E+02 -0.19998338924E+01  0.61639127349E+01  0.13349963603E+02  0.51100000000E-03 0.  1.
        -12    1    3    3    0    0  0.31733616206E+02 -0.11341551929E+01 -0.10218911801E+02  0.33357680733E+02  0.00000000000E+00 0.  1.
</event>
<event>
 7    1  0.3622165E-015  0.9000775E+02  0.7816164E-02  0.1186339E+00
        -11   -1    0    0    0    0  0.00000000000E+00  0.00000000000E+00  0.45593999997E+02  0.45594000000E+02  0.51100000000E-03 0.  1.
         11   -1    0    0    0    0 -0.00000000000E+00 -0.00000000000E+00 -0.45593999997E+02  0.45594000000E+02  0.51100000000E-03 0. -1.
    9900012    2    1    2    0    0  0.87492815978E+00 -0.56585277462E+00  0.55434690096E+00  0.90007750393E+02  0.90000011899E+02 0.  0.
        -12    1    1    2    0    0 -0.87492815978E+00  0.56585277462E+00 -0.55434690096E+00  0.11802496066E+01  0.00000000000E+00 0.  1.
         11    1    3    3    0    0 -0.13168110161E+02 -0.24200908119E+02 -0.16724895940E+02  0.32230501446E+02  0.51100000000E-03 0. -1.
        -11    1    3    3    0    0  0.14678570550E+02  0.31509071694E+00 -0.12960997039E+02  0.19584360088E+02  0.51100000000E-03 0.  1.
        -12    1    3    3    0    0 -0.63553222844E+00  0.23319964627E+02  0.30240239880E+02  0.38192888860E+02  0.00000000000E+00 0.  1.
</event>
<event>
 7    1  0.3644178E-015  0.9000779E+02  0.7816164E-02  0.1186339E+00
        -11   -1    0    0    0    0  0.00000000000E+00  0.00000000000E+00  0.45593999997E+02  0.45594000000E+02  0.51100000000E-03 0. -1.
         11   -1    0    0    0    0 -0.00000000000E+00 -0.00000000000E+00 -0.45593999997E+02  0.45594000000E+02  0.51100000000E-03 0.  1.
    9900012    2    1    2    0    0 -0.14019659339E+00 -0.13786406201E+00  0.11637195693E+01  0.90007786112E+02  0.90000048089E+02 0.  0.
        -12    1    1    2    0    0  0.14019659339E+00  0.13786406201E+00 -0.11637195693E+01  0.11802138876E+01  0.00000000000E+00 0.  1.
         11    1    3    3    0    0  0.34090896637E+02  0.22675363333E+02  0.14301780158E+02  0.43369369972E+02  0.51100000000E-03 0. -1.
        -11    1    3    3    0    0 -0.76380528595E+01 -0.42807412892E+01  0.43838525205E+01  0.97919742980E+01  0.51100000000E-03 0.  1.
        -12    1    3    3    0    0 -0.26593040371E+02 -0.18532486106E+02 -0.17521913109E+02  0.36846441842E+02  0.00000000000E+00 0.  1.
</event>
<event>
 7    1  0.3622165E-015  0.9000769E+02  0.7816164E-02  0.1186339E+00
        -11   -1    0    0    0    0  0.00000000000E+00  0.00000000000E+00  0.45593999997E+02  0.45594000000E+02  0.51100000000E-03 0.  1.
         11   -1    0    0    0    0 -0.00000000000E+00 -0.00000000000E+00 -0.45593999997E+02  0.45594000000E+02  0.51100000000E-03 0. -1.
    9900012    2    1    2    0    0 -0.66378309605E+00 -0.37385652297E+00 -0.90152540777E+00  0.90007692939E+02  0.89999953685E+02 0.  0.
        -12    1    1    2    0    0  0.66378309605E+00  0.37385652297E+00  0.90152540777E+00  0.11803070614E+01  0.00000000000E+00 0.  1.
         11    1    3    3    0    0 -0.82532068008E+01  0.29111775159E+01  0.46315225994E+01  0.99015846648E+01  0.51100000000E-03 0. -1.
        -11    1    3    3    0    0 -0.31822013010E+02 -0.18283110483E+02  0.38635216271E+01  0.36903108820E+02  0.51100000000E-03 0.  1.
         12    1    3    3    0    0  0.39411436715E+02  0.14998076444E+02 -0.93965696343E+01  0.43202999454E+02  0.00000000000E+00 0. -1.
</event>
<event>
 7    1  0.3622165E-015  0.9000831E+02  0.7816164E-02  0.1186338E+00
        -11   -1    0    0    0    0  0.00000000000E+00  0.00000000000E+00  0.45593999997E+02  0.45594000000E+02  0.51100000000E-03 0. -1.
         11   -1    0    0    0    0 -0.00000000000E+00 -0.00000000000E+00 -0.45593999997E+02  0.45594000000E+02  0.51100000000E-03 0.  1.
    9900012    2    1    2    0    0  0.18818247930E+00  0.10276884357E+00  0.11600444571E+01  0.90008306301E+02  0.90000575143E+02 0.  0.
        -12    1    1    2    0    0 -0.18818247930E+00 -0.10276884357E+00 -0.11600444571E+01  0.11796936988E+01  0.00000000000E+00 0.  1.
         11    1    3    3    0    0  0.75352589817E+01 -0.21813722754E+02  0.28452886497E+02  0.36635848272E+02  0.51100000000E-03 0. -1.
        -11    1    3    3    0    0  0.15411299014E+01 -0.28780038465E+01  0.84006163681E+01  0.90126768021E+01  0.51100000000E-03 0.  1.
        -12    1    3    3    0    0 -0.88882064038E+01  0.24794495444E+02 -0.35693458408E+02  0.44359781227E+02  0.00000000000E+00 0.  1.
</event>
<event>
 7    1  0.3622165E-015  0.9000775E+02  0.7816164E-02  0.1186339E+00
        -11   -1    0    0    0    0  0.00000000000E+00  0.00000000000E+00  0.45593999997E+02  0.45594000000E+02  0.51100000000E-03 0.  1.
         11   -1    0    0    0    0 -0.00000000000E+00 -0.00000000000E+00 -0.45593999997E+02  0.45594000000E+02  0.51100000000E-03 0. -1.
    9900012    2    1    2    0    0  0.93211376591E+00  0.23950756631E-01 -0.72359091970E+00  0.90007748531E+02  0.90000010011E+02 0.  0.
        -12    1    1    2    0    0 -0.93211376591E+00 -0.23950756631E-01  0.72359091970E+00  0.11802514691E+01  0.00000000000E+00 0.  1.
         11    1    3    3    0    0 -0.17742028100E+01  0.94134605351E+01 -0.62722168878E+01  0.11449966804E+02  0.51100000000E-03 0. -1.
        -11    1    3    3    0    0 -0.25643744285E+02 -0.20459542567E+01 -0.25258254033E+02  0.36052280743E+02  0.51100000000E-03 0.  1.
         12    1    3    3    0    0  0.28350060861E+02 -0.73435555217E+01  0.30806880001E+02  0.42505500984E+02  0.00000000000E+00 0. -1.
</event>
<event>
 7    1  0.3622165E-015  0.9000779E+02  0.7816164E-02  0.1186339E+00
        -11   -1    0    0    0    0  0.00000000000E+00  0.00000000000E+00  0.45593999997E+02  0.45594000000E+02  0.51100000000E-03 0.  1.
         11   -1    0    0    0    0 -0.00000000000E+00 -0.00000000000E+00 -0.45593999997E+02  0.45594000000E+02  0.51100000000E-03 0. -1.
    9900012    2    1    2    0    0  0.19506167709E+00  0.10186191971E+01  0.56325916482E+00  0.90007790267E+02  0.90000052299E+02 0.  0.
        -12    1    1    2    0    0 -0.19506167709E+00 -0.10186191971E+01 -0.56325916482E+00  0.11802097328E+01  0.00000000000E+00 0.  1.
         11    1    3    3    0    0 -0.67900357654E+01  0.16502199408E+01  0.75153889216E+01  0.10262011618E+02  0.51100000000E-03 0. -1.
        -11    1    3    3    0    0 -0.13695283771E+02 -0.14654513158E+02  0.29426780031E+02  0.35612510958E+02  0.51100000000E-03 0.  1.
         12    1    3    3    0    0  0.20680381214E+02  0.14022912414E+02 -0.36378909788E+02  0.44133267691E+02  0.00000000000E+00 0. -1.
</event>
<event>
 7    1  0.3622165E-015  0.9000770E+02  0.7816164E-02  0.1186339E+00
        -11   -1    0    0    0    0  0.00000000000E+00  0.00000000000E+00  0.45593999997E+02  0.45594000000E+02  0.51100000000E-03 0. -1.
         11   -1    0    0    0    0 -0.00000000000E+00 -0.00000000000E+00 -0.45593999997E+02  0.45594000000E+02  0.51100000000E-03 0.  1.
    9900012    2    1    2    0    0  0.54782065954E+00  0.46433041050E+00  0.93668980943E+00  0.90007704273E+02  0.89999965169E+02 0.  0.
        -12    1    1    2    0    0 -0.54782065954E+00 -0.46433041050E+00 -0.93668980943E+00  0.11802957274E+01  0.00000000000E+00 0.  1.
         11    1    3    3    0    0  0.85020469612E+01  0.38950501606E+01  0.10038371341E+02  0.13719515944E+02  0.51100000000E-03 0. -1.
        -11    1    3    3    0    0  0.12134190609E+02  0.31884731209E+02 -0.10315160989E+02  0.35640948535E+02  0.51100000000E-03 0.  1.
         12    1    3    3    0    0 -0.20088416911E+02 -0.35315450959E+02  0.12134794576E+01  0.40647239793E+02  0.00000000000E+00 0. -1.
</event>
<event>
 7    1  0.3622165E-015  0.9000790E+02  0.7816164E-02  0.1186339E+00
        -11   -1    0    0    0    0  0.00000000000E+00  0.00000000000E+00  0.45593999997E+02  0.45594000000E+02  0.51100000000E-03 0. -1.
         11   -1    0    0    0    0 -0.00000000000E+00 -0.00000000000E+00 -0.45593999997E+02  0.45594000000E+02  0.51100000000E-03 0.  1.
    9900012    2    1    2    0    0 -0.29237247847E+00  0.10534410606E+01  0.44432407278E+00  0.90007896777E+02  0.90000160215E+02 0.  0.
        -12    1    1    2    0    0  0.29237247847E+00 -0.10534410606E+01 -0.44432407278E+00  0.11801032226E+01  0.00000000000E+00 0.  1.
         11    1    3    3    0    0 -0.25393564160E+01 -0.35656459507E+01  0.59145296918E+01  0.73582486904E+01  0.51100000000E-03 0. -1.
        -11    1    3    3    0    0  0.79504027269E+01 -0.33998589219E+02 -0.20878695528E+02  0.40682095566E+02  0.51100000000E-03 0.  1.
         12    1    3    3    0    0 -0.57034187894E+01  0.38617676230E+02  0.15408489909E+02  0.41967552521E+02  0.00000000000E+00 0. -1.
</event>
<event>
 7    1  0.3622165E-015  0.9000770E+02  0.7816164E-02  0.1186339E+00
        -11   -1    0    0    0    0  0.00000000000E+00  0.00000000000E+00  0.45593999997E+02  0.45594000000E+02  0.51100000000E-03 0. -1.
         11   -1    0    0    0    0 -0.00000000000E+00 -0.00000000000E+00 -0.45593999997E+02  0.45594000000E+02  0.51100000000E-03 0.  1.
    9900012    2    1    2    0    0 -0.58557745821E+00  0.27660631264E+00  0.98675994954E+00  0.90007700373E+02  0.89999961218E+02 0.  0.
        -12    1    1    2    0    0  0.58557745821E+00 -0.27660631264E+00 -0.98675994954E+00  0.11802996271E+01  0.00000000000E+00 0.  1.
         11    1    3    3    0    0  0.64834189649E+01 -0.37657802091E+01  0.35674968868E+02  0.36454344406E+02  0.51100000000E-03 0. -1.
        -11    1    3    3    0    0 -0.15164657072E+02 -0.66898513974E+01 -0.24158980288E+00  0.16576468313E+02  0.51100000000E-03 0.  1.
        -12    1    3    3    0    0  0.80956606486E+01  0.10732237919E+02 -0.34446619116E+02  0.36976887654E+02  0.00000000000E+00 0.  1.
</event>
<event>
 7    1  0.3622165E-015  0.9000782E+02  0.7816164E-02  0.1186339E+00
        -11   -1    0    0    0    0  0.00000000000E+00  0.00000000000E+00  0.45593999997E+02  0.45594000000E+02  0.51100000000E-03 0. -1.
         11   -1    0    0    0    0 -0.00000000000E+00 -0.00000000000E+00 -0.45593999997E+02  0.45594000000E+02  0.51100000000E-03 0.  1.
    9900012    2    1    2    0    0  0.89836059315E+00  0.25685463527E+00 -0.72097052088E+00  0.90007820119E+02  0.90000082545E+02 0.  0.
        -12    1    1    2    0    0 -0.89836059315E+00 -0.25685463527E+00  0.72097052088E+00  0.11801798808E+01  0.00000000000E+00 0.  1.
         11    1    3    3    0    0  0.19239930629E+02  0.18733395709E+02 -0.26927237307E+01  0.26988253126E+02  0.51100000000E-03 0. -1.
        -11    1    3    3    0    0  0.19259562688E+02 -0.95766048424E-01 -0.64814529926E+01  0.20321150539E+02  0.51100000000E-03 0.  1.
        -12    1    3    3    0    0 -0.37601132724E+02 -0.18380775026E+02  0.84532062024E+01  0.42698416455E+02  0.00000000000E+00 0.  1.
</event>
<event>
 7    1  0.3622165E-015  0.9000779E+02  0.7816164E-02  0.1186339E+00
        -11   -1    0    0    0    0  0.00000000000E+00  0.00000000000E+00  0.45593999997E+02  0.45594000000E+02  0.51100000000E-03 0. -1.
         11   -1    0    0    0    0 -0.00000000000E+00 -0.00000000000E+00 -0.45593999997E+02  0.45594000000E+02  0.51100000000E-03 0.  1.
    9900012    2    1    2    0    0  0.83662865572E-01  0.51992756104E+00  0.10562007263E+01  0.90007794883E+02  0.90000056976E+02 0.  0.
        -12    1    1    2    0    0 -0.83662865572E-01 -0.51992756104E+00 -0.10562007263E+01  0.11802051169E+01  0.00000000000E+00 0.  1.
         11    1    3    3    0    0  0.17030465954E+02  0.16196975810E+02  0.48413854542E+01  0.23996204062E+02  0.51100000000E-03 0. -1.
        -11    1    3    3    0    0  0.14193272076E+02  0.15026043611E+02  0.53193617030E+01  0.21343068384E+02  0.51100000000E-03 0.  1.
        -12    1    3    3    0    0 -0.31140075164E+02 -0.30703091861E+02 -0.91045464310E+01  0.44668522438E+02  0.00000000000E+00 0.  1.
</event>
<event>
 7    1  0.3622165E-015  0.9000799E+02  0.7816164E-02  0.1186339E+00
        -11   -1    0    0    0    0  0.00000000000E+00  0.00000000000E+00  0.45593999997E+02  0.45594000000E+02  0.51100000000E-03 0. -1.
         11   -1    0    0    0    0 -0.00000000000E+00 -0.00000000000E+00 -0.45593999997E+02  0.45594000000E+02  0.51100000000E-03 0.  1.
    9900012    2    1    2    0    0  0.66680959706E+00 -0.43808175577E+00  0.86940934638E+00  0.90007990138E+02  0.90000254807E+02 0.  0.
        -12    1    1    2    0    0 -0.66680959706E+00  0.43808175577E+00 -0.86940934638E+00  0.11800098623E+01  0.00000000000E+00 0.  1.
         11    1    3    3    0    0  0.18298022736E+01 -0.68471683125E+01 -0.84530103206E+01  0.11031104840E+02  0.51100000000E-03 0. -1.
        -11    1    3    3    0    0  0.15288045638E+01  0.19073453822E+02 -0.31109200133E+02  0.36522817762E+02  0.51100000000E-03 0.  1.
         12    1    3    3    0    0 -0.26917972404E+01 -0.12664367265E+02  0.40431619800E+02  0.42454067535E+02  0.00000000000E+00 0. -1.
</event>
<event>
 7    1  0.3622165E-015  0.9000815E+02  0.7816164E-02  0.1186338E+00
        -11   -1    0    0    0    0  0.00000000000E+00  0.00000000000E+00  0.45593999997E+02  0.45594000000E+02  0.51100000000E-03 0.  1.
         11   -1    0    0    0    0 -0.00000000000E+00 -0.00000000000E+00 -0.45593999997E+02  0.45594000000E+02  0.51100000000E-03 0. -1.
    9900012    2    1    2    0    0  0.37459704687E+00 -0.76974827918E+00 -0.81192239813E+00  0.90008146898E+02  0.90000413636E+02 0.  0.
        -12    1    1    2    0    0 -0.37459704687E+00  0.76974827918E+00  0.81192239813E+00  0.11798531016E+01  0.00000000000E+00 0.  1.
         11    1    3    3    0    0 -0.59610719307E+00  0.43392719223E+00  0.11360641952E+02  0.11384543136E+02  0.51100000000E-03 0. -1.
        -11    1    3    3    0    0  0.84265633572E+01  0.34301968944E+02 -0.21255161824E+02  0.41223948718E+02  0.51100000000E-03 0.  1.
         12    1    3    3    0    0 -0.74558591173E+01 -0.35505644415E+02  0.90825974739E+01  0.37399655044E+02  0.00000000000E+00 0. -1.
</event>
<event>
 7    1  0.3622165E-015  0.9000774E+02  0.7816164E-02  0.1186339E+00
        -11   -1    0    0    0    0  0.00000000000E+00  0.00000000000E+00  0.45593999997E+02  0.45594000000E+02  0.51100000000E-03 0. -1.
         11   -1    0    0    0    0 -0.00000000000E+00 -0.00000000000E+00 -0.45593999997E+02  0.45594000000E+02  0.51100000000E-03 0.  1.
    9900012    2    1    2    0    0  0.96067797049E+00 -0.35042898272E+00 -0.58932134873E+00  0.90007744821E+02  0.90000006253E+02 0.  0.
        -12    1    1    2    0    0 -0.96067797049E+00  0.35042898272E+00  0.58932134873E+00  0.11802551788E+01  0.00000000000E+00 0.  1.
         11    1    3    3    0    0  0.17246564018E+00  0.92636437178E+00  0.97512613553E+01  0.97966827869E+01  0.51100000000E-03 0. -1.
        -11    1    3    3    0    0 -0.11325507265E+02 -0.38288533259E+02 -0.10426370095E+02  0.41267276231E+02  0.51100000000E-03 0.  1.
         12    1    3    3    0    0  0.12113719595E+02  0.37011739904E+02  0.85787390665E-01  0.38943785803E+02  0.00000000000E+00 0. -1.
</event>
<event>
 7    1  0.3622165E-015  0.9000775E+02  0.7816164E-02  0.1186339E+00
        -11   -1    0    0    0    0  0.00000000000E+00  0.00000000000E+00  0.45593999997E+02  0.45594000000E+02  0.51100000000E-03 0. -1.
         11   -1    0    0    0    0 -0.00000000000E+00 -0.00000000000E+00 -0.45593999997E+02  0.45594000000E+02  0.51100000000E-03 0.  1.
    9900012    2    1    2    0    0  0.16940224265E+00  0.86673739326E+00  0.78298046105E+00  0.90007750352E+02  0.90000011857E+02 0.  0.
        -12    1    1    2    0    0 -0.16940224265E+00 -0.86673739326E+00 -0.78298046105E+00  0.11802496478E+01  0.00000000000E+00 0.  1.
         11    1    3    3    0    0 -0.95310751550E+01  0.23178919381E+01  0.17328931011E+01  0.99607698201E+01  0.51100000000E-03 0. -1.
        -11    1    3    3    0    0 -0.24763314537E+02  0.14793129546E+02  0.21362175054E+02  0.35894302500E+02  0.51100000000E-03 0.  1.
         12    1    3    3    0    0  0.34463791935E+02 -0.16244284091E+02 -0.22312087694E+02  0.44152678032E+02  0.00000000000E+00 0. -1.
</event>
<event>
 7    1  0.4531347E-015  0.9000774E+02  0.7816164E-02  0.1186339E+00
        -11   -1    0    0    0    0  0.00000000000E+00  0.00000000000E+00  0.45593999997E+02  0.45594000000E+02  0.51100000000E-03 0.  1.
         11   -1    0    0    0    0 -0.00000000000E+00 -0.00000000000E+00 -0.45593999997E+02  0.45594000000E+02  0.51100000000E-03 0. -1.
    9900012    2    1    2    0    0 -0.17860322516E+00 -0.11165568145E+01 -0.33824677534E+00  0.90007741929E+02  0.90000003323E+02 0.  0.
        -12    1    1    2    0    0  0.17860322516E+00  0.11165568145E+01  0.33824677534E+00  0.11802580705E+01  0.00000000000E+00 0.  1.
         11    1    3    3    0    0  0.15034112209E+01 -0.88207031959E+01 -0.29571575383E+01  0.94238968127E+01  0.51100000000E-03 0. -1.
        -11    1    3    3    0    0 -0.47718774566E+00  0.32907008749E+01  0.41400262241E+02  0.41533578395E+02  0.51100000000E-03 0.  1.
         12    1    3    3    0    0 -0.12048267004E+01  0.44134455065E+01 -0.38781351478E+02  0.39050266722E+02  0.00000000000E+00 0. -1.
</event>
<event>
 7    1  0.7713204E-015  0.9000776E+02  0.7816164E-02  0.1186339E+00
        -11   -1    0    0    0    0  0.00000000000E+00  0.00000000000E+00  0.45593999997E+02  0.45594000000E+02  0.51100000000E-03 0. -1.
         11   -1    0    0    0    0 -0.00000000000E+00 -0.00000000000E+00 -0.45593999997E+02  0.45594000000E+02  0.51100000000E-03 0.  1.
    9900012    2    1    2    0    0  0.22377048938E+00 -0.61474377798E+00  0.98233304660E+00  0.90007762160E+02  0.90000023821E+02 0.  0.
        -12    1    1    2    0    0 -0.22377048938E+00  0.61474377798E+00 -0.98233304660E+00  0.11802378400E+01  0.00000000000E+00 0.  1.
         11    1    3    3    0    0  0.38063188590E+01  0.28999856241E+01  0.37803253150E+02  0.38104906887E+02  0.51100000000E-03 0. -1.
        -11    1    3    3    0    0 -0.44008778780E+01 -0.66311992415E+01  0.53623977426E+01  0.95966577144E+01  0.51100000000E-03 0.  1.
        -12    1    3    3    0    0  0.81832950841E+00  0.31164698393E+01 -0.42183317846E+02  0.42306197559E+02  0.00000000000E+00 0.  1.
</event>
<event>
 7    1  0.3622165E-015  0.9000763E+02  0.7816164E-02  0.1186339E+00
        -11   -1    0    0    0    0  0.00000000000E+00  0.00000000000E+00  0.45593999997E+02  0.45594000000E+02  0.51100000000E-03 0.  1.
         11   -1    0    0    0    0 -0.00000000000E+00 -0.00000000000E+00 -0.45593999997E+02  0.45594000000E+02  0.51100000000E-03 0. -1.
    9900012    2    1    2    0    0 -0.22564333591E+00 -0.11116705962E+01  0.32642359675E+00  0.90007627688E+02  0.89999887574E+02 0.  0.
        -12    1    1    2    0    0  0.22564333591E+00  0.11116705962E+01 -0.32642359675E+00  0.11803723116E+01  0.00000000000E+00 0.  1.
         11    1    3    3    0    0 -0.17160752405E+01  0.11211991699E+02 -0.81861186732E+00  0.11372062159E+02  0.51100000000E-03 0. -1.
        -11    1    3    3    0    0 -0.90571248444E+01  0.25373066302E+02  0.21542925937E+02  0.34495241153E+02  0.51100000000E-03 0.  1.
         12    1    3    3    0    0  0.10547556749E+02 -0.37696728597E+02 -0.20397890473E+02  0.44140324377E+02  0.00000000000E+00 0. -1.
</event>
<event>
 7    1  0.3622165E-015  0.9000766E+02  0.7816164E-02  0.1186339E+00
        -11   -1    0    0    0    0  0.00000000000E+00  0.00000000000E+00  0.45593999997E+02  0.45594000000E+02  0.51100000000E-03 0.  1.
         11   -1    0    0    0    0 -0.00000000000E+00 -0.00000000000E+00 -0.45593999997E+02  0.45594000000E+02  0.51100000000E-03 0. -1.
    9900012    2    1    2    0    0  0.14880099121E+00 -0.11575597932E+01  0.17638535029E+00  0.90007661827E+02  0.89999922164E+02 0.  0.
        -12    1    1    2    0    0 -0.14880099121E+00  0.11575597932E+01 -0.17638535029E+00  0.11803381726E+01  0.00000000000E+00 0.  1.
         11    1    3    3    0    0  0.81289301927E+01  0.36433542565E+02  0.94893485266E+00  0.37341438209E+02  0.51100000000E-03 0. -1.
        -11    1    3    3    0    0  0.76103174658E+01  0.24967527698E+01 -0.50067640426E+01  0.94455488334E+01  0.51100000000E-03 0.  1.
        -12    1    3    3    0    0 -0.15590446667E+02 -0.40087855128E+02  0.42342145403E+01  0.43220674785E+02  0.00000000000E+00 0.  1.
</event>
<event>
 7    1  0.3622165E-015  0.9000777E+02  0.7816164E-02  0.1186339E+00
        -11   -1    0    0    0    0  0.00000000000E+00  0.00000000000E+00  0.45593999997E+02  0.45594000000E+02  0.51100000000E-03 0. -1.
         11   -1    0    0    0    0 -0.00000000000E+00 -0.00000000000E+00 -0.45593999997E+02  0.45594000000E+02  0.51100000000E-03 0.  1.
    9900012    2    1    2    0    0  0.36580406683E+00  0.12212379931E+00  0.11154423236E+01  0.90007771880E+02  0.90000033669E+02 0.  0.
        -12    1    1    2    0    0 -0.36580406683E+00 -0.12212379931E+00 -0.11154423236E+01  0.11802281199E+01  0.00000000000E+00 0.  1.
         11    1    3    3    0    0  0.55384122386E+01 -0.83495159030E+01  0.35812894817E+01  0.10640209610E+02  0.51100000000E-03 0. -1.
        -11    1    3    3    0    0 -0.30411969990E+02 -0.12790114062E+02 -0.23254821531E+02  0.40364113530E+02  0.51100000000E-03 0.  1.
         12    1    3    3    0    0  0.25239361818E+02  0.21261753764E+02  0.20788974373E+02  0.39003448740E+02  0.00000000000E+00 0. -1.
</event>
<event>
 7    1  0.3622165E-015  0.9000761E+02  0.7816164E-02  0.1186339E+00
        -11   -1    0    0    0    0  0.00000000000E+00  0.00000000000E+00  0.45593999997E+02  0.45594000000E+02  0.51100000000E-03 0. -1.
         11   -1    0    0    0    0 -0.00000000000E+00 -0.00000000000E+00 -0.45593999997E+02  0.45594000000E+02  0.51100000000E-03 0.  1.
    9900012    2    1    2    0    0 -0.94863516180E+00  0.64187023947E+00 -0.28533624333E+00  0.90007609028E+02  0.89999868667E+02 0.  0.
        -12    1    1    2    0    0  0.94863516180E+00 -0.64187023947E+00  0.28533624333E+00  0.11803909718E+01  0.00000000000E+00 0.  1.
         11    1    3    3    0    0  0.36242123536E+01  0.89488684078E+01 -0.44747129128E+01  0.10641438666E+02  0.51100000000E-03 0. -1.
        -11    1    3    3    0    0  0.36559388462E+02  0.14795786361E+01 -0.19553288413E+01  0.36641524924E+02  0.51100000000E-03 0.  1.
         12    1    3    3    0    0 -0.41132235977E+02 -0.97865768044E+01  0.61447055108E+01  0.42724645438E+02  0.00000000000E+00 0. -1.
</event>
<event>
 7    1  0.3622165E-015  0.9000768E+02  0.7816164E-02  0.1186339E+00
        -11   -1    0    0    0    0  0.00000000000E+00  0.00000000000E+00  0.45593999997E+02  0.45594000000E+02  0.51100000000E-03 0. -1.
         11   -1    0    0    0    0 -0.00000000000E+00 -0.00000000000E+00 -0.45593999997E+02  0.45594000000E+02  0.51100000000E-03 0.  1.
    9900012    2    1    2    0    0  0.12614794368E+00 -0.32501817424E+00  0.11276578233E+01  0.90007677043E+02  0.89999937580E+02 0.  0.
        -12    1    1    2    0    0 -0.12614794368E+00  0.32501817424E+00 -0.11276578233E+01  0.11803229574E+01  0.00000000000E+00 0.  1.
         11    1    3    3    0    0  0.14124250416E+02  0.27834088137E+02  0.24115592467E+02  0.39443538286E+02  0.51100000000E-03 0. -1.
        -11    1    3    3    0    0  0.79175222202E+01 -0.61256448030E-01  0.42095802489E+00  0.79289416935E+01  0.51100000000E-03 0.  1.
        -12    1    3    3    0    0 -0.21915624693E+02 -0.28097849863E+02 -0.23408892669E+02  0.42635197063E+02  0.00000000000E+00 0.  1.
</event>
<event>
 7    1  0.3622165E-015  0.9000805E+02  0.7816164E-02  0.1186338E+00
        -11   -1    0    0    0    0  0.00000000000E+00  0.00000000000E+00  0.45593999997E+02  0.45594000000E+02  0.51100000000E-03 0.  1.
         11   -1    0    0    0    0 -0.00000000000E+00 -0.00000000000E+00 -0.45593999997E+02  0.45594000000E+02  0.51100000000E-03 0. -1.
    9900012    2    1    2    0    0  0.47704999251E+00  0.81725154502E+00 -0.70483924191E+00  0.90008052908E+02  0.90000318406E+02 0.  0.
        -12    1    1    2    0    0 -0.47704999251E+00 -0.81725154502E+00  0.70483924191E+00  0.11799470921E+01  0.00000000000E+00 0.  1.
         11    1    3    3    0    0 -0.12695599755E+00 -0.67237392328E+01  0.20902474831E+01  0.70422952151E+01  0.51100000000E-03 0. -1.
        -11    1    3    3    0    0 -0.11261408851E+02 -0.24880937014E+02  0.26225788301E+02  0.37863865733E+02  0.51100000000E-03 0.  1.
         12    1    3    3    0    0  0.11865414841E+02  0.32421927792E+02 -0.29020875026E+02  0.45101891960E+02  0.00000000000E+00 0. -1.
</event>
<event>
 7    1  0.3622165E-015  0.9000771E+02  0.7816164E-02  0.1186339E+00
        -11   -1    0    0    0    0  0.00000000000E+00  0.00000000000E+00  0.45593999997E+02  0.45594000000E+02  0.51100000000E-03 0. -1.
         11   -1    0    0    0    0 -0.00000000000E+00 -0.00000000000E+00 -0.45593999997E+02  0.45594000000E+02  0.51100000000E-03 0.  1.
    9900012    2    1    2    0    0 -0.31191191724E-01  0.60405093316E+00 -0.10135245248E+01  0.90007710890E+02  0.89999971874E+02 0.  0.
        -12    1    1    2    0    0  0.31191191724E-01 -0.60405093316E+00  0.10135245248E+01  0.11802891097E+01  0.00000000000E+00 0.  1.
         11    1    3    3    0    0  0.93663634542E+01 -0.15659041905E+01 -0.71714393799E+01  0.11900015266E+02  0.51100000000E-03 0. -1.
        -11    1    3    3    0    0 -0.14932107766E+02 -0.30165668362E+02 -0.17235505560E+02  0.37815314916E+02  0.51100000000E-03 0.  1.
         12    1    3    3    0    0  0.55345531197E+01  0.32335623485E+02  0.23393420415E+02  0.40292380708E+02  0.00000000000E+00 0. -1.
</event>
<event>
 7    1  0.3622165E-015  0.9000772E+02  0.7816164E-02  0.1186339E+00
        -11   -1    0    0    0    0  0.00000000000E+00  0.00000000000E+00  0.45593999997E+02  0.45594000000E+02  0.51100000000E-03 0. -1.
         11   -1    0    0    0    0 -0.00000000000E+00 -0.00000000000E+00 -0.45593999997E+02  0.45594000000E+02  0.51100000000E-03 0.  1.
    9900012    2    1    2    0    0 -0.36242215143E-01  0.69704958182E+00 -0.95177697795E+00  0.90007715698E+02  0.89999976745E+02 0.  0.
        -12    1    1    2    0    0  0.36242215143E-01 -0.69704958182E+00  0.95177697795E+00  0.11802843020E+01  0.00000000000E+00 0.  1.
         11    1    3    3    0    0 -0.39833250265E+01 -0.83865006308E+01  0.17390823072E+01  0.94458815697E+01  0.51100000000E-03 0. -1.
        -11    1    3    3    0    0 -0.78131564298E+01  0.27032894870E+02 -0.33036002888E+02  0.43395855856E+02  0.51100000000E-03 0.  1.
         12    1    3    3    0    0  0.11760239241E+02 -0.17949344657E+02  0.30345143603E+02  0.37165978272E+02  0.00000000000E+00 0. -1.
</event>
<event>
 7    1  0.3622165E-015  0.9000775E+02  0.7816164E-02  0.1186339E+00
        -11   -1    0    0    0    0  0.00000000000E+00  0.00000000000E+00  0.45593999997E+02  0.45594000000E+02  0.51100000000E-03 0.  1.
         11   -1    0    0    0    0 -0.00000000000E+00 -0.00000000000E+00 -0.45593999997E+02  0.45594000000E+02  0.51100000000E-03 0. -1.
    9900012    2    1    2    0    0  0.19527446091E+00 -0.11616456323E+01  0.73802376457E-01  0.90007746010E+02  0.90000007457E+02 0.  0.
        -12    1    1    2    0    0 -0.19527446091E+00  0.11616456323E+01 -0.73802376457E-01  0.11802539900E+01  0.00000000000E+00 0.  1.
         11    1    3    3    0    0 -0.79548926570E+00 -0.51188896340E+01 -0.30440252207E+02  0.30877901304E+02  0.51100000000E-03 0. -1.
        -11    1    3    3    0    0  0.59123128546E+01 -0.89084382238E+01 -0.11030064711E+02  0.15361576829E+02  0.51100000000E-03 0.  1.
        -12    1    3    3    0    0 -0.49215491280E+01  0.12865682225E+02  0.41544119295E+02  0.43768267877E+02  0.00000000000E+00 0.  1.
</event>
<event>
 7    1  0.3622165E-015  0.9000768E+02  0.7816164E-02  0.1186339E+00
        -11   -1    0    0    0    0  0.00000000000E+00  0.00000000000E+00  0.45593999997E+02  0.45594000000E+02  0.51100000000E-03 0. -1.
         11   -1    0    0    0    0 -0.00000000000E+00 -0.00000000000E+00 -0.45593999997E+02  0.45594000000E+02  0.51100000000E-03 0.  1.
    9900012    2    1    2    0    0 -0.11219378937E+01 -0.36626696514E+00 -0.15885317652E-01  0.90007682894E+02  0.89999943508E+02 0.  0.
        -12    1    1    2    0    0  0.11219378937E+01  0.36626696514E+00  0.15885317652E-01  0.11803171058E+01  0.00000000000E+00 0.  1.
         11    1    3    3    0    0 -0.34991592396E+01  0.37106637118E+02  0.18424404291E+02  0.41576499460E+02  0.51100000000E-03 0. -1.
        -11    1    3    3    0    0 -0.14103411593E+01  0.10244096354E+01 -0.82446917555E+01  0.84269460477E+01  0.51100000000E-03 0.  1.
        -12    1    3    3    0    0  0.37875625052E+01 -0.38497313719E+02 -0.10195597853E+02  0.40004237387E+02  0.00000000000E+00 0.  1.
</event>
<event>
 7    1  0.3622165E-015  0.9000767E+02  0.7816164E-02  0.1186339E+00
        -11   -1    0    0    0    0  0.00000000000E+00  0.00000000000E+00  0.45593999997E+02  0.45594000000E+02  0.51100000000E-03 0.  1.
         11   -1    0    0    0    0 -0.00000000000E+00 -0.00000000000E+00 -0.45593999997E+02  0.45594000000E+02  0.51100000000E-03 0. -1.
    9900012    2    1    2    0    0  0.75585698319E+00  0.90331245034E+00  0.76732775106E-01  0.90007669080E+02  0.89999929512E+02 0.  0.
        -12    1    1    2    0    0 -0.75585698319E+00 -0.90331245034E+00 -0.76732775106E-01  0.11803309200E+01  0.00000000000E+00 0.  1.
         11    1    3    3    0    0  0.25932757571E+01  0.11559853445E+02 -0.28448022138E+01  0.12183931661E+02  0.51100000000E-03 0. -1.
        -11    1    3    3    0    0 -0.27279554280E+02  0.22015206340E+02 -0.57301548016E+01  0.35520107914E+02  0.51100000000E-03 0.  1.
         12    1    3    3    0    0  0.25442135506E+02 -0.32671747335E+02  0.86516897906E+01  0.42303629505E+02  0.00000000000E+00 0. -1.
</event>
<event>
 7    1  0.3622165E-015  0.9000770E+02  0.7816164E-02  0.1186339E+00
        -11   -1    0    0    0    0  0.00000000000E+00  0.00000000000E+00  0.45593999997E+02  0.45594000000E+02  0.51100000000E-03 0.  1.
         11   -1    0    0    0    0 -0.00000000000E+00 -0.00000000000E+00 -0.45593999997E+02  0.45594000000E+02  0.51100000000E-03 0. -1.
    9900012    2    1    2    0    0  0.38994290840E+00  0.11093495441E+01  0.10195154932E+00  0.90007700885E+02  0.89999961737E+02 0.  0.
        -12    1    1    2    0    0 -0.38994290840E+00 -0.11093495441E+01 -0.10195154932E+00  0.11802991151E+01  0.00000000000E+00 0.  1.
         11    1    3    3    0    0 -0.12329323777E+02 -0.26479375950E+02 -0.24318366287E+02  0.38007269234E+02  0.51100000000E-03 0. -1.
        -11    1    3    3    0    0 -0.10662491797E+02  0.18716316603E+01  0.32481048044E+01  0.11302297177E+02  0.51100000000E-03 0.  1.
        -12    1    3    3    0    0  0.23381758483E+02  0.25717093834E+02  0.21172213032E+02  0.40698134474E+02  0.00000000000E+00 0.  1.
</event>
<event>
 7    1  0.3622165E-015  0.9000772E+02  0.7816164E-02  0.1186339E+00
        -11   -1    0    0    0    0  0.00000000000E+00  0.00000000000E+00  0.45593999997E+02  0.45594000000E+02  0.51100000000E-03 0.  1.
         11   -1    0    0    0    0 -0.00000000000E+00 -0.00000000000E+00 -0.45593999997E+02  0.45594000000E+02  0.51100000000E-03 0. -1.
    9900012    2    1    2    0    0 -0.96779501971E+00  0.47311029457E+00  0.48227944529E+00  0.90007722908E+02  0.89999984050E+02 0.  0.
        -12    1    1    2    0    0  0.96779501971E+00 -0.47311029457E+00 -0.48227944529E+00  0.11802770922E+01  0.00000000000E+00 0.  1.
         11    1    3    3    0    0  0.42124260421E+01 -0.45573589569E+01  0.34043389202E+01  0.70783880628E+01  0.51100000000E-03 0. -1.
        -11    1    3    3    0    0  0.83312980964E+01 -0.37081672058E+02 -0.65013475658E+01  0.38558117836E+02  0.51100000000E-03 0.  1.
         12    1    3    3    0    0 -0.13511519158E+02  0.42112141310E+02  0.35792880909E+01  0.44371217009E+02  0.00000000000E+00 0. -1.
</event>
<event>
 7    1  0.3622165E-015  0.9000772E+02  0.7816164E-02  0.1186339E+00
        -11   -1    0    0    0    0  0.00000000000E+00  0.00000000000E+00  0.45593999997E+02  0.45594000000E+02  0.51100000000E-03 0.  1.
         11   -1    0    0    0    0 -0.00000000000E+00 -0.00000000000E+00 -0.45593999997E+02  0.45594000000E+02  0.51100000000E-03 0. -1.
    9900012    2    1    2    0    0  0.83266886658E-01 -0.11600583696E+01  0.20095252898E+00  0.90007724306E+02  0.89999985467E+02 0.  0.
        -12    1    1    2    0    0 -0.83266886658E-01  0.11600583696E+01 -0.20095252898E+00  0.11802756942E+01  0.00000000000E+00 0.  1.
         11    1    3    3    0    0  0.60739409997E+01  0.16434219337E+02 -0.65213789046E+01  0.18695045000E+02  0.51100000000E-03 0. -1.
        -11    1    3    3    0    0  0.28432933932E+02 -0.22209792487E+02  0.85767976198E+00  0.36089364488E+02  0.51100000000E-03 0.  1.
         12    1    3    3    0    0 -0.34423608045E+02  0.46155147803E+01  0.58646516716E+01  0.35223314818E+02  0.00000000000E+00 0. -1.
</event>
<event>
 7    1  0.3622165E-015  0.9000775E+02  0.7816164E-02  0.1186339E+00
        -11   -1    0    0    0    0  0.00000000000E+00  0.00000000000E+00  0.45593999997E+02  0.45594000000E+02  0.51100000000E-03 0.  1.
         11   -1    0    0    0    0 -0.00000000000E+00 -0.00000000000E+00 -0.45593999997E+02  0.45594000000E+02  0.51100000000E-03 0. -1.
    9900012    2    1    2    0    0 -0.98214683587E-01  0.10740228083E+01  0.47939307111E+00  0.90007750521E+02  0.90000012028E+02 0.  0.
        -12    1    1    2    0    0  0.98214683587E-01 -0.10740228083E+01 -0.47939307111E+00  0.11802494794E+01  0.00000000000E+00 0.  1.
         11    1    3    3    0    0 -0.20674149396E+02  0.31226115892E+02  0.11949429226E+02  0.39310044849E+02  0.51100000000E-03 0. -1.
        -11    1    3    3    0    0  0.78661935718E+01  0.54419512801E+01  0.33009515891E+01  0.10118701335E+02  0.51100000000E-03 0.  1.
        -12    1    3    3    0    0  0.12709741141E+02 -0.35594044364E+02 -0.14770987744E+02  0.40579004337E+02  0.00000000000E+00 0.  1.
</event>
<event>
 7    1  0.3622165E-015  0.9000776E+02  0.7816164E-02  0.1186339E+00
        -11   -1    0    0    0    0  0.00000000000E+00  0.00000000000E+00  0.45593999997E+02  0.45594000000E+02  0.51100000000E-03 0. -1.
         11   -1    0    0    0    0 -0.00000000000E+00 -0.00000000000E+00 -0.45593999997E+02  0.45594000000E+02  0.51100000000E-03 0.  1.
    9900012    2    1    2    0    0  0.24444671460E+00 -0.93621678575E+00 -0.67579798220E+00  0.90007763168E+02  0.90000024842E+02 0.  0.
        -12    1    1    2    0    0 -0.24444671460E+00  0.93621678575E+00  0.67579798220E+00  0.11802368317E+01  0.00000000000E+00 0.  1.
         11    1    3    3    0    0 -0.81157195023E+01 -0.25155292305E+01 -0.31402957249E+01  0.90583799794E+01  0.51100000000E-03 0. -1.
        -11    1    3    3    0    0  0.24124861129E+02  0.34012037299E+02  0.12473633222E+02  0.43524925408E+02  0.51100000000E-03 0.  1.
         12    1    3    3    0    0 -0.15764694912E+02 -0.32432724854E+02 -0.10009135479E+02  0.37424457781E+02  0.00000000000E+00 0. -1.
</event>
<event>
 7    1  0.3622165E-015  0.9000770E+02  0.7816164E-02  0.1186339E+00
        -11   -1    0    0    0    0  0.00000000000E+00  0.00000000000E+00  0.45593999997E+02  0.45594000000E+02  0.51100000000E-03 0.  1.
         11   -1    0    0    0    0 -0.00000000000E+00 -0.00000000000E+00 -0.45593999997E+02  0.45594000000E+02  0.51100000000E-03 0. -1.
    9900012    2    1    2    0    0  0.98596574978E+00  0.64588878796E+00  0.61641065172E-01  0.90007703255E+02  0.89999964138E+02 0.  0.
        -12    1    1    2    0    0 -0.98596574978E+00 -0.64588878796E+00 -0.61641065172E-01  0.11802967453E+01  0.00000000000E+00 0.  1.
         11    1    3    3    0    0 -0.27521270285E+01  0.37930816175E+02 -0.11675367819E+02  0.39782348257E+02  0.51100000000E-03 0. -1.
        -11    1    3    3    0    0  0.21198397924E+01 -0.30117792429E+01 -0.92831988712E+01  0.99871075140E+01  0.51100000000E-03 0.  1.
        -12    1    3    3    0    0  0.16182529860E+01 -0.34273148145E+02  0.21020207755E+02  0.40238247483E+02  0.00000000000E+00 0.  1.
</event>
<event>
 7    1  0.3622165E-015  0.9000774E+02  0.7816164E-02  0.1186339E+00
        -11   -1    0    0    0    0  0.00000000000E+00  0.00000000000E+00  0.45593999997E+02  0.45594000000E+02  0.51100000000E-03 0.  1.
         11   -1    0    0    0    0 -0.00000000000E+00 -0.00000000000E+00 -0.45593999997E+02  0.45594000000E+02  0.51100000000E-03 0. -1.
    9900012    2    1    2    0    0 -0.73041191160E+00 -0.48438718503E+00 -0.79049929314E+00  0.90007736623E+02  0.89999997947E+02 0.  0.
        -12    1    1    2    0    0  0.73041191160E+00  0.48438718503E+00  0.79049929314E+00  0.11802633766E+01  0.00000000000E+00 0.  1.
         11    1    3    3    0    0  0.76558736034E+01  0.73716624159E+01 -0.43797962754E+01  0.11495060812E+02  0.51100000000E-03 0. -1.
        -11    1    3    3    0    0  0.14302905552E+01 -0.75016147382E+01  0.40039909311E+02  0.40761676765E+02  0.51100000000E-03 0.  1.
         12    1    3    3    0    0 -0.98165760702E+01 -0.35443486280E+00 -0.36450612329E+02  0.37750999046E+02  0.00000000000E+00 0. -1.
</event>
<event>
 7    1  0.3622165E-015  0.9000777E+02  0.7816164E-02  0.1186339E+00
        -11   -1    0    0    0    0  0.00000000000E+00  0.00000000000E+00  0.45593999997E+02  0.45594000000E+02  0.51100000000E-03 0. -1.
         11   -1    0    0    0    0 -0.00000000000E+00 -0.00000000000E+00 -0.45593999997E+02  0.45594000000E+02  0.51100000000E-03 0.  1.
    9900012    2    1    2    0    0  0.81155101600E+00 -0.29721630307E+00  0.80373979156E+00  0.90007766873E+02  0.90000028595E+02 0.  0.
        -12    1    1    2    0    0 -0.81155101600E+00  0.29721630307E+00 -0.80373979156E+00  0.11802331274E+01  0.00000000000E+00 0.  1.
         11    1    3    3    0    0  0.15458492504E+02 -0.62236913922E+01  0.41543995733E+02  0.44761623147E+02  0.51100000000E-03 0. -1.
        -11    1    3    3    0    0 -0.63474225004E+01 -0.25405018723E+01 -0.85856476300E+01  0.10975302622E+02  0.51100000000E-03 0.  1.
        -12    1    3    3    0    0 -0.82995189873E+01  0.84669769615E+01 -0.32154608311E+02  0.34270841104E+02  0.00000000000E+00 0.  1.
</event>
<event>
 7    1  0.5667474E-015  0.9000769E+02  0.7816164E-02  0.1186339E+00
        -11   -1    0    0    0    0  0.00000000000E+00  0.00000000000E+00  0.45593999997E+02  0.45594000000E+02  0.51100000000E-03 0. -1.
         11   -1    0    0    0    0 -0.00000000000E+00 -0.00000000000E+00 -0.45593999997E+02  0.45594000000E+02  0.51100000000E-03 0.  1.
    9900012    2    1    2    0    0  0.85515402654E-01  0.68669053511E+00  0.95617599832E+00  0.90007691009E+02  0.89999951730E+02 0.  0.
        -12    1    1    2    0    0 -0.85515402654E-01 -0.68669053511E+00 -0.95617599832E+00  0.11803089913E+01  0.00000000000E+00 0.  1.
         11    1    3    3    0    0 -0.58395088683E+00  0.25375568218E+02  0.32602918248E+02  0.41318406788E+02  0.51100000000E-03 0. -1.
        -11    1    3    3    0    0  0.37701499106E+01  0.54195743712E+01 -0.73191331471E+01  0.98567503265E+01  0.51100000000E-03 0.  1.
        -12    1    3    3    0    0 -0.31006836211E+01 -0.30108452054E+02 -0.24327609102E+02  0.38832533894E+02  0.00000000000E+00 0.  1.
</event>
<event>
 7    1  0.3622165E-015  0.9000775E+02  0.7816164E-02  0.1186339E+00
        -11   -1    0    0    0    0  0.00000000000E+00  0.00000000000E+00  0.45593999997E+02  0.45594000000E+02  0.51100000000E-03 0.  1.
         11   -1    0    0    0    0 -0.00000000000E+00 -0.00000000000E+00 -0.45593999997E+02  0.45594000000E+02  0.51100000000E-03 0. -1.
    9900012    2    1    2    0    0 -0.29659156180E+00  0.96762129586E+00 -0.60722560450E+00  0.90007754067E+02  0.90000015621E+02 0.  0.
        -12    1    1    2    0    0  0.29659156180E+00 -0.96762129586E+00  0.60722560450E+00  0.11802459326E+01  0.00000000000E+00 0.  1.
         11    1    3    3    0    0 -0.24655189782E+02 -0.10496225821E+02 -0.22519094054E+02  0.35002267597E+02  0.51100000000E-03 0. -1.
        -11    1    3    3    0    0 -0.99011142975E+01 -0.26182566571E-01 -0.38542145133E+01  0.10624863276E+02  0.51100000000E-03 0.  1.
        -12    1    3    3    0    0  0.34259712517E+02  0.11490029683E+02  0.25766082963E+02  0.44380623195E+02  0.00000000000E+00 0.  1.
</event>
<event>
 7    1  0.3622165E-015  0.9000718E+02  0.7816164E-02  0.1186340E+00
        -11   -1    0    0    0    0  0.00000000000E+00  0.00000000000E+00  0.45593999997E+02  0.45594000000E+02  0.51100000000E-03 0. -1.
         11   -1    0    0    0    0 -0.00000000000E+00 -0.00000000000E+00 -0.45593999997E+02  0.45594000000E+02  0.51100000000E-03 0.  1.
    9900012    2    1    2    0    0  0.99933121519E+00 -0.46662268593E+00  0.42181944545E+00  0.90007181956E+02  0.89999435956E+02 0.  0.
        -12    1    1    2    0    0 -0.99933121519E+00  0.46662268593E+00 -0.42181944545E+00  0.11808180441E+01  0.00000000000E+00 0.  1.
         11    1    3    3    0    0  0.29690641661E+02  0.28074324470E+00  0.19400172613E+02  0.35468009765E+02  0.51100000000E-03 0. -1.
        -11    1    3    3    0    0 -0.22056891178E+01  0.13188533385E+01  0.12836431323E+02  0.13091157626E+02  0.51100000000E-03 0.  1.
        -12    1    3    3    0    0 -0.26485621328E+02 -0.20662192692E+01 -0.31814784491E+02  0.41448014565E+02  0.00000000000E+00 0.  1.
</event>
<event>
 7    1  0.3622165E-015  0.9000768E+02  0.7816164E-02  0.1186339E+00
        -11   -1    0    0    0    0  0.00000000000E+00  0.00000000000E+00  0.45593999997E+02  0.45594000000E+02  0.51100000000E-03 0.  1.
         11   -1    0    0    0    0 -0.00000000000E+00 -0.00000000000E+00 -0.45593999997E+02  0.45594000000E+02  0.51100000000E-03 0. -1.
    9900012    2    1    2    0    0 -0.53112480949E-02 -0.10240722175E+01 -0.58685635856E+00  0.90007681186E+02  0.89999941778E+02 0.  0.
        -12    1    1    2    0    0  0.53112480949E-02  0.10240722175E+01  0.58685635856E+00  0.11803188136E+01  0.00000000000E+00 0.  1.
         11    1    3    3    0    0 -0.21093149012E+01 -0.91693270633E+01 -0.20133065256E+00  0.94109671362E+01  0.51100000000E-03 0. -1.
        -11    1    3    3    0    0  0.38372552380E+02  0.16227533934E+02  0.81940587069E+01  0.42460902394E+02  0.51100000000E-03 0.  1.
         12    1    3    3    0    0 -0.36268548727E+02 -0.80822790885E+01 -0.85795844129E+01  0.38135811657E+02  0.00000000000E+00 0. -1.
</event>
<event>
 7    1  0.3622165E-015  0.9000779E+02  0.7816164E-02  0.1186339E+00
        -11   -1    0    0    0    0  0.00000000000E+00  0.00000000000E+00  0.45593999997E+02  0.45594000000E+02  0.51100000000E-03 0.  1.
         11   -1    0    0    0    0 -0.00000000000E+00 -0.00000000000E+00 -0.45593999997E+02  0.45594000000E+02  0.51100000000E-03 0. -1.
    9900012    2    1    2    0    0  0.81174452473E+00  0.45685336144E+00 -0.72474816561E+00  0.90007786430E+02  0.90000048411E+02 0.  0.
        -12    1    1    2    0    0 -0.81174452473E+00 -0.45685336144E+00  0.72474816561E+00  0.11802135700E+01  0.00000000000E+00 0.  1.
         11    1    3    3    0    0 -0.15288165760E+02 -0.25738196672E+02 -0.30690014399E+02  0.42872599225E+02  0.51100000000E-03 0. -1.
        -11    1    3    3    0    0 -0.28393386477E+01  0.84826806235E+01  0.23402126911E+01  0.92463133311E+01  0.51100000000E-03 0.  1.
        -12    1    3    3    0    0  0.18939248932E+02  0.17712369410E+02  0.27625053543E+02  0.37888873874E+02  0.00000000000E+00 0.  1.
</event>
<event>
 7    1  0.3622165E-015  0.9000778E+02  0.7816164E-02  0.1186339E+00
        -11   -1    0    0    0    0  0.00000000000E+00  0.00000000000E+00  0.45593999997E+02  0.45594000000E+02  0.51100000000E-03 0.  1.
         11   -1    0    0    0    0 -0.00000000000E+00 -0.00000000000E+00 -0.45593999997E+02  0.45594000000E+02  0.51100000000E-03 0. -1.
    9900012    2    1    2    0    0 -0.37977114723E+00  0.33387286129E+00 -0.10664108895E+01  0.90007775701E+02  0.90000037540E+02 0.  0.
        -12    1    1    2    0    0  0.37977114723E+00 -0.33387286129E+00  0.10664108895E+01  0.11802242994E+01  0.00000000000E+00 0.  1.
         11    1    3    3    0    0  0.22621149789E+02  0.29084559905E+02 -0.60226497275E+01  0.37334974925E+02  0.51100000000E-03 0. -1.
        -11    1    3    3    0    0 -0.25470389012E+01  0.90809307424E+01  0.10063479112E+01  0.94849062564E+01  0.51100000000E-03 0.  1.
        -12    1    3    3    0    0 -0.20453882035E+02 -0.37831617787E+02  0.39498909268E+01  0.43187894519E+02  0.00000000000E+00 0.  1.
</event>
<event>
 7    1  0.3622165E-015  0.9000775E+02  0.7816164E-02  0.1186339E+00
        -11   -1    0    0    0    0  0.00000000000E+00  0.00000000000E+00  0.45593999997E+02  0.45594000000E+02  0.51100000000E-03 0. -1.
         11   -1    0    0    0    0 -0.00000000000E+00 -0.00000000000E+00 -0.45593999997E+02  0.45594000000E+02  0.51100000000E-03 0.  1.
    9900012    2    1    2    0    0  0.11148606958E+01  0.24874866466E+00 -0.29697322219E+00  0.90007752838E+02  0.90000014375E+02 0.  0.
        -12    1    1    2    0    0 -0.11148606958E+01 -0.24874866466E+00  0.29697322219E+00  0.11802471622E+01  0.00000000000E+00 0.  1.
         11    1    3    3    0    0  0.27742119120E+02 -0.24675349889E+02 -0.94671877600E+01  0.38316128585E+02  0.51100000000E-03 0. -1.
        -11    1    3    3    0    0 -0.95105682229E+01 -0.75763875672E+01 -0.37956446281E+01  0.12738111120E+02  0.51100000000E-03 0.  1.
        -12    1    3    3    0    0 -0.17116690201E+02  0.32500486121E+02  0.12965859166E+02  0.38953513133E+02  0.00000000000E+00 0.  1.
</event>
<event>
 7    1  0.3622165E-015  0.9000777E+02  0.7816164E-02  0.1186339E+00
        -11   -1    0    0    0    0  0.00000000000E+00  0.00000000000E+00  0.45593999997E+02  0.45594000000E+02  0.51100000000E-03 0. -1.
         11   -1    0    0    0    0 -0.00000000000E+00 -0.00000000000E+00 -0.45593999997E+02  0.45594000000E+02  0.51100000000E-03 0.  1.
    9900012    2    1    2    0    0  0.71039112847E-01  0.19351111378E+00  0.11620929271E+01  0.90007765668E+02  0.90000027375E+02 0.  0.
        -12    1    1    2    0    0 -0.71039112847E-01 -0.19351111378E+00 -0.11620929271E+01  0.11802343318E+01  0.00000000000E+00 0.  1.
         11    1    3    3    0    0  0.29393910855E+01 -0.79465506488E+00 -0.83205645195E+01  0.88602082826E+01  0.51100000000E-03 0. -1.
        -11    1    3    3    0    0 -0.41150007283E+02 -0.28779336063E+01 -0.10212956212E+01  0.41263163309E+02  0.51100000000E-03 0.  1.
         12    1    3    3    0    0  0.38281655310E+02  0.38660997849E+01  0.10503953068E+02  0.39884394077E+02  0.00000000000E+00 0. -1.
</event>
<event>
 7    1  0.3622165E-015  0.9000780E+02  0.7816164E-02  0.1186339E+00
        -11   -1    0    0    0    0  0.00000000000E+00  0.00000000000E+00  0.45593999997E+02  0.45594000000E+02  0.51100000000E-03 0.  1.
         11   -1    0    0    0    0 -0.00000000000E+00 -0.00000000000E+00 -0.45593999997E+02  0.45594000000E+02  0.51100000000E-03 0. -1.
    9900012    2    1    2    0    0  0.22913403831E+00 -0.11238277684E+01  0.27817192324E+00  0.90007800492E+02  0.90000062658E+02 0.  0.
        -12    1    1    2    0    0 -0.22913403831E+00  0.11238277684E+01 -0.27817192324E+00  0.11801995083E+01  0.00000000000E+00 0.  1.
         11    1    3    3    0    0 -0.51642797405E+01 -0.78739119270E+01 -0.38221667269E+01  0.10162540677E+02  0.51100000000E-03 0. -1.
        -11    1    3    3    0    0  0.13827527491E+02 -0.15594188425E+02  0.35033987016E+02  0.40764684171E+02  0.51100000000E-03 0.  1.
         12    1    3    3    0    0 -0.84341137118E+01  0.22344272583E+02 -0.30933648365E+02  0.39080575643E+02  0.00000000000E+00 0. -1.
</event>
<event>
 7    1  0.3622165E-015  0.9000765E+02  0.7816164E-02  0.1186339E+00
        -11   -1    0    0    0    0  0.00000000000E+00  0.00000000000E+00  0.45593999997E+02  0.45594000000E+02  0.51100000000E-03 0.  1.
         11   -1    0    0    0    0 -0.00000000000E+00 -0.00000000000E+00 -0.45593999997E+02  0.45594000000E+02  0.51100000000E-03 0. -1.
    9900012    2    1    2    0    0 -0.42322978343E-01  0.98799759715E+00 -0.64444192221E+00  0.90007645868E+02  0.89999905993E+02 0.  0.
        -12    1    1    2    0    0  0.42322978343E-01 -0.98799759715E+00  0.64444192221E+00  0.11803541323E+01  0.00000000000E+00 0.  1.
         11    1    3    3    0    0 -0.56383845295E+01  0.28936431978E+02 -0.22220666868E+02  0.36917021982E+02  0.51100000000E-03 0. -1.
        -11    1    3    3    0    0  0.30243142300E+01  0.69460796019E+01 -0.50652555872E+01  0.91132493010E+01  0.51100000000E-03 0.  1.
        -12    1    3    3    0    0  0.25717473212E+01 -0.34894513983E+02  0.26641480533E+02  0.43977374585E+02  0.00000000000E+00 0.  1.
</event>
<event>
 7    1  0.3622165E-015  0.9000775E+02  0.7816164E-02  0.1186339E+00
        -11   -1    0    0    0    0  0.00000000000E+00  0.00000000000E+00  0.45593999997E+02  0.45594000000E+02  0.51100000000E-03 0.  1.
         11   -1    0    0    0    0 -0.00000000000E+00 -0.00000000000E+00 -0.45593999997E+02  0.45594000000E+02  0.51100000000E-03 0. -1.
    9900012    2    1    2    0    0  0.11652266499E+01 -0.40005917990E-01 -0.18340131723E+00  0.90007750170E+02  0.90000011672E+02 0.  0.
        -12    1    1    2    0    0 -0.11652266499E+01  0.40005917990E-01  0.18340131723E+00  0.11802498304E+01  0.00000000000E+00 0.  1.
         11    1    3    3    0    0  0.18107066962E+02 -0.31180073245E+02  0.55783600604E+01  0.36485352441E+02  0.51100000000E-03 0. -1.
        -11    1    3    3    0    0  0.15719295410E+01 -0.66379151316E+00 -0.15389456683E+02  0.15483764365E+02  0.51100000000E-03 0.  1.
        -12    1    3    3    0    0 -0.18513769853E+02  0.31803858840E+02  0.96276953055E+01  0.38038633364E+02  0.00000000000E+00 0.  1.
</event>
<event>
 7    1  0.3622165E-015  0.9000775E+02  0.7816164E-02  0.1186339E+00
        -11   -1    0    0    0    0  0.00000000000E+00  0.00000000000E+00  0.45593999997E+02  0.45594000000E+02  0.51100000000E-03 0.  1.
         11   -1    0    0    0    0 -0.00000000000E+00 -0.00000000000E+00 -0.45593999997E+02  0.45594000000E+02  0.51100000000E-03 0. -1.
    9900012    2    1    2    0    0 -0.24241928506E+00 -0.10105457308E+01 -0.55949188986E+00  0.90007745384E+02  0.90000006823E+02 0.  0.
        -12    1    1    2    0    0  0.24241928506E+00  0.10105457308E+01  0.55949188986E+00  0.11802546160E+01  0.00000000000E+00 0.  1.
         11    1    3    3    0    0 -0.84853361251E+01 -0.14999628566E+00  0.81541311373E+00  0.85257449439E+01  0.51100000000E-03 0. -1.
        -11    1    3    3    0    0 -0.22505370038E+02  0.29589241227E+02  0.57746099251E+01  0.37621283829E+02  0.51100000000E-03 0.  1.
         12    1    3    3    0    0  0.30748286878E+02 -0.30449790672E+02 -0.71495149287E+01  0.43860716611E+02  0.00000000000E+00 0. -1.
</event>
<event>
 7    1  0.3622165E-015  0.9000771E+02  0.7816164E-02  0.1186339E+00
        -11   -1    0    0    0    0  0.00000000000E+00  0.00000000000E+00  0.45593999997E+02  0.45594000000E+02  0.51100000000E-03 0.  1.
         11   -1    0    0    0    0 -0.00000000000E+00 -0.00000000000E+00 -0.45593999997E+02  0.45594000000E+02  0.51100000000E-03 0. -1.
    9900012    2    1    2    0    0 -0.56351211427E+00 -0.10177697524E+01  0.19919848261E+00  0.90007711388E+02  0.89999972378E+02 0.  0.
        -12    1    1    2    0    0  0.56351211427E+00  0.10177697524E+01 -0.19919848261E+00  0.11802886118E+01  0.00000000000E+00 0.  1.
         11    1    3    3    0    0  0.10123749472E+02 -0.28201108263E+01 -0.13504360145E+01  0.10595612589E+02  0.51100000000E-03 0. -1.
        -11    1    3    3    0    0  0.25785315191E+02  0.12426493041E+02  0.22154320260E+02  0.36195498549E+02  0.51100000000E-03 0.  1.
         12    1    3    3    0    0 -0.36472576777E+02 -0.10624151967E+02 -0.20604685763E+02  0.43216600250E+02  0.00000000000E+00 0. -1.
</event>
<event>
 7    1  0.3622165E-015  0.9000727E+02  0.7816164E-02  0.1186340E+00
        -11   -1    0    0    0    0  0.00000000000E+00  0.00000000000E+00  0.45593999997E+02  0.45594000000E+02  0.51100000000E-03 0. -1.
         11   -1    0    0    0    0 -0.00000000000E+00 -0.00000000000E+00 -0.45593999997E+02  0.45594000000E+02  0.51100000000E-03 0.  1.
    9900012    2    1    2    0    0  0.10501436988E+01  0.79537428534E-01  0.53385357780E+00  0.90007268179E+02  0.89999523318E+02 0.  0.
        -12    1    1    2    0    0 -0.10501436988E+01 -0.79537428534E-01 -0.53385357780E+00  0.11807318210E+01  0.00000000000E+00 0.  1.
         11    1    3    3    0    0  0.75154536909E+01 -0.21110225939E+01 -0.34655973339E+01  0.85410084717E+01  0.51100000000E-03 0. -1.
        -11    1    3    3    0    0  0.28081007978E+02 -0.27360325549E+01 -0.23752082155E+02  0.36880757722E+02  0.51100000000E-03 0.  1.
         12    1    3    3    0    0 -0.34546317970E+02  0.49265925774E+01  0.27751533066E+02  0.44585501985E+02  0.00000000000E+00 0. -1.
</event>
<event>
 7    1  0.3622165E-015  0.9000776E+02  0.7816164E-02  0.1186339E+00
        -11   -1    0    0    0    0  0.00000000000E+00  0.00000000000E+00  0.45593999997E+02  0.45594000000E+02  0.51100000000E-03 0. -1.
         11   -1    0    0    0    0 -0.00000000000E+00 -0.00000000000E+00 -0.45593999997E+02  0.45594000000E+02  0.51100000000E-03 0.  1.
    9900012    2    1    2    0    0  0.48902503227E+00 -0.49782764279E+00  0.95183000212E+00  0.90007763500E+02  0.90000025178E+02 0.  0.
        -12    1    1    2    0    0 -0.48902503227E+00  0.49782764279E+00 -0.95183000212E+00  0.11802365005E+01  0.00000000000E+00 0.  1.
         11    1    3    3    0    0 -0.25813431670E+01 -0.16868593658E+01  0.10143280926E+02  0.10601649648E+02  0.51100000000E-03 0. -1.
        -11    1    3    3    0    0  0.12271481127E+02 -0.24024999705E+02  0.24422990258E+02  0.36390552528E+02  0.51100000000E-03 0.  1.
         12    1    3    3    0    0 -0.92011129281E+01  0.25214031428E+02 -0.33614441182E+02  0.43015561323E+02  0.00000000000E+00 0. -1.
</event>
<event>
 7    1  0.3622165E-015  0.9000767E+02  0.7816164E-02  0.1186339E+00
        -11   -1    0    0    0    0  0.00000000000E+00  0.00000000000E+00  0.45593999997E+02  0.45594000000E+02  0.51100000000E-03 0.  1.
         11   -1    0    0    0    0 -0.00000000000E+00 -0.00000000000E+00 -0.45593999997E+02  0.45594000000E+02  0.51100000000E-03 0. -1.
    9900012    2    1    2    0    0 -0.26926989349E+00 -0.78826194111E+00 -0.83625010862E+00  0.90007670636E+02  0.89999931088E+02 0.  0.
        -12    1    1    2    0    0  0.26926989349E+00  0.78826194111E+00  0.83625010862E+00  0.11803293640E+01  0.00000000000E+00 0.  1.
         11    1    3    3    0    0 -0.21887784680E+02  0.26175315921E+02 -0.11509069797E+02  0.36009456670E+02  0.51100000000E-03 0. -1.
        -11    1    3    3    0    0 -0.90144685755E+01  0.30258297755E-01  0.95795967685E+01  0.13154095703E+02  0.51100000000E-03 0.  1.
        -12    1    3    3    0    0  0.30632983362E+02 -0.26993836160E+02  0.10932229202E+01  0.40844118263E+02  0.00000000000E+00 0.  1.
</event>
<event>
 7    1  0.3622165E-015  0.9000777E+02  0.7816164E-02  0.1186339E+00
        -11   -1    0    0    0    0  0.00000000000E+00  0.00000000000E+00  0.45593999997E+02  0.45594000000E+02  0.51100000000E-03 0. -1.
         11   -1    0    0    0    0 -0.00000000000E+00 -0.00000000000E+00 -0.45593999997E+02  0.45594000000E+02  0.51100000000E-03 0.  1.
    9900012    2    1    2    0    0  0.59945609128E+00  0.27931818982E+00  0.97753287457E+00  0.90007772574E+02  0.90000034372E+02 0.  0.
        -12    1    1    2    0    0 -0.59945609128E+00 -0.27931818982E+00 -0.97753287457E+00  0.11802274261E+01  0.00000000000E+00 0.  1.
         11    1    3    3    0    0  0.50996653576E+01  0.71303632824E+01  0.48560680681E+01  0.10021480162E+02  0.51100000000E-03 0. -1.
        -11    1    3    3    0    0 -0.21257592398E+02  0.61268411462E+01 -0.35553257689E+02  0.41874306556E+02  0.51100000000E-03 0.  1.
         12    1    3    3    0    0  0.16757383132E+02 -0.12977886239E+02  0.31674722496E+02  0.38111985855E+02  0.00000000000E+00 0. -1.
</event>
<event>
 7    1  0.3622165E-015  0.9000762E+02  0.7816164E-02  0.1186339E+00
        -11   -1    0    0    0    0  0.00000000000E+00  0.00000000000E+00  0.45593999997E+02  0.45594000000E+02  0.51100000000E-03 0.  1.
         11   -1    0    0    0    0 -0.00000000000E+00 -0.00000000000E+00 -0.45593999997E+02  0.45594000000E+02  0.51100000000E-03 0. -1.
    9900012    2    1    2    0    0  0.71228183218E+00  0.77253041325E+00 -0.53772807208E+00  0.90007618652E+02  0.89999878418E+02 0.  0.
        -12    1    1    2    0    0 -0.71228183218E+00 -0.77253041325E+00  0.53772807208E+00  0.11803813483E+01  0.00000000000E+00 0.  1.
         11    1    3    3    0    0 -0.54246417381E-01  0.13802481344E+02  0.64164280568E+01  0.15221103219E+02  0.51100000000E-03 0. -1.
        -11    1    3    3    0    0  0.27591814765E+02  0.14412264446E+02  0.10191596316E+02  0.32755003346E+02  0.51100000000E-03 0.  1.
         12    1    3    3    0    0 -0.26825286516E+02 -0.27442215376E+02 -0.17145752445E+02  0.42031512087E+02  0.00000000000E+00 0. -1.
</event>
<event>
 7    1  0.3622165E-015  0.9000773E+02  0.7816164E-02  0.1186339E+00
        -11   -1    0    0    0    0  0.00000000000E+00  0.00000000000E+00  0.45593999997E+02  0.45594000000E+02  0.51100000000E-03 0. -1.
         11   -1    0    0    0    0 -0.00000000000E+00 -0.00000000000E+00 -0.45593999997E+02  0.45594000000E+02  0.51100000000E-03 0.  1.
    9900012    2    1    2    0    0  0.29677208726E+00  0.25015500908E+00  0.11146197939E+01  0.90007733723E+02  0.89999995008E+02 0.  0.
        -12    1    1    2    0    0 -0.29677208726E+00 -0.25015500908E+00 -0.11146197939E+01  0.11802662773E+01  0.00000000000E+00 0.  1.
         11    1    3    3    0    0 -0.18569998097E+02 -0.22392861122E+02  0.16731823104E+02  0.33559483954E+02  0.51100000000E-03 0. -1.
        -11    1    3    3    0    0 -0.10171526900E+02 -0.66702228845E+01 -0.78096399950E+01  0.14454836904E+02  0.51100000000E-03 0.  1.
        -12    1    3    3    0    0  0.29038297084E+02  0.29313239016E+02 -0.78075633154E+01  0.41993412865E+02  0.00000000000E+00 0.  1.
</event>
<event>
 7    1  0.3622165E-015  0.9000773E+02  0.7816164E-02  0.1186339E+00
        -11   -1    0    0    0    0  0.00000000000E+00  0.00000000000E+00  0.45593999997E+02  0.45594000000E+02  0.51100000000E-03 0.  1.
         11   -1    0    0    0    0 -0.00000000000E+00 -0.00000000000E+00 -0.45593999997E+02  0.45594000000E+02  0.51100000000E-03 0. -1.
    9900012    2    1    2    0    0  0.92730124110E+00 -0.14387767449E+00 -0.71585642586E+00  0.90007729353E+02  0.89999990581E+02 0.  0.
        -12    1    1    2    0    0 -0.92730124110E+00  0.14387767449E+00  0.71585642586E+00  0.11802706467E+01  0.00000000000E+00 0.  1.
         11    1    3    3    0    0  0.22740472702E+02 -0.10017297609E+02 -0.34687326534E+00  0.24851472218E+02  0.51100000000E-03 0. -1.
        -11    1    3    3    0    0 -0.27520648151E+02 -0.18949413065E+02 -0.88659999435E+01  0.34569817550E+02  0.51100000000E-03 0.  1.
         12    1    3    3    0    0  0.57074766902E+01  0.28822833000E+02  0.84970167830E+01  0.30586439585E+02  0.00000000000E+00 0. -1.
</event>
<event>
 7    1  0.3622165E-015  0.9000777E+02  0.7816164E-02  0.1186339E+00
        -11   -1    0    0    0    0  0.00000000000E+00  0.00000000000E+00  0.45593999997E+02  0.45594000000E+02  0.51100000000E-03 0. -1.
         11   -1    0    0    0    0 -0.00000000000E+00 -0.00000000000E+00 -0.45593999997E+02  0.45594000000E+02  0.51100000000E-03 0.  1.
    9900012    2    1    2    0    0  0.19463028073E+00  0.10036355508E+01 -0.58972066188E+00  0.90007773020E+02  0.90000034824E+02 0.  0.
        -12    1    1    2    0    0 -0.19463028073E+00 -0.10036355508E+01  0.58972066188E+00  0.11802269799E+01  0.00000000000E+00 0.  1.
         11    1    3    3    0    0  0.26773847576E+01  0.15419195777E+01 -0.79286186405E+01  0.85093418625E+01  0.51100000000E-03 0. -1.
        -11    1    3    3    0    0  0.19184550215E+02  0.15231283775E+02 -0.27964499301E+02  0.37175962581E+02  0.51100000000E-03 0.  1.
         12    1    3    3    0    0 -0.21667304692E+02 -0.15769567802E+02  0.35303397280E+02  0.44322468577E+02  0.00000000000E+00 0. -1.
</event>
<event>
 7    1  0.3622165E-015  0.9000757E+02  0.7816164E-02  0.1186339E+00
        -11   -1    0    0    0    0  0.00000000000E+00  0.00000000000E+00  0.45593999997E+02  0.45594000000E+02  0.51100000000E-03 0.  1.
         11   -1    0    0    0    0 -0.00000000000E+00 -0.00000000000E+00 -0.45593999997E+02  0.45594000000E+02  0.51100000000E-03 0. -1.
    9900012    2    1    2    0    0  0.11146395295E+01 -0.36875380807E+00 -0.12252880985E+00  0.90007570434E+02  0.89999829563E+02 0.  0.
        -12    1    1    2    0    0 -0.11146395295E+01  0.36875380807E+00  0.12252880985E+00  0.11804295663E+01  0.00000000000E+00 0.  1.
         11    1    3    3    0    0 -0.91369995564E+00  0.70624812829E+01  0.61691937460E+01  0.94219128216E+01  0.51100000000E-03 0. -1.
        -11    1    3    3    0    0 -0.31639192390E-02  0.28471293472E+02  0.21053176874E+02  0.35409755982E+02  0.51100000000E-03 0.  1.
         12    1    3    3    0    0  0.20315034044E+01 -0.35902528563E+02 -0.27344899430E+02  0.45175901630E+02  0.00000000000E+00 0. -1.
</event>
<event>
 7    1  0.3622165E-015  0.9000780E+02  0.7816164E-02  0.1186339E+00
        -11   -1    0    0    0    0  0.00000000000E+00  0.00000000000E+00  0.45593999997E+02  0.45594000000E+02  0.51100000000E-03 0.  1.
         11   -1    0    0    0    0 -0.00000000000E+00 -0.00000000000E+00 -0.45593999997E+02  0.45594000000E+02  0.51100000000E-03 0. -1.
    9900012    2    1    2    0    0 -0.82766114409E-01 -0.11755193686E+01  0.64605424586E-01  0.90007800917E+02  0.90000063089E+02 0.  0.
        -12    1    1    2    0    0  0.82766114409E-01  0.11755193686E+01 -0.64605424586E-01  0.11801990834E+01  0.00000000000E+00 0.  1.
         11    1    3    3    0    0 -0.87448192451E+01  0.16425851770E+01  0.86238698253E+01  0.12391169465E+02  0.51100000000E-03 0. -1.
        -11    1    3    3    0    0  0.12409816082E+02 -0.16315734220E+02  0.30145497926E+02  0.36454872977E+02  0.51100000000E-03 0.  1.
         12    1    3    3    0    0 -0.37477629509E+01  0.13497629674E+02 -0.38704762326E+02  0.41161758474E+02  0.00000000000E+00 0. -1.
</event>
<event>
 7    1  0.3622165E-015  0.9000715E+02  0.7816164E-02  0.1186340E+00
        -11   -1    0    0    0    0  0.00000000000E+00  0.00000000000E+00  0.45593999997E+02  0.45594000000E+02  0.51100000000E-03 0. -1.
         11   -1    0    0    0    0 -0.00000000000E+00 -0.00000000000E+00 -0.45593999997E+02  0.45594000000E+02  0.51100000000E-03 0.  1.
    9900012    2    1    2    0    0 -0.64887393075E+00 -0.56348756913E+00  0.80985184811E+00  0.90007146226E+02  0.89999399755E+02 0.  0.
        -12    1    1    2    0    0  0.64887393075E+00  0.56348756913E+00 -0.80985184811E+00  0.11808537735E+01  0.00000000000E+00 0.  1.
         11    1    3    3    0    0  0.11294735312E+02  0.34025654751E+02  0.79658723525E+01  0.36725622521E+02  0.51100000000E-03 0. -1.
        -11    1    3    3    0    0 -0.44214739001E+01  0.77990967370E+01  0.21886293198E+01  0.92285123353E+01  0.51100000000E-03 0.  1.
        -12    1    3    3    0    0 -0.75221353422E+01 -0.42388239057E+02 -0.93446498241E+01  0.44053011370E+02  0.00000000000E+00 0.  1.
</event>
<event>
 7    1  0.3622165E-015  0.9000770E+02  0.7816164E-02  0.1186339E+00
        -11   -1    0    0    0    0  0.00000000000E+00  0.00000000000E+00  0.45593999997E+02  0.45594000000E+02  0.51100000000E-03 0. -1.
         11   -1    0    0    0    0 -0.00000000000E+00 -0.00000000000E+00 -0.45593999997E+02  0.45594000000E+02  0.51100000000E-03 0.  1.
    9900012    2    1    2    0    0  0.13130584360E-01  0.11318536363E+01  0.33442823197E+00  0.90007700331E+02  0.89999961175E+02 0.  0.
        -12    1    1    2    0    0 -0.13130584360E-01 -0.11318536363E+01 -0.33442823197E+00  0.11802996689E+01  0.00000000000E+00 0.  1.
         11    1    3    3    0    0  0.23541756044E+02  0.27951160938E+02  0.16967789871E+02  0.40291284029E+02  0.51100000000E-03 0. -1.
        -11    1    3    3    0    0  0.54231981053E+01  0.12261354140E+01 -0.56756860609E+01  0.79453066817E+01  0.51100000000E-03 0.  1.
        -12    1    3    3    0    0 -0.28951823564E+02 -0.28045442715E+02 -0.10957675578E+02  0.41771109620E+02  0.00000000000E+00 0.  1.
</event>
<event>
 7    1  0.3622165E-015  0.9000776E+02  0.7816164E-02  0.1186339E+00
        -11   -1    0    0    0    0  0.00000000000E+00  0.00000000000E+00  0.45593999997E+02  0.45594000000E+02  0.51100000000E-03 0.  1.
         11   -1    0    0    0    0 -0.00000000000E+00 -0.00000000000E+00 -0.45593999997E+02  0.45594000000E+02  0.51100000000E-03 0. -1.
    9900012    2    1    2    0    0  0.10692731461E+00  0.41968890909E+00 -0.10979032003E+01  0.90007761182E+02  0.90000022829E+02 0.  0.
        -12    1    1    2    0    0 -0.10692731461E+00 -0.41968890909E+00  0.10979032003E+01  0.11802388183E+01  0.00000000000E+00 0.  1.
         11    1    3    3    0    0 -0.12397272753E+02 -0.15696783305E+02 -0.33940390770E+02  0.39395831045E+02  0.51100000000E-03 0. -1.
        -11    1    3    3    0    0 -0.40653593934E+01 -0.67282738078E+01  0.78181374778E+00  0.78998764817E+01  0.51100000000E-03 0.  1.
        -12    1    3    3    0    0  0.16569559460E+02  0.22844746021E+02  0.32060673822E+02  0.42712053655E+02  0.00000000000E+00 0.  1.
</event>
<event>
 7    1  0.3622165E-015  0.9000771E+02  0.7816164E-02  0.1186339E+00
        -11   -1    0    0    0    0  0.00000000000E+00  0.00000000000E+00  0.45593999997E+02  0.45594000000E+02  0.51100000000E-03 0. -1.
         11   -1    0    0    0    0 -0.00000000000E+00 -0.00000000000E+00 -0.45593999997E+02  0.45594000000E+02  0.51100000000E-03 0.  1.
    9900012    2    1    2    0    0  0.27497207127E+00  0.31602124133E+00 -0.11034474655E+01  0.90007713859E+02  0.89999974882E+02 0.  0.
        -12    1    1    2    0    0 -0.27497207127E+00 -0.31602124133E+00  0.11034474655E+01  0.11802861408E+01  0.00000000000E+00 0.  1.
         11    1    3    3    0    0  0.71138717610E+01 -0.81932228861E+01 -0.17635863571E+01  0.10993011862E+02  0.51100000000E-03 0. -1.
        -11    1    3    3    0    0 -0.13120377141E+02  0.24199553422E+02 -0.32018079908E+02  0.42224638819E+02  0.51100000000E-03 0.  1.
         12    1    3    3    0    0  0.62814774512E+01 -0.15690309295E+02  0.32678218799E+02  0.36790063178E+02  0.00000000000E+00 0. -1.
</event>
<event>
 7    1  0.3622165E-015  0.9000762E+02  0.7816164E-02  0.1186339E+00
        -11   -1    0    0    0    0  0.00000000000E+00  0.00000000000E+00  0.45593999997E+02  0.45594000000E+02  0.51100000000E-03 0. -1.
         11   -1    0    0    0    0 -0.00000000000E+00 -0.00000000000E+00 -0.45593999997E+02  0.45594000000E+02  0.51100000000E-03 0.  1.
    9900012    2    1    2    0    0  0.35542628470E+00 -0.15634502244E+00  0.11146849545E+01  0.90007621180E+02  0.89999880980E+02 0.  0.
        -12    1    1    2    0    0 -0.35542628470E+00  0.15634502244E+00 -0.11146849545E+01  0.11803788195E+01  0.00000000000E+00 0.  1.
         11    1    3    3    0    0 -0.36662223882E+01 -0.27289822902E+01 -0.11197547973E+01  0.47055692543E+01  0.51100000000E-03 0. -1.
        -11    1    3    3    0    0  0.91914806699E+01  0.38753411474E+02 -0.17797477305E+02  0.43624080694E+02  0.51100000000E-03 0.  1.
         12    1    3    3    0    0 -0.51698319970E+01 -0.36180774206E+02  0.20031917057E+02  0.41677971232E+02  0.00000000000E+00 0. -1.
</event>
<event>
 7    1  0.3622165E-015  0.9000774E+02  0.7816164E-02  0.1186339E+00
        -11   -1    0    0    0    0  0.00000000000E+00  0.00000000000E+00  0.45593999997E+02  0.45594000000E+02  0.51100000000E-03 0.  1.
         11   -1    0    0    0    0 -0.00000000000E+00 -0.00000000000E+00 -0.45593999997E+02  0.45594000000E+02  0.51100000000E-03 0. -1.
    9900012    2    1    2    0    0  0.87938073021E+00  0.69186117788E+00 -0.37553832276E+00  0.90007740965E+02  0.90000002346E+02 0.  0.
        -12    1    1    2    0    0 -0.87938073021E+00 -0.69186117788E+00  0.37553832276E+00  0.11802590351E+01  0.00000000000E+00 0.  1.
         11    1    3    3    0    0 -0.60897678420E+01  0.57622687656E+01  0.95555004246E+01  0.12712065226E+02  0.51100000000E-03 0. -1.
        -11    1    3    3    0    0 -0.14534424588E+02  0.36595903438E+01  0.28614744615E+02  0.32302410270E+02  0.51100000000E-03 0.  1.
         12    1    3    3    0    0  0.21503573160E+02 -0.87299979315E+01 -0.38545783362E+02  0.44993265469E+02  0.00000000000E+00 0. -1.
</event>
<event>
 7    1  0.3622165E-015  0.9000775E+02  0.7816164E-02  0.1186339E+00
        -11   -1    0    0    0    0  0.00000000000E+00  0.00000000000E+00  0.45593999997E+02  0.45594000000E+02  0.51100000000E-03 0.  1.
         11   -1    0    0    0    0 -0.00000000000E+00 -0.00000000000E+00 -0.45593999997E+02  0.45594000000E+02  0.51100000000E-03 0. -1.
    9900012    2    1    2    0    0  0.14131775428E+00  0.10231860458E+01 -0.57105305151E+00  0.90007753424E+02  0.90000014969E+02 0.  0.
        -12    1    1    2    0    0 -0.14131775428E+00 -0.10231860458E+01  0.57105305151E+00  0.11802465758E+01  0.00000000000E+00 0.  1.
         11    1    3    3    0    0  0.34326311972E+01  0.62084252012E+00  0.10360828344E+02  0.10932299237E+02  0.51100000000E-03 0. -1.
        -11    1    3    3    0    0  0.91396314679E+01 -0.31913445290E+02  0.14388681135E+02  0.36180588701E+02  0.51100000000E-03 0.  1.
         12    1    3    3    0    0 -0.12430944911E+02  0.32315788816E+02 -0.25320562531E+02  0.42894865486E+02  0.00000000000E+00 0. -1.
</event>
<event>
 7    1  0.3622165E-015  0.9000767E+02  0.7816164E-02  0.1186339E+00
        -11   -1    0    0    0    0  0.00000000000E+00  0.00000000000E+00  0.45593999997E+02  0.45594000000E+02  0.51100000000E-03 0.  1.
         11   -1    0    0    0    0 -0.00000000000E+00 -0.00000000000E+00 -0.45593999997E+02  0.45594000000E+02  0.51100000000E-03 0. -1.
    9900012    2    1    2    0    0  0.11705156169E+00  0.11542624222E+01 -0.21717346881E+00  0.90007666520E+02  0.89999926919E+02 0.  0.
        -12    1    1    2    0    0 -0.11705156169E+00 -0.11542624222E+01  0.21717346881E+00  0.11803334795E+01  0.00000000000E+00 0.  1.
         11    1    3    3    0    0 -0.62570868842E+01 -0.54598564311E+01  0.21852059876E+01  0.85869839870E+01  0.51100000000E-03 0. -1.
        -11    1    3    3    0    0 -0.13736420457E+02  0.24102072020E+02  0.29068225432E+02  0.40181598433E+02  0.51100000000E-03 0.  1.
         12    1    3    3    0    0  0.20110558903E+02 -0.17487953167E+02 -0.31470604889E+02  0.41239084100E+02  0.00000000000E+00 0. -1.
</event>
<event>
 7    1  0.3622165E-015  0.9000781E+02  0.7816164E-02  0.1186339E+00
        -11   -1    0    0    0    0  0.00000000000E+00  0.00000000000E+00  0.45593999997E+02  0.45594000000E+02  0.51100000000E-03 0. -1.
         11   -1    0    0    0    0 -0.00000000000E+00 -0.00000000000E+00 -0.45593999997E+02  0.45594000000E+02  0.51100000000E-03 0.  1.
    9900012    2    1    2    0    0  0.58946908805E+00  0.85578557042E+00 -0.55947800872E+00  0.90007805783E+02  0.90000068019E+02 0.  0.
        -12    1    1    2    0    0 -0.58946908805E+00 -0.85578557042E+00  0.55947800872E+00  0.11801942173E+01  0.00000000000E+00 0.  1.
         11    1    3    3    0    0  0.87638961318E+01 -0.31207378186E+01 -0.15312258679E+01  0.94281245676E+01  0.51100000000E-03 0. -1.
        -11    1    3    3    0    0 -0.43377045423E+01 -0.23058332932E+02 -0.30779165237E+02  0.38702188713E+02  0.51100000000E-03 0.  1.
         12    1    3    3    0    0 -0.38367225014E+01  0.27034856321E+02  0.31750913096E+02  0.41877492502E+02  0.00000000000E+00 0. -1.
</event>
<event>
 7    1  0.3622165E-015  0.9000804E+02  0.7816164E-02  0.1186338E+00
        -11   -1    0    0    0    0  0.00000000000E+00  0.00000000000E+00  0.45593999997E+02  0.45594000000E+02  0.51100000000E-03 0.  1.
         11   -1    0    0    0    0 -0.00000000000E+00 -0.00000000000E+00 -0.45593999997E+02  0.45594000000E+02  0.51100000000E-03 0. -1.
    9900012    2    1    2    0    0  0.10173087212E+01  0.52669180049E+00 -0.28281739328E+00  0.90008039422E+02  0.90000304742E+02 0.  0.
        -12    1    1    2    0    0 -0.10173087212E+01 -0.52669180049E+00  0.28281739328E+00  0.11799605777E+01  0.00000000000E+00 0.  1.
         11    1    3    3    0    0 -0.33676342643E+02  0.99609028442E+01  0.35022087856E+01  0.35292791132E+02  0.51100000000E-03 0. -1.
        -11    1    3    3    0    0 -0.42142954916E+01 -0.37100654147E+01 -0.13141574472E+02  0.14290761062E+02  0.51100000000E-03 0.  1.
        -12    1    3    3    0    0  0.38907946856E+02 -0.57241456290E+01  0.93565482928E+01  0.40424487228E+02  0.00000000000E+00 0.  1.
</event>
<event>
 7    1  0.3622165E-015  0.9000765E+02  0.7816164E-02  0.1186339E+00
        -11   -1    0    0    0    0  0.00000000000E+00  0.00000000000E+00  0.45593999997E+02  0.45594000000E+02  0.51100000000E-03 0.  1.
         11   -1    0    0    0    0 -0.00000000000E+00 -0.00000000000E+00 -0.45593999997E+02  0.45594000000E+02  0.51100000000E-03 0. -1.
    9900012    2    1    2    0    0 -0.36907929262E+00  0.90908012187E+00 -0.65618843125E+00  0.90007648591E+02  0.89999908752E+02 0.  0.
        -12    1    1    2    0    0  0.36907929262E+00 -0.90908012187E+00  0.65618843125E+00  0.11803514093E+01  0.00000000000E+00 0.  1.
         11    1    3    3    0    0  0.69047102870E+01  0.60879787503E+01  0.36759950852E+00  0.92126890250E+01  0.51100000000E-03 0. -1.
        -11    1    3    3    0    0  0.16180180349E+02 -0.34994964432E+01  0.34458400022E+02  0.38228602431E+02  0.51100000000E-03 0.  1.
         12    1    3    3    0    0 -0.23453969929E+02 -0.16794021852E+01 -0.35482187962E+02  0.42566357134E+02  0.00000000000E+00 0. -1.
</event>
<event>
 7    1  0.3622165E-015  0.9000768E+02  0.7816164E-02  0.1186339E+00
        -11   -1    0    0    0    0  0.00000000000E+00  0.00000000000E+00  0.45593999997E+02  0.45594000000E+02  0.51100000000E-03 0.  1.
         11   -1    0    0    0    0 -0.00000000000E+00 -0.00000000000E+00 -0.45593999997E+02  0.45594000000E+02  0.51100000000E-03 0. -1.
    9900012    2    1    2    0    0 -0.42777096584E+00 -0.66626992716E+00 -0.87535247940E+00  0.90007684119E+02  0.89999944750E+02 0.  0.
        -12    1    1    2    0    0  0.42777096584E+00  0.66626992716E+00  0.87535247940E+00  0.11803158807E+01  0.00000000000E+00 0.  1.
         11    1    3    3    0    0  0.92606327184E+01  0.58978893975E+01 -0.34841862854E+02  0.36530806521E+02  0.51100000000E-03 0. -1.
        -11    1    3    3    0    0  0.36506215301E+01  0.32690938008E+01 -0.74221110955E+01  0.88939161909E+01  0.51100000000E-03 0.  1.
        -12    1    3    3    0    0 -0.13339025214E+02 -0.98332531255E+01  0.41388621470E+02  0.44582961408E+02  0.00000000000E+00 0.  1.
</event>
<event>
 7    1  0.3622165E-015  0.9000788E+02  0.7816164E-02  0.1186339E+00
        -11   -1    0    0    0    0  0.00000000000E+00  0.00000000000E+00  0.45593999997E+02  0.45594000000E+02  0.51100000000E-03 0. -1.
         11   -1    0    0    0    0 -0.00000000000E+00 -0.00000000000E+00 -0.45593999997E+02  0.45594000000E+02  0.51100000000E-03 0.  1.
    9900012    2    1    2    0    0  0.74795476790E+00  0.95102659844E-01  0.90784975455E+00  0.90007884740E+02  0.90000148018E+02 0.  0.
        -12    1    1    2    0    0 -0.74795476790E+00 -0.95102659844E-01 -0.90784975455E+00  0.11801152603E+01  0.00000000000E+00 0.  1.
         11    1    3    3    0    0 -0.27558133711E+02 -0.18525732456E+02  0.20165061425E+02  0.38849494195E+02  0.51100000000E-03 0. -1.
        -11    1    3    3    0    0 -0.49884526978E+01  0.65824628989E+01  0.36077648792E+01  0.90127379756E+01  0.51100000000E-03 0.  1.
        -12    1    3    3    0    0  0.33294541177E+02  0.12038372217E+02 -0.22864976550E+02  0.42145652569E+02  0.00000000000E+00 0.  1.
</event>
<event>
 7    1  0.3622165E-015  0.9000770E+02  0.7816164E-02  0.1186339E+00
        -11   -1    0    0    0    0  0.00000000000E+00  0.00000000000E+00  0.45593999997E+02  0.45594000000E+02  0.51100000000E-03 0.  1.
         11   -1    0    0    0    0 -0.00000000000E+00 -0.00000000000E+00 -0.45593999997E+02  0.45594000000E+02  0.51100000000E-03 0. -1.
    9900012    2    1    2    0    0  0.63307802107E+00 -0.25077847037E-01 -0.99583186852E+00  0.90007704363E+02  0.89999965261E+02 0.  0.
        -12    1    1    2    0    0 -0.63307802107E+00  0.25077847037E-01  0.99583186852E+00  0.11802956365E+01  0.00000000000E+00 0.  1.
         11    1    3    3    0    0  0.25497577083E+01  0.25192798921E+01 -0.10199490126E+02  0.10810996006E+02  0.51100000000E-03 0. -1.
        -11    1    3    3    0    0  0.86214322090E+01  0.36270315952E+02 -0.23366103638E+01  0.37354044772E+02  0.51100000000E-03 0.  1.
         12    1    3    3    0    0 -0.10538111896E+02 -0.38814673691E+02  0.11540268622E+02  0.41842663585E+02  0.00000000000E+00 0. -1.
</event>
<event>
 7    1  0.3622165E-015  0.9000771E+02  0.7816164E-02  0.1186339E+00
        -11   -1    0    0    0    0  0.00000000000E+00  0.00000000000E+00  0.45593999997E+02  0.45594000000E+02  0.51100000000E-03 0.  1.
         11   -1    0    0    0    0 -0.00000000000E+00 -0.00000000000E+00 -0.45593999997E+02  0.45594000000E+02  0.51100000000E-03 0. -1.
    9900012    2    1    2    0    0  0.52965746328E+00  0.61231332739E+00 -0.85884654355E+00  0.90007711042E+02  0.89999972028E+02 0.  0.
        -12    1    1    2    0    0 -0.52965746328E+00 -0.61231332739E+00  0.85884654355E+00  0.11802889581E+01  0.00000000000E+00 0.  1.
         11    1    3    3    0    0 -0.33089921774E+01 -0.81289120138E+00  0.83339897304E+01  0.90036440636E+01  0.51100000000E-03 0. -1.
        -11    1    3    3    0    0 -0.56272424145E+01 -0.91153573959E+01  0.33947228464E+02  0.35597330213E+02  0.51100000000E-03 0.  1.
         12    1    3    3    0    0  0.94658920553E+01  0.10540561925E+02 -0.43140064738E+02  0.45406736765E+02  0.00000000000E+00 0. -1.
</event>
<event>
 7    1  0.3622165E-015  0.9000778E+02  0.7816164E-02  0.1186339E+00
        -11   -1    0    0    0    0  0.00000000000E+00  0.00000000000E+00  0.45593999997E+02  0.45594000000E+02  0.51100000000E-03 0.  1.
         11   -1    0    0    0    0 -0.00000000000E+00 -0.00000000000E+00 -0.45593999997E+02  0.45594000000E+02  0.51100000000E-03 0. -1.
    9900012    2    1    2    0    0  0.34655244209E+00 -0.92549287970E+00 -0.64520168152E+00  0.90007779311E+02  0.90000041198E+02 0.  0.
        -12    1    1    2    0    0 -0.34655244209E+00  0.92549287970E+00  0.64520168152E+00  0.11802206892E+01  0.00000000000E+00 0.  1.
         11    1    3    3    0    0  0.15135112210E+02 -0.28724593118E+02  0.18457720338E+02  0.37347842130E+02  0.51100000000E-03 0. -1.
        -11    1    3    3    0    0 -0.94469982960E+00 -0.70727374494E+01  0.44037966108E+01  0.83850758880E+01  0.51100000000E-03 0.  1.
        -12    1    3    3    0    0 -0.13843859938E+02  0.34871837688E+02 -0.23506718631E+02  0.44274861293E+02  0.00000000000E+00 0.  1.
</event>
<event>
 7    1  0.3622165E-015  0.9000775E+02  0.7816164E-02  0.1186339E+00
        -11   -1    0    0    0    0  0.00000000000E+00  0.00000000000E+00  0.45593999997E+02  0.45594000000E+02  0.51100000000E-03 0. -1.
         11   -1    0    0    0    0 -0.00000000000E+00 -0.00000000000E+00 -0.45593999997E+02  0.45594000000E+02  0.51100000000E-03 0.  1.
    9900012    2    1    2    0    0  0.40521278092E+00  0.94973780289E+00 -0.57166630858E+00  0.90007745087E+02  0.90000006522E+02 0.  0.
        -12    1    1    2    0    0 -0.40521278092E+00 -0.94973780289E+00  0.57166630858E+00  0.11802549133E+01  0.00000000000E+00 0.  1.
         11    1    3    3    0    0  0.20329081216E+02  0.30144849911E+02  0.11933789618E+01  0.36378670575E+02  0.51100000000E-03 0. -1.
        -11    1    3    3    0    0  0.68695603252E+01  0.61489981115E+01 -0.96454403058E+00  0.92699181380E+01  0.51100000000E-03 0.  1.
        -12    1    3    3    0    0 -0.26793428760E+02 -0.35344110219E+02 -0.80050123975E+00  0.44359156373E+02  0.00000000000E+00 0.  1.
</event>
<event>
 7    1  0.3622165E-015  0.9000757E+02  0.7816164E-02  0.1186339E+00
        -11   -1    0    0    0    0  0.00000000000E+00  0.00000000000E+00  0.45593999997E+02  0.45594000000E+02  0.51100000000E-03 0.  1.
         11   -1    0    0    0    0 -0.00000000000E+00 -0.00000000000E+00 -0.45593999997E+02  0.45594000000E+02  0.51100000000E-03 0. -1.
    9900012    2    1    2    0    0 -0.50164521655E+00  0.42630092554E+00 -0.97981119134E+00  0.90007571953E+02  0.89999831103E+02 0.  0.
        -12    1    1    2    0    0  0.50164521655E+00 -0.42630092554E+00  0.97981119134E+00  0.11804280465E+01  0.00000000000E+00 0.  1.
         11    1    3    3    0    0  0.69055758273E+01  0.13789871154E+02  0.26302828015E+01  0.15644996383E+02  0.51100000000E-03 0.  1.
        -11    1    3    3    0    0  0.65991253112E+01  0.75329499938E+01 -0.33691627334E+02  0.35148535434E+02  0.51100000000E-03 0. -1.
         12    1    3    3    0    0 -0.14006346355E+02 -0.20896520222E+02  0.30081533342E+02  0.39214040136E+02  0.00000000000E+00 0. -1.
</event>
<event>
 7    1  0.3622165E-015  0.9000777E+02  0.7816164E-02  0.1186339E+00
        -11   -1    0    0    0    0  0.00000000000E+00  0.00000000000E+00  0.45593999997E+02  0.45594000000E+02  0.51100000000E-03 0.  1.
         11   -1    0    0    0    0 -0.00000000000E+00 -0.00000000000E+00 -0.45593999997E+02  0.45594000000E+02  0.51100000000E-03 0. -1.
    9900012    2    1    2    0    0  0.15374333786E+00  0.11699590886E+01 -0.22388260837E-01  0.90007770142E+02  0.90000031908E+02 0.  0.
        -12    1    1    2    0    0 -0.15374333786E+00 -0.11699590886E+01  0.22388260837E-01  0.11802298578E+01  0.00000000000E+00 0.  1.
         11    1    3    3    0    0 -0.86491923652E+01 -0.12413964944E+02 -0.33183020335E+02  0.36469547475E+02  0.51100000000E-03 0. -1.
        -11    1    3    3    0    0  0.14227298795E+01 -0.24962729937E+01 -0.81266520862E+01  0.86196295489E+01  0.51100000000E-03 0.  1.
        -12    1    3    3    0    0  0.73802058235E+01  0.16080197027E+02  0.41287284160E+02  0.44918593118E+02  0.00000000000E+00 0.  1.
</event>
<event>
 7    1  0.3622165E-015  0.9000777E+02  0.7816164E-02  0.1186339E+00
        -11   -1    0    0    0    0  0.00000000000E+00  0.00000000000E+00  0.45593999997E+02  0.45594000000E+02  0.51100000000E-03 0.  1.
         11   -1    0    0    0    0 -0.00000000000E+00 -0.00000000000E+00 -0.45593999997E+02  0.45594000000E+02  0.51100000000E-03 0. -1.
    9900012    2    1    2    0    0 -0.95311170629E+00 -0.46598710034E+00 -0.51709266398E+00  0.90007766665E+02  0.90000028385E+02 0.  0.
        -12    1    1    2    0    0  0.95311170629E+00  0.46598710034E+00  0.51709266398E+00  0.11802333352E+01  0.00000000000E+00 0.  1.
         11    1    3    3    0    0  0.30794415720E+01  0.98786426854E+01  0.26463894621E+01  0.10680539272E+02  0.51100000000E-03 0. -1.
        -11    1    3    3    0    0 -0.16841112071E+01 -0.16883254493E+02  0.35869907417E+02  0.39680357498E+02  0.51100000000E-03 0.  1.
         12    1    3    3    0    0 -0.23484420712E+01  0.65386247069E+01 -0.39033389543E+02  0.39646869894E+02  0.00000000000E+00 0. -1.
</event>
<event>
 7    1  0.3622165E-015  0.9000771E+02  0.7816164E-02  0.1186339E+00
        -11   -1    0    0    0    0  0.00000000000E+00  0.00000000000E+00  0.45593999997E+02  0.45594000000E+02  0.51100000000E-03 0.  1.
         11   -1    0    0    0    0 -0.00000000000E+00 -0.00000000000E+00 -0.45593999997E+02  0.45594000000E+02  0.51100000000E-03 0. -1.
    9900012    2    1    2    0    0  0.60249524370E+00  0.46450461791E+00 -0.90240285269E+00  0.90007705135E+02  0.89999966043E+02 0.  0.
        -12    1    1    2    0    0 -0.60249524370E+00 -0.46450461791E+00  0.90240285269E+00  0.11802948646E+01  0.00000000000E+00 0.  1.
         11    1    3    3    0    0 -0.35153688877E+02  0.54706288532E+01  0.16400327828E+02  0.39174996807E+02  0.51100000000E-03 0. -1.
        -11    1    3    3    0    0  0.58219163606E+00 -0.95563068556E+01  0.29148427401E+01  0.10007909686E+02  0.51100000000E-03 0.  1.
        -12    1    3    3    0    0  0.35173992484E+02  0.45501826203E+01 -0.20217573421E+02  0.40824798643E+02  0.00000000000E+00 0.  1.
</event>
<event>
 7    1  0.3622165E-015  0.9000780E+02  0.7816164E-02  0.1186339E+00
        -11   -1    0    0    0    0  0.00000000000E+00  0.00000000000E+00  0.45593999997E+02  0.45594000000E+02  0.51100000000E-03 0. -1.
         11   -1    0    0    0    0 -0.00000000000E+00 -0.00000000000E+00 -0.45593999997E+02  0.45594000000E+02  0.51100000000E-03 0.  1.
    9900012    2    1    2    0    0 -0.11102952614E+01  0.37730568249E+00 -0.13323570792E+00  0.90007802178E+02  0.90000064367E+02 0.  0.
        -12    1    1    2    0    0  0.11102952614E+01 -0.37730568249E+00  0.13323570792E+00  0.11801978222E+01  0.00000000000E+00 0.  1.
         11    1    3    3    0    0  0.30909817686E+02  0.14767407788E+02  0.53769993457E+01  0.34675716061E+02  0.51100000000E-03 0. -1.
        -11    1    3    3    0    0  0.10117723545E+02  0.66975986796E-01  0.15213088583E+01  0.10231676130E+02  0.51100000000E-03 0.  1.
        -12    1    3    3    0    0 -0.42137836492E+02 -0.14457078092E+02 -0.70315439118E+01  0.45100409987E+02  0.00000000000E+00 0.  1.
</event>
<event>
 7    1  0.3622165E-015  0.9000774E+02  0.7816164E-02  0.1186339E+00
        -11   -1    0    0    0    0  0.00000000000E+00  0.00000000000E+00  0.45593999997E+02  0.45594000000E+02  0.51100000000E-03 0. -1.
         11   -1    0    0    0    0 -0.00000000000E+00 -0.00000000000E+00 -0.45593999997E+02  0.45594000000E+02  0.51100000000E-03 0.  1.
    9900012    2    1    2    0    0 -0.95115080270E-02  0.77667543495E+00  0.88864750304E+00  0.90007741730E+02  0.90000003120E+02 0.  0.
        -12    1    1    2    0    0  0.95115080270E-02 -0.77667543495E+00 -0.88864750304E+00  0.11802582703E+01  0.00000000000E+00 0.  1.
         11    1    3    3    0    0  0.47874265178E+01 -0.66558073440E+01  0.22371393662E+01  0.84984714431E+01  0.51100000000E-03 0. -1.
        -11    1    3    3    0    0  0.11216379726E+02  0.12526477402E+02 -0.37799952172E+02  0.41370958349E+02  0.51100000000E-03 0.  1.
         12    1    3    3    0    0 -0.16013317751E+02 -0.50939946228E+01  0.36451460308E+02  0.40138311938E+02  0.00000000000E+00 0. -1.
</event>
<event>
 7    1  0.3622165E-015  0.9000775E+02  0.7816164E-02  0.1186339E+00
        -11   -1    0    0    0    0  0.00000000000E+00  0.00000000000E+00  0.45593999997E+02  0.45594000000E+02  0.51100000000E-03 0.  1.
         11   -1    0    0    0    0 -0.00000000000E+00 -0.00000000000E+00 -0.45593999997E+02  0.45594000000E+02  0.51100000000E-03 0. -1.
    9900012    2    1    2    0    0  0.10303128970E+01  0.30576022720E+00 -0.48779695896E+00  0.90007754324E+02  0.90000015881E+02 0.  0.
        -12    1    1    2    0    0 -0.10303128970E+01 -0.30576022720E+00  0.48779695896E+00  0.11802456759E+01  0.00000000000E+00 0.  1.
         11    1    3    3    0    0 -0.37384727013E+02 -0.11353344146E+02 -0.85052617254E+01  0.39985693872E+02  0.51100000000E-03 0. -1.
        -11    1    3    3    0    0  0.70124069834E+00 -0.10852313596E+01  0.10077402349E+02  0.10159896849E+02  0.51100000000E-03 0.  1.
        -12    1    3    3    0    0  0.37713799212E+02  0.12744335733E+02 -0.20599375827E+01  0.39862163603E+02  0.00000000000E+00 0.  1.
</event>
<event>
 7    1  0.3622165E-015  0.9000772E+02  0.7816164E-02  0.1186339E+00
        -11   -1    0    0    0    0  0.00000000000E+00  0.00000000000E+00  0.45593999997E+02  0.45594000000E+02  0.51100000000E-03 0.  1.
         11   -1    0    0    0    0 -0.00000000000E+00 -0.00000000000E+00 -0.45593999997E+02  0.45594000000E+02  0.51100000000E-03 0. -1.
    9900012    2    1    2    0    0  0.94447582341E+00 -0.24516571070E+00 -0.66402550757E+00  0.90007715847E+02  0.89999976896E+02 0.  0.
        -12    1    1    2    0    0 -0.94447582341E+00  0.24516571070E+00  0.66402550757E+00  0.11802841528E+01  0.00000000000E+00 0.  1.
         11    1    3    3    0    0  0.15492498938E+01  0.12769390432E+02 -0.40318434524E+02  0.42320605738E+02  0.51100000000E-03 0. -1.
        -11    1    3    3    0    0  0.66289304979E+01  0.18415707053E-01  0.16025690639E+01  0.68199183683E+01  0.51100000000E-03 0.  1.
        -12    1    3    3    0    0 -0.72337045684E+01 -0.13032971850E+02  0.38051839953E+02  0.40867191741E+02  0.00000000000E+00 0.  1.
</event>
<event>
 7    1  0.3622165E-015  0.9000774E+02  0.7816164E-02  0.1186339E+00
        -11   -1    0    0    0    0  0.00000000000E+00  0.00000000000E+00  0.45593999997E+02  0.45594000000E+02  0.51100000000E-03 0.  1.
         11   -1    0    0    0    0 -0.00000000000E+00 -0.00000000000E+00 -0.45593999997E+02  0.45594000000E+02  0.51100000000E-03 0. -1.
    9900012    2    1    2    0    0  0.11001731194E+01  0.38180917276E+00  0.19194571002E+00  0.90007744819E+02  0.90000006250E+02 0.  0.
        -12    1    1    2    0    0 -0.11001731194E+01 -0.38180917276E+00 -0.19194571002E+00  0.11802551811E+01  0.00000000000E+00 0.  1.
         11    1    3    3    0    0 -0.43103060162E+01  0.18784340543E+02  0.10027816764E+02  0.21725268627E+02  0.51100000000E-03 0. -1.
        -11    1    3    3    0    0  0.26697822808E+02 -0.16751505185E+02  0.15521966423E+02  0.35132863683E+02  0.51100000000E-03 0.  1.
         12    1    3    3    0    0 -0.21287343672E+02 -0.16510261851E+01 -0.25357837476E+02  0.33149612510E+02  0.00000000000E+00 0. -1.
</event>
<event>
 7    1  0.3622165E-015  0.9000773E+02  0.7816164E-02  0.1186339E+00
        -11   -1    0    0    0    0  0.00000000000E+00  0.00000000000E+00  0.45593999997E+02  0.45594000000E+02  0.51100000000E-03 0. -1.
         11   -1    0    0    0    0 -0.00000000000E+00 -0.00000000000E+00 -0.45593999997E+02  0.45594000000E+02  0.51100000000E-03 0.  1.
    9900012    2    1    2    0    0 -0.37775383758E+00 -0.57876184949E+00  0.95675552731E+00  0.90007726990E+02  0.89999988186E+02 0.  0.
        -12    1    1    2    0    0  0.37775383758E+00  0.57876184949E+00 -0.95675552731E+00  0.11802730105E+01  0.00000000000E+00 0.  1.
         11    1    3    3    0    0  0.30384504447E+02 -0.19874266882E+02  0.10185024812E+02  0.37708610758E+02  0.51100000000E-03 0. -1.
        -11    1    3    3    0    0 -0.39461334507E+00 -0.69989445287E+01  0.61116969508E+01  0.93002034434E+01  0.51100000000E-03 0.  1.
        -12    1    3    3    0    0 -0.30367644939E+02  0.26294449561E+02 -0.15339966236E+02  0.42998912789E+02  0.00000000000E+00 0.  1.
</event>
<event>
 7    1  0.3622165E-015  0.9000730E+02  0.7816164E-02  0.1186340E+00
        -11   -1    0    0    0    0  0.00000000000E+00  0.00000000000E+00  0.45593999997E+02  0.45594000000E+02  0.51100000000E-03 0. -1.
         11   -1    0    0    0    0 -0.00000000000E+00 -0.00000000000E+00 -0.45593999997E+02  0.45594000000E+02  0.51100000000E-03 0.  1.
    9900012    2    1    2    0    0  0.38975551654E+00 -0.70525526136E-01  0.11122814663E+01  0.90007299668E+02  0.89999555223E+02 0.  0.
        -12    1    1    2    0    0 -0.38975551654E+00  0.70525526136E-01 -0.11122814663E+01  0.11807003315E+01  0.00000000000E+00 0.  1.
         11    1    3    3    0    0  0.29873592232E+02  0.14988731278E+02 -0.20881614469E+02  0.39409838889E+02  0.51100000000E-03 0. -1.
        -11    1    3    3    0    0  0.23767501880E+01 -0.18755141446E+01  0.15143261596E+02  0.15442955248E+02  0.51100000000E-03 0.  1.
        -12    1    3    3    0    0 -0.31860586903E+02 -0.13183742660E+02  0.68506343390E+01  0.35154505532E+02  0.00000000000E+00 0.  1.
</event>
<event>
 7    1  0.3622165E-015  0.9000771E+02  0.7816164E-02  0.1186339E+00
        -11   -1    0    0    0    0  0.00000000000E+00  0.00000000000E+00  0.45593999997E+02  0.45594000000E+02  0.51100000000E-03 0. -1.
         11   -1    0    0    0    0 -0.00000000000E+00 -0.00000000000E+00 -0.45593999997E+02  0.45594000000E+02  0.51100000000E-03 0.  1.
    9900012    2    1    2    0    0 -0.22061730805E-01 -0.30593153707E-01  0.11796860795E+01  0.90007711092E+02  0.89999972078E+02 0.  0.
        -12    1    1    2    0    0  0.22061730805E-01  0.30593153707E-01 -0.11796860795E+01  0.11802889083E+01  0.00000000000E+00 0.  1.
         11    1    3    3    0    0 -0.71917429597E+01 -0.42381489312E+01 -0.19228035704E+01  0.85662271154E+01  0.51100000000E-03 0. -1.
        -11    1    3    3    0    0 -0.32532871164E+02  0.66894290561E+01  0.19386619567E+02  0.38457472430E+02  0.51100000000E-03 0.  1.
         12    1    3    3    0    0  0.39702552392E+02 -0.24818732786E+01 -0.16284129917E+02  0.42984011546E+02  0.00000000000E+00 0. -1.
</event>
<event>
 7    1  0.3622165E-015  0.9000780E+02  0.7816164E-02  0.1186339E+00
        -11   -1    0    0    0    0  0.00000000000E+00  0.00000000000E+00  0.45593999997E+02  0.45594000000E+02  0.51100000000E-03 0. -1.
         11   -1    0    0    0    0 -0.00000000000E+00 -0.00000000000E+00 -0.45593999997E+02  0.45594000000E+02  0.51100000000E-03 0.  1.
    9900012    2    1    2    0    0  0.81460261478E+00  0.73169189337E+00 -0.44036197332E+00  0.90007801239E+02  0.90000063416E+02 0.  0.
        -12    1    1    2    0    0 -0.81460261478E+00 -0.73169189337E+00  0.44036197332E+00  0.11801987605E+01  0.00000000000E+00 0.  1.
         11    1    3    3    0    0  0.15566263548E+02  0.15204883679E+02  0.24303514131E+02  0.32621432340E+02  0.51100000000E-03 0. -1.
        -11    1    3    3    0    0 -0.90885479237E+01  0.16983218396E+02 -0.53135017429E+01  0.19981609332E+02  0.51100000000E-03 0.  1.
         12    1    3    3    0    0 -0.56631130091E+01 -0.31456410182E+02 -0.19430374362E+02  0.37404759568E+02  0.00000000000E+00 0. -1.
</event>
<event>
 7    1  0.3622165E-015  0.9000819E+02  0.7816164E-02  0.1186338E+00
        -11   -1    0    0    0    0  0.00000000000E+00  0.00000000000E+00  0.45593999997E+02  0.45594000000E+02  0.51100000000E-03 0. -1.
         11   -1    0    0    0    0 -0.00000000000E+00 -0.00000000000E+00 -0.45593999997E+02  0.45594000000E+02  0.51100000000E-03 0.  1.
    9900012    2    1    2    0    0  0.77663747907E+00  0.85474213718E+00  0.24125469243E+00  0.90008189116E+02  0.90000456411E+02 0.  0.
        -12    1    1    2    0    0 -0.77663747907E+00 -0.85474213718E+00 -0.24125469243E+00  0.11798108838E+01  0.00000000000E+00 0.  1.
         11    1    3    3    0    0  0.33871760959E+02  0.54769713024E+01  0.17476961268E+02  0.38506331694E+02  0.51100000000E-03 0. -1.
        -11    1    3    3    0    0  0.61256930010E+01 -0.64487691995E+01 -0.77659144452E+00  0.89282603828E+01  0.51100000000E-03 0.  1.
        -12    1    3    3    0    0 -0.39220816481E+02  0.18265400342E+01 -0.16459115131E+02  0.42573597039E+02  0.00000000000E+00 0.  1.
</event>
<event>
 7    1  0.3622165E-015  0.9000773E+02  0.7816164E-02  0.1186339E+00
        -11   -1    0    0    0    0  0.00000000000E+00  0.00000000000E+00  0.45593999997E+02  0.45594000000E+02  0.51100000000E-03 0. -1.
         11   -1    0    0    0    0 -0.00000000000E+00 -0.00000000000E+00 -0.45593999997E+02  0.45594000000E+02  0.51100000000E-03 0.  1.
    9900012    2    1    2    0    0  0.48302954296E-01  0.16676669069E+00  0.11674349600E+01  0.90007725163E+02  0.89999986335E+02 0.  0.
        -12    1    1    2    0    0 -0.48302954296E-01 -0.16676669069E+00 -0.11674349600E+01  0.11802748367E+01  0.00000000000E+00 0.  1.
         11    1    3    3    0    0  0.76417119497E+01 -0.26784889878E+01 -0.50351222781E+01  0.95353301672E+01  0.51100000000E-03 0. -1.
        -11    1    3    3    0    0  0.26266224030E+02  0.11072247664E+02 -0.21706534884E+02  0.35828520065E+02  0.51100000000E-03 0.  1.
         12    1    3    3    0    0 -0.33859633025E+02 -0.82269919852E+01  0.27909092123E+02  0.44643874931E+02  0.00000000000E+00 0. -1.
</event>
<event>
 7    1  0.3622165E-015  0.9000779E+02  0.7816164E-02  0.1186339E+00
        -11   -1    0    0    0    0  0.00000000000E+00  0.00000000000E+00  0.45593999997E+02  0.45594000000E+02  0.51100000000E-03 0.  1.
         11   -1    0    0    0    0 -0.00000000000E+00 -0.00000000000E+00 -0.45593999997E+02  0.45594000000E+02  0.51100000000E-03 0. -1.
    9900012    2    1    2    0    0 -0.66443203744E+00  0.69302721402E+00 -0.68638939869E+00  0.90007793637E+02  0.90000055713E+02 0.  0.
        -12    1    1    2    0    0  0.66443203744E+00 -0.69302721402E+00  0.68638939869E+00  0.11802063626E+01  0.00000000000E+00 0.  1.
         11    1    3    3    0    0  0.44941462096E+01 -0.34531509962E+02 -0.10907742368E+02  0.36491113634E+02  0.51100000000E-03 0. -1.
        -11    1    3    3    0    0 -0.54259290095E+01 -0.62984910549E+01 -0.45090254765E+01  0.94574312683E+01  0.51100000000E-03 0.  1.
        -12    1    3    3    0    0  0.26735076252E+00  0.41523028231E+02  0.14730378446E+02  0.44059248735E+02  0.00000000000E+00 0.  1.
</event>
<event>
 7    1  0.3622165E-015  0.9000800E+02  0.7816164E-02  0.1186339E+00
        -11   -1    0    0    0    0  0.00000000000E+00  0.00000000000E+00  0.45593999997E+02  0.45594000000E+02  0.51100000000E-03 0. -1.
         11   -1    0    0    0    0 -0.00000000000E+00 -0.00000000000E+00 -0.45593999997E+02  0.45594000000E+02  0.51100000000E-03 0.  1.
    9900012    2    1    2    0    0 -0.56281622574E+00  0.10310115055E+01 -0.11253866648E+00  0.90007995008E+02  0.90000259742E+02 0.  0.
        -12    1    1    2    0    0  0.56281622574E+00 -0.10310115055E+01  0.11253866648E+00  0.11800049915E+01  0.00000000000E+00 0.  1.
         11    1    3    3    0    0  0.10134046698E+02  0.41133214663E+01  0.18766591377E+00  0.10938625815E+02  0.51100000000E-03 0. -1.
        -11    1    3    3    0    0 -0.10220891444E+02  0.10456874966E+02 -0.37087946210E+02  0.39866384465E+02  0.51100000000E-03 0.  1.
         12    1    3    3    0    0 -0.47597147973E+00 -0.13539184927E+02  0.36787741630E+02  0.39202984728E+02  0.00000000000E+00 0. -1.
</event>
<event>
 7    1  0.3622165E-015  0.9000785E+02  0.7816164E-02  0.1186339E+00
        -11   -1    0    0    0    0  0.00000000000E+00  0.00000000000E+00  0.45593999997E+02  0.45594000000E+02  0.51100000000E-03 0. -1.
         11   -1    0    0    0    0 -0.00000000000E+00 -0.00000000000E+00 -0.45593999997E+02  0.45594000000E+02  0.51100000000E-03 0.  1.
    9900012    2    1    2    0    0  0.26969329872E+00  0.41063409975E+00  0.10730363957E+01  0.90007846643E+02  0.90000109419E+02 0.  0.
        -12    1    1    2    0    0 -0.26969329872E+00 -0.41063409975E+00 -0.10730363957E+01  0.11801533569E+01  0.00000000000E+00 0.  1.
         11    1    3    3    0    0  0.29057177125E+02  0.29496231508E+02 -0.10571201911E+02  0.42732862363E+02  0.51100000000E-03 0. -1.
        -11    1    3    3    0    0  0.14127401463E+01 -0.97331866539E+01  0.38969010784E+01  0.10579064015E+02  0.51100000000E-03 0.  1.
        -12    1    3    3    0    0 -0.30200223972E+02 -0.19352410754E+02  0.77473372279E+01  0.36695920265E+02  0.00000000000E+00 0.  1.
</event>
<event>
 7    1  0.3622165E-015  0.9000736E+02  0.7816164E-02  0.1186340E+00
        -11   -1    0    0    0    0  0.00000000000E+00  0.00000000000E+00  0.45593999997E+02  0.45594000000E+02  0.51100000000E-03 0. -1.
         11   -1    0    0    0    0 -0.00000000000E+00 -0.00000000000E+00 -0.45593999997E+02  0.45594000000E+02  0.51100000000E-03 0.  1.
    9900012    2    1    2    0    0  0.44519865383E+00  0.10618944054E+01  0.26094999084E+00  0.90007357604E+02  0.89999613923E+02 0.  0.
        -12    1    1    2    0    0 -0.44519865383E+00 -0.10618944054E+01 -0.26094999084E+00  0.11806423961E+01  0.00000000000E+00 0.  1.
         11    1    3    3    0    0 -0.15326099008E+00 -0.10178928493E+02  0.12210787614E+00  0.10180814544E+02  0.51100000000E-03 0. -1.
        -11    1    3    3    0    0 -0.20052272681E+02 -0.26224880364E+02  0.12494411685E+02  0.35297993051E+02  0.51100000000E-03 0.  1.
         12    1    3    3    0    0  0.20650732325E+02  0.37465703262E+02 -0.12355569571E+02  0.44528550009E+02  0.00000000000E+00 0. -1.
</event>
<event>
 7    1  0.3622165E-015  0.9000780E+02  0.7816164E-02  0.1186339E+00
        -11   -1    0    0    0    0  0.00000000000E+00  0.00000000000E+00  0.45593999997E+02  0.45594000000E+02  0.51100000000E-03 0. -1.
         11   -1    0    0    0    0 -0.00000000000E+00 -0.00000000000E+00 -0.45593999997E+02  0.45594000000E+02  0.51100000000E-03 0.  1.
    9900012    2    1    2    0    0 -0.88262036370E+00 -0.33026894385E+00  0.71047468984E+00  0.90007800624E+02  0.90000062792E+02 0.  0.
        -12    1    1    2    0    0  0.88262036370E+00  0.33026894385E+00 -0.71047468984E+00  0.11801993758E+01  0.00000000000E+00 0.  1.
         11    1    3    3    0    0  0.28859857632E+02 -0.15721980940E+02  0.26878692724E+01  0.32974182457E+02  0.51100000000E-03 0. -1.
        -11    1    3    3    0    0 -0.32815854565E+01  0.13183624850E+02 -0.20546485673E+02  0.24631988167E+02  0.51100000000E-03 0.  1.
        -12    1    3    3    0    0 -0.26460892539E+02  0.22080871464E+01  0.18569091090E+02  0.32401630001E+02  0.00000000000E+00 0.  1.
</event>
<event>
 7    1  0.3622165E-015  0.9000791E+02  0.7816164E-02  0.1186339E+00
        -11   -1    0    0    0    0  0.00000000000E+00  0.00000000000E+00  0.45593999997E+02  0.45594000000E+02  0.51100000000E-03 0. -1.
         11   -1    0    0    0    0 -0.00000000000E+00 -0.00000000000E+00 -0.45593999997E+02  0.45594000000E+02  0.51100000000E-03 0.  1.
    9900012    2    1    2    0    0 -0.71821433178E+00 -0.38024321692E+00  0.85568399852E+00  0.90007910243E+02  0.90000173858E+02 0.  0.
        -12    1    1    2    0    0  0.71821433178E+00  0.38024321692E+00 -0.85568399852E+00  0.11800897575E+01  0.00000000000E+00 0.  1.
         11    1    3    3    0    0 -0.81569648049E+01  0.27601295738E+01 -0.41890167674E+01  0.95761292718E+01  0.51100000000E-03 0. -1.
        -11    1    3    3    0    0 -0.22898899596E+02  0.13807242260E+02 -0.23393522709E+02  0.35528248571E+02  0.51100000000E-03 0.  1.
         12    1    3    3    0    0  0.30337650069E+02 -0.16947615051E+02  0.28438223475E+02  0.44903532400E+02  0.00000000000E+00 0. -1.
</event>
<event>
 7    1  0.3622165E-015  0.9000774E+02  0.7816164E-02  0.1186339E+00
        -11   -1    0    0    0    0  0.00000000000E+00  0.00000000000E+00  0.45593999997E+02  0.45594000000E+02  0.51100000000E-03 0.  1.
         11   -1    0    0    0    0 -0.00000000000E+00 -0.00000000000E+00 -0.45593999997E+02  0.45594000000E+02  0.51100000000E-03 0. -1.
    9900012    2    1    2    0    0  0.58648240075E+00 -0.10237607292E+01  0.31001954588E-01  0.90007742080E+02  0.90000003475E+02 0.  0.
        -12    1    1    2    0    0 -0.58648240075E+00  0.10237607292E+01 -0.31001954588E-01  0.11802579203E+01  0.00000000000E+00 0.  1.
         11    1    3    3    0    0 -0.26992552979E+02 -0.25316308815E+02  0.10562381356E+02  0.38484767227E+02  0.51100000000E-03 0. -1.
        -11    1    3    3    0    0 -0.79583001425E+01  0.48038589988E+01 -0.51778334273E+01  0.10640562095E+02  0.51100000000E-03 0.  1.
        -12    1    3    3    0    0  0.35537335523E+02  0.19488689087E+02 -0.53535459739E+01  0.40882412757E+02  0.00000000000E+00 0.  1.
</event>
<event>
 7    1  0.3622165E-015  0.9000758E+02  0.7816164E-02  0.1186339E+00
        -11   -1    0    0    0    0  0.00000000000E+00  0.00000000000E+00  0.45593999997E+02  0.45594000000E+02  0.51100000000E-03 0.  1.
         11   -1    0    0    0    0 -0.00000000000E+00 -0.00000000000E+00 -0.45593999997E+02  0.45594000000E+02  0.51100000000E-03 0. -1.
    9900012    2    1    2    0    0 -0.12149141641E+00 -0.82187844261E+00 -0.83853871186E+00  0.90007579943E+02  0.89999839199E+02 0.  0.
        -12    1    1    2    0    0  0.12149141641E+00  0.82187844261E+00  0.83853871186E+00  0.11804200566E+01  0.00000000000E+00 0.  1.
         11    1    3    3    0    0 -0.52624929721E+01 -0.38334274350E+02 -0.11498711914E+02  0.40366208617E+02  0.51100000000E-03 0. -1.
        -11    1    3    3    0    0  0.83571635220E+01 -0.19068725100E+01  0.42756271335E+01  0.95791091730E+01  0.51100000000E-03 0.  1.
        -12    1    3    3    0    0 -0.32161619664E+01  0.39419268417E+02  0.63845460691E+01  0.40062262153E+02  0.00000000000E+00 0.  1.
</event>
<event>
 7    1  0.3622165E-015  0.9000797E+02  0.7816164E-02  0.1186339E+00
        -11   -1    0    0    0    0  0.00000000000E+00  0.00000000000E+00  0.45593999997E+02  0.45594000000E+02  0.51100000000E-03 0. -1.
         11   -1    0    0    0    0 -0.00000000000E+00 -0.00000000000E+00 -0.45593999997E+02  0.45594000000E+02  0.51100000000E-03 0.  1.
    9900012    2    1    2    0    0  0.32375765630E+00  0.11216353657E+01 -0.17197128354E+00  0.90007974985E+02  0.90000239455E+02 0.  0.
        -12    1    1    2    0    0 -0.32375765630E+00 -0.11216353657E+01  0.17197128354E+00  0.11800250149E+01  0.00000000000E+00 0.  1.
         11    1    3    3    0    0 -0.10652984517E+02  0.55172019377E+01 -0.10845962103E+02  0.16172831865E+02  0.51100000000E-03 0. -1.
        -11    1    3    3    0    0 -0.12502553763E+02  0.17639916900E+01 -0.26547978698E+02  0.29397630696E+02  0.51100000000E-03 0.  1.
         12    1    3    3    0    0  0.23479295936E+02 -0.61595582621E+01  0.37221969518E+02  0.44437512424E+02  0.00000000000E+00 0. -1.
</event>
<event>
 7    1  0.3622165E-015  0.9000774E+02  0.7816164E-02  0.1186339E+00
        -11   -1    0    0    0    0  0.00000000000E+00  0.00000000000E+00  0.45593999997E+02  0.45594000000E+02  0.51100000000E-03 0. -1.
         11   -1    0    0    0    0 -0.00000000000E+00 -0.00000000000E+00 -0.45593999997E+02  0.45594000000E+02  0.51100000000E-03 0.  1.
    9900012    2    1    2    0    0 -0.31078914184E+00 -0.10055622551E+00  0.11341567551E+01  0.90007740287E+02  0.90000001659E+02 0.  0.
        -12    1    1    2    0    0  0.31078914184E+00  0.10055622551E+00 -0.11341567551E+01  0.11802597130E+01  0.00000000000E+00 0.  1.
         11    1    3    3    0    0 -0.31370333926E+02 -0.17684481234E+02  0.55825622732E+01  0.36441785480E+02  0.51100000000E-03 0. -1.
        -11    1    3    3    0    0 -0.92138010735E+01  0.52892296793E+01 -0.42898530904E+01  0.11457439532E+02  0.51100000000E-03 0.  1.
        -12    1    3    3    0    0  0.40273345858E+02  0.12294695329E+02 -0.15855242767E+00  0.42108515275E+02  0.00000000000E+00 0.  1.
</event>
<event>
 7    1  0.3622165E-015  0.9000771E+02  0.7816164E-02  0.1186339E+00
        -11   -1    0    0    0    0  0.00000000000E+00  0.00000000000E+00  0.45593999997E+02  0.45594000000E+02  0.51100000000E-03 0. -1.
         11   -1    0    0    0    0 -0.00000000000E+00 -0.00000000000E+00 -0.45593999997E+02  0.45594000000E+02  0.51100000000E-03 0.  1.
    9900012    2    1    2    0    0  0.97042920135E+00 -0.36762498308E+00  0.56231907246E+00  0.90007710331E+02  0.89999971308E+02 0.  0.
        -12    1    1    2    0    0 -0.97042920135E+00  0.36762498308E+00 -0.56231907246E+00  0.11802896688E+01  0.00000000000E+00 0.  1.
         11    1    3    3    0    0 -0.46068630949E+01  0.26345783156E+01 -0.67059478304E+01  0.85518376412E+01  0.51100000000E-03 0. -1.
        -11    1    3    3    0    0  0.99992143791E+01 -0.15049358432E+02 -0.33856041181E+02  0.38375760607E+02  0.51100000000E-03 0.  1.
         12    1    3    3    0    0 -0.44219220828E+01  0.12047155134E+02  0.41124308084E+02  0.43080112083E+02  0.00000000000E+00 0. -1.
</event>
<event>
 7    1  0.3622165E-015  0.9000766E+02  0.7816164E-02  0.1186339E+00
        -11   -1    0    0    0    0  0.00000000000E+00  0.00000000000E+00  0.45593999997E+02  0.45594000000E+02  0.51100000000E-03 0. -1.
         11   -1    0    0    0    0 -0.00000000000E+00 -0.00000000000E+00 -0.45593999997E+02  0.45594000000E+02  0.51100000000E-03 0.  1.
    9900012    2    1    2    0    0 -0.22766630834E+00  0.80109519167E+00 -0.83642967697E+00  0.90007661041E+02  0.89999921367E+02 0.  0.
        -12    1    1    2    0    0  0.22766630834E+00 -0.80109519167E+00  0.83642967697E+00  0.11803389592E+01  0.00000000000E+00 0.  1.
         11    1    3    3    0    0 -0.13055281310E+02  0.29501627787E+02 -0.19652519785E+02  0.37775758713E+02  0.51100000000E-03 0. -1.
        -11    1    3    3    0    0 -0.11262948238E+02 -0.24774953857E-01  0.39061036204E+01  0.11921084790E+02  0.51100000000E-03 0.  1.
        -12    1    3    3    0    0  0.24090563240E+02 -0.28675757641E+02  0.14909986488E+02  0.40310817538E+02  0.00000000000E+00 0.  1.
</event>
<event>
 7    1  0.3622165E-015  0.9000770E+02  0.7816164E-02  0.1186339E+00
        -11   -1    0    0    0    0  0.00000000000E+00  0.00000000000E+00  0.45593999997E+02  0.45594000000E+02  0.51100000000E-03 0.  1.
         11   -1    0    0    0    0 -0.00000000000E+00 -0.00000000000E+00 -0.45593999997E+02  0.45594000000E+02  0.51100000000E-03 0. -1.
    9900012    2    1    2    0    0  0.91057902626E+00  0.74480165500E+00  0.96102058096E-01  0.90007695262E+02  0.89999956040E+02 0.  0.
        -12    1    1    2    0    0 -0.91057902626E+00 -0.74480165500E+00 -0.96102058096E-01  0.11803047377E+01  0.00000000000E+00 0.  1.
         11    1    3    3    0    0  0.33486917125E+02  0.13366917400E+02 -0.15476139708E+02  0.39237214476E+02  0.51100000000E-03 0. -1.
        -11    1    3    3    0    0  0.46526002793E+01  0.27706215909E+01  0.81835178940E+01  0.98128996092E+01  0.51100000000E-03 0.  1.
        -12    1    3    3    0    0 -0.37228938378E+02 -0.15392737336E+02  0.73887238724E+01  0.40957581177E+02  0.00000000000E+00 0.  1.
</event>
<event>
 7    1  0.3622165E-015  0.9000767E+02  0.7816164E-02  0.1186339E+00
        -11   -1    0    0    0    0  0.00000000000E+00  0.00000000000E+00  0.45593999997E+02  0.45594000000E+02  0.51100000000E-03 0.  1.
         11   -1    0    0    0    0 -0.00000000000E+00 -0.00000000000E+00 -0.45593999997E+02  0.45594000000E+02  0.51100000000E-03 0. -1.
    9900012    2    1    2    0    0  0.45461442576E+00  0.21731132775E+00 -0.10673720632E+01  0.90007668856E+02  0.89999929284E+02 0.  0.
        -12    1    1    2    0    0 -0.45461442576E+00 -0.21731132775E+00  0.10673720632E+01  0.11803311445E+01  0.00000000000E+00 0.  1.
         11    1    3    3    0    0  0.22697327767E+02 -0.15112378489E+02 -0.34797204523E+02  0.44208575121E+02  0.51100000000E-03 0. -1.
        -11    1    3    3    0    0 -0.80588746679E+01  0.41559510642E+01  0.19908147163E+01  0.92833578869E+01  0.51100000000E-03 0.  1.
        -12    1    3    3    0    0 -0.14183838673E+02  0.11173738753E+02  0.31739017743E+02  0.36515735848E+02  0.00000000000E+00 0.  1.
</event>
<event>
 7    1  0.3622165E-015  0.9000763E+02  0.7816164E-02  0.1186339E+00
        -11   -1    0    0    0    0  0.00000000000E+00  0.00000000000E+00  0.45593999997E+02  0.45594000000E+02  0.51100000000E-03 0.  1.
         11   -1    0    0    0    0 -0.00000000000E+00 -0.00000000000E+00 -0.45593999997E+02  0.45594000000E+02  0.51100000000E-03 0. -1.
    9900012    2    1    2    0    0 -0.58922480867E+00  0.10103399798E+01  0.15902732418E+00  0.90007634616E+02  0.89999894593E+02 0.  0.
        -12    1    1    2    0    0  0.58922480867E+00 -0.10103399798E+01 -0.15902732418E+00  0.11803653840E+01  0.00000000000E+00 0.  1.
         11    1    3    3    0    0 -0.76932137086E+00  0.77043447092E+01 -0.76806487211E+00  0.77806623548E+01  0.51100000000E-03 0. -1.
        -11    1    3    3    0    0 -0.26753145158E+01  0.37531156973E+02 -0.29415311604E+01  0.37741193110E+02  0.51100000000E-03 0.  1.
         12    1    3    3    0    0  0.28554110780E+01 -0.44225161703E+02  0.38686233567E+01  0.44485779152E+02  0.00000000000E+00 0. -1.
</event>
<event>
 7    1  0.3622165E-015  0.9000893E+02  0.7816164E-02  0.1186337E+00
        -11   -1    0    0    0    0  0.00000000000E+00  0.00000000000E+00  0.45593999997E+02  0.45594000000E+02  0.51100000000E-03 0.  1.
         11   -1    0    0    0    0 -0.00000000000E+00 -0.00000000000E+00 -0.45593999997E+02  0.45594000000E+02  0.51100000000E-03 0. -1.
    9900012    2    1    2    0    0 -0.53907780200E+00 -0.93749415363E+00 -0.46979871547E+00  0.90008927908E+02  0.90001204948E+02 0.  0.
        -12    1    1    2    0    0  0.53907780200E+00  0.93749415363E+00  0.46979871547E+00  0.11790720918E+01  0.00000000000E+00 0.  1.
         11    1    3    3    0    0 -0.75301117748E+01  0.61201191047E+01  0.72195178919E+01  0.12094621947E+02  0.51100000000E-03 0. -1.
        -11    1    3    3    0    0  0.17201848701E+02  0.12942685220E+01  0.31855990993E+02  0.36226825587E+02  0.51100000000E-03 0.  1.
         12    1    3    3    0    0 -0.10210814728E+02 -0.83518817803E+01 -0.39545307600E+02  0.41687480373E+02  0.00000000000E+00 0. -1.
</event>
<event>
 7    1  0.3622165E-015  0.9000729E+02  0.7816164E-02  0.1186340E+00
        -11   -1    0    0    0    0  0.00000000000E+00  0.00000000000E+00  0.45593999997E+02  0.45594000000E+02  0.51100000000E-03 0.  1.
         11   -1    0    0    0    0 -0.00000000000E+00 -0.00000000000E+00 -0.45593999997E+02  0.45594000000E+02  0.51100000000E-03 0. -1.
    9900012    2    1    2    0    0 -0.87051006481E-01 -0.82772085207E+00 -0.83748414582E+00  0.90007288612E+02  0.89999544021E+02 0.  0.
        -12    1    1    2    0    0  0.87051006481E-01  0.82772085207E+00  0.83748414582E+00  0.11807113878E+01  0.00000000000E+00 0.  1.
         11    1    3    3    0    0 -0.24886547004E+01  0.12183377312E+02 -0.28823453991E+01  0.12764638663E+02  0.51100000000E-03 0. -1.
        -11    1    3    3    0    0  0.16072771295E+02 -0.10592556144E+02  0.35853669375E+02  0.40694248128E+02  0.51100000000E-03 0.  1.
         12    1    3    3    0    0 -0.13671167601E+02 -0.24185420202E+01 -0.33808808122E+02  0.36548401821E+02  0.00000000000E+00 0. -1.
</event>
<event>
 7    1  0.3622165E-015  0.9000777E+02  0.7816164E-02  0.1186339E+00
        -11   -1    0    0    0    0  0.00000000000E+00  0.00000000000E+00  0.45593999997E+02  0.45594000000E+02  0.51100000000E-03 0.  1.
         11   -1    0    0    0    0 -0.00000000000E+00 -0.00000000000E+00 -0.45593999997E+02  0.45594000000E+02  0.51100000000E-03 0. -1.
    9900012    2    1    2    0    0 -0.54220101738E+00 -0.90153640989E+00 -0.53497759156E+00  0.90007766606E+02  0.90000028325E+02 0.  0.
        -12    1    1    2    0    0  0.54220101738E+00  0.90153640989E+00  0.53497759156E+00  0.11802333943E+01  0.00000000000E+00 0.  1.
         11    1    3    3    0    0 -0.36784800970E+02  0.24878225286E+02 -0.91781960362E+00  0.44417227163E+02  0.51100000000E-03 0.  1.
        -11    1    3    3    0    0  0.50008562161E+01 -0.62112285234E+01  0.32585187430E+01  0.86142827516E+01  0.51100000000E-03 0. -1.
        -12    1    3    3    0    0  0.31241743737E+02 -0.19568533172E+02 -0.28756767309E+01  0.36976256691E+02  0.00000000000E+00 0.  1.
</event>
<event>
 7    1  0.3622165E-015  0.9000805E+02  0.7816164E-02  0.1186338E+00
        -11   -1    0    0    0    0  0.00000000000E+00  0.00000000000E+00  0.45593999997E+02  0.45594000000E+02  0.51100000000E-03 0.  1.
         11   -1    0    0    0    0 -0.00000000000E+00 -0.00000000000E+00 -0.45593999997E+02  0.45594000000E+02  0.51100000000E-03 0. -1.
    9900012    2    1    2    0    0  0.52364274499E+00  0.59381601426E+00  0.87490655960E+00  0.90008050564E+02  0.90000316031E+02 0.  0.
        -12    1    1    2    0    0 -0.52364274499E+00 -0.59381601426E+00 -0.87490655960E+00  0.11799494359E+01  0.00000000000E+00 0.  1.
         11    1    3    3    0    0  0.53644556249E+01  0.69761966369E+01 -0.44675883609E-01  0.88003806659E+01  0.51100000000E-03 0. -1.
        -11    1    3    3    0    0  0.21751875480E+02  0.29245590638E+02  0.38641633544E+01  0.36652154335E+02  0.51100000000E-03 0.  1.
         12    1    3    3    0    0 -0.26592688360E+02 -0.35627971261E+02 -0.29445809112E+01  0.44555515564E+02  0.00000000000E+00 0. -1.
</event>
<event>
 7    1  0.3622165E-015  0.9000766E+02  0.7816164E-02  0.1186339E+00
        -11   -1    0    0    0    0  0.00000000000E+00  0.00000000000E+00  0.45593999997E+02  0.45594000000E+02  0.51100000000E-03 0.  1.
         11   -1    0    0    0    0 -0.00000000000E+00 -0.00000000000E+00 -0.45593999997E+02  0.45594000000E+02  0.51100000000E-03 0. -1.
    9900012    2    1    2    0    0 -0.30203105745E+00  0.94070683163E+00 -0.64579898997E+00  0.90007657491E+02  0.89999917770E+02 0.  0.
        -12    1    1    2    0    0  0.30203105745E+00 -0.94070683163E+00  0.64579898997E+00  0.11803425088E+01  0.00000000000E+00 0.  1.
         11    1    3    3    0    0 -0.82314710513E+01  0.20162812708E+01  0.30577040931E+01  0.90095538410E+01  0.51100000000E-03 0. -1.
        -11    1    3    3    0    0 -0.15325309932E+02 -0.11449585974E+02 -0.35461365484E+02  0.40292264589E+02  0.51100000000E-03 0.  1.
         12    1    3    3    0    0  0.23254749925E+02  0.10374011535E+02  0.31757862401E+02  0.40705839061E+02  0.00000000000E+00 0. -1.
</event>
<event>
 7    1  0.3622165E-015  0.9000780E+02  0.7816164E-02  0.1186339E+00
        -11   -1    0    0    0    0  0.00000000000E+00  0.00000000000E+00  0.45593999997E+02  0.45594000000E+02  0.51100000000E-03 0. -1.
         11   -1    0    0    0    0 -0.00000000000E+00 -0.00000000000E+00 -0.45593999997E+02  0.45594000000E+02  0.51100000000E-03 0.  1.
    9900012    2    1    2    0    0 -0.57898182879E+00 -0.95841384416E+00  0.37295444269E+00  0.90007799987E+02  0.90000062147E+02 0.  0.
        -12    1    1    2    0    0  0.57898182879E+00  0.95841384416E+00 -0.37295444269E+00  0.11802000132E+01  0.00000000000E+00 0.  1.
         11    1    3    3    0    0 -0.80379916863E+01  0.17375290643E+01  0.47102434214E+01  0.94770623586E+01  0.51100000000E-03 0. -1.
        -11    1    3    3    0    0  0.24904839922E+01 -0.66583367341E+01 -0.41867265527E+02  0.42466503053E+02  0.51100000000E-03 0.  1.
         12    1    3    3    0    0  0.49685258653E+01  0.39623938257E+01  0.37529976548E+02  0.38064234575E+02  0.00000000000E+00 0. -1.
</event>
<event>
 7    1  0.3622165E-015  0.9000774E+02  0.7816164E-02  0.1186339E+00
        -11   -1    0    0    0    0  0.00000000000E+00  0.00000000000E+00  0.45593999997E+02  0.45594000000E+02  0.51100000000E-03 0.  1.
         11   -1    0    0    0    0 -0.00000000000E+00 -0.00000000000E+00 -0.45593999997E+02  0.45594000000E+02  0.51100000000E-03 0. -1.
    9900012    2    1    2    0    0 -0.40670289922E-01  0.11460099185E+01 -0.27930519606E+00  0.90007744012E+02  0.90000005432E+02 0.  0.
        -12    1    1    2    0    0  0.40670289922E-01 -0.11460099185E+01  0.27930519606E+00  0.11802559885E+01  0.00000000000E+00 0.  1.
         11    1    3    3    0    0  0.92723030312E+01  0.33878136146E+01  0.96487326242E-01  0.98722942954E+01  0.51100000000E-03 0. -1.
        -11    1    3    3    0    0 -0.75802224311E+01  0.30046010315E+02  0.24366986962E+02  0.39420458670E+02  0.51100000000E-03 0.  1.
         12    1    3    3    0    0 -0.17327508901E+01 -0.32287814011E+02 -0.24742779484E+02  0.40714991046E+02  0.00000000000E+00 0. -1.
</event>
<event>
 7    1  0.3622165E-015  0.9000789E+02  0.7816164E-02  0.1186339E+00
        -11   -1    0    0    0    0  0.00000000000E+00  0.00000000000E+00  0.45593999997E+02  0.45594000000E+02  0.51100000000E-03 0.  1.
         11   -1    0    0    0    0 -0.00000000000E+00 -0.00000000000E+00 -0.45593999997E+02  0.45594000000E+02  0.51100000000E-03 0. -1.
    9900012    2    1    2    0    0 -0.11425259121E+01 -0.24286994476E+00  0.16826697064E+00  0.90007887699E+02  0.90000151016E+02 0.  0.
        -12    1    1    2    0    0  0.11425259121E+01  0.24286994476E+00 -0.16826697064E+00  0.11801123011E+01  0.00000000000E+00 0.  1.
         11    1    3    3    0    0 -0.65865115702E+00 -0.36762425013E+02 -0.92568276600E+01  0.37915677137E+02  0.51100000000E-03 0. -1.
        -11    1    3    3    0    0 -0.58375348565E+01 -0.82796521533E-01 -0.90295803610E+01  0.10752534130E+02  0.51100000000E-03 0.  1.
        -12    1    3    3    0    0  0.53536601014E+01  0.36602351590E+02  0.18454674992E+02  0.41339676431E+02  0.00000000000E+00 0.  1.
</event>
<event>
 7    1  0.3622165E-015  0.9000774E+02  0.7816164E-02  0.1186339E+00
        -11   -1    0    0    0    0  0.00000000000E+00  0.00000000000E+00  0.45593999997E+02  0.45594000000E+02  0.51100000000E-03 0.  1.
         11   -1    0    0    0    0 -0.00000000000E+00 -0.00000000000E+00 -0.45593999997E+02  0.45594000000E+02  0.51100000000E-03 0. -1.
    9900012    2    1    2    0    0 -0.18713177894E-01  0.11564450131E+00 -0.11744326990E+01  0.90007739013E+02  0.90000000368E+02 0.  0.
        -12    1    1    2    0    0  0.18713177894E-01 -0.11564450131E+00  0.11744326990E+01  0.11802609874E+01  0.00000000000E+00 0.  1.
         11    1    3    3    0    0  0.78469818047E+01  0.67252024420E+01 -0.29017145959E+01  0.10734217213E+02  0.51100000000E-03 0. -1.
        -11    1    3    3    0    0  0.45733579199E+01  0.13969540127E+02  0.35149840826E+02  0.38099540212E+02  0.51100000000E-03 0.  1.
         12    1    3    3    0    0 -0.12439052903E+02 -0.20579098067E+02 -0.33422558929E+02  0.41173981587E+02  0.00000000000E+00 0. -1.
</event>
<event>
 7    1  0.3622165E-015  0.9000777E+02  0.7816164E-02  0.1186339E+00
        -11   -1    0    0    0    0  0.00000000000E+00  0.00000000000E+00  0.45593999997E+02  0.45594000000E+02  0.51100000000E-03 0.  1.
         11   -1    0    0    0    0 -0.00000000000E+00 -0.00000000000E+00 -0.45593999997E+02  0.45594000000E+02  0.51100000000E-03 0. -1.
    9900012    2    1    2    0    0 -0.70822026853E+00  0.39445300819E-01 -0.94330018651E+00  0.90007768191E+02  0.90000029931E+02 0.  0.
        -12    1    1    2    0    0  0.70822026853E+00 -0.39445300819E-01  0.94330018651E+00  0.11802318087E+01  0.00000000000E+00 0.  1.
         11    1    3    3    0    0 -0.25304244042E+02 -0.91863800359E+01 -0.28298022322E+02  0.39057296531E+02  0.51100000000E-03 0. -1.
        -11    1    3    3    0    0  0.12005450686E+01  0.85723482388E+01 -0.57617866000E+01  0.10398300240E+02  0.51100000000E-03 0.  1.
        -12    1    3    3    0    0  0.23395478704E+02  0.65347709793E+00  0.33116508736E+02  0.40552171421E+02  0.00000000000E+00 0.  1.
</event>
<event>
 7    1  0.3622165E-015  0.9000774E+02  0.7816164E-02  0.1186339E+00
        -11   -1    0    0    0    0  0.00000000000E+00  0.00000000000E+00  0.45593999997E+02  0.45594000000E+02  0.51100000000E-03 0.  1.
         11   -1    0    0    0    0 -0.00000000000E+00 -0.00000000000E+00 -0.45593999997E+02  0.45594000000E+02  0.51100000000E-03 0. -1.
    9900012    2    1    2    0    0 -0.75882336439E+00  0.56618565055E+00 -0.70471991023E+00  0.90007741875E+02  0.90000003268E+02 0.  0.
        -12    1    1    2    0    0  0.75882336439E+00 -0.56618565055E+00  0.70471991023E+00  0.11802581248E+01  0.00000000000E+00 0.  1.
         11    1    3    3    0    0  0.34230975886E+02  0.36918230268E+01 -0.30663236787E+01  0.34565757746E+02  0.51100000000E-03 0. -1.
        -11    1    3    3    0    0  0.84981936200E+01 -0.72292799841E+01 -0.26694140641E+01  0.11472033630E+02  0.51100000000E-03 0.  1.
        -12    1    3    3    0    0 -0.43487992870E+02  0.41036426079E+01  0.50310178326E+01  0.43969950500E+02  0.00000000000E+00 0.  1.
</event>
<event>
 7    1  0.3622165E-015  0.9000834E+02  0.7816164E-02  0.1186338E+00
        -11   -1    0    0    0    0  0.00000000000E+00  0.00000000000E+00  0.45593999997E+02  0.45594000000E+02  0.51100000000E-03 0.  1.
         11   -1    0    0    0    0 -0.00000000000E+00 -0.00000000000E+00 -0.45593999997E+02  0.45594000000E+02  0.51100000000E-03 0. -1.
    9900012    2    1    2    0    0 -0.14529929543E+00  0.88086585127E+00 -0.77107561295E+00  0.90008341518E+02  0.90000610824E+02 0.  0.
        -12    1    1    2    0    0  0.14529929543E+00 -0.88086585127E+00  0.77107561295E+00  0.11796584820E+01  0.00000000000E+00 0.  1.
         11    1    3    3    0    0 -0.80295286505E+01 -0.83897384537E+00  0.41468017161E+01  0.90759667362E+01  0.51100000000E-03 0. -1.
        -11    1    3    3    0    0 -0.61671592872E+01 -0.56632421372E+01  0.36043396652E+02  0.37003143213E+02  0.51100000000E-03 0.  1.
         12    1    3    3    0    0  0.14051388642E+02  0.73830818338E+01 -0.40961273981E+02  0.43929231569E+02  0.00000000000E+00 0. -1.
</event>
<event>
 7    1  0.3799924E-015  0.9000774E+02  0.7816164E-02  0.1186339E+00
        -11   -1    0    0    0    0  0.00000000000E+00  0.00000000000E+00  0.45593999997E+02  0.45594000000E+02  0.51100000000E-03 0. -1.
         11   -1    0    0    0    0 -0.00000000000E+00 -0.00000000000E+00 -0.45593999997E+02  0.45594000000E+02  0.51100000000E-03 0.  1.
    9900012    2    1    2    0    0  0.44172317939E+00 -0.71208904539E+00  0.83115764972E+00  0.90007740192E+02  0.90000001563E+02 0.  0.
        -12    1    1    2    0    0 -0.44172317939E+00  0.71208904539E+00 -0.83115764972E+00  0.11802598080E+01  0.00000000000E+00 0.  1.
         11    1    3    3    0    0  0.15750955472E+02 -0.16867579322E+02  0.31814786110E+02  0.39303796839E+02  0.51100000000E-03 0. -1.
        -11    1    3    3    0    0 -0.44025532593E+01 -0.88062124371E+01 -0.55144559345E+00  0.98608288288E+01  0.51100000000E-03 0.  1.
        -12    1    3    3    0    0 -0.10906679034E+02  0.24961702714E+02 -0.30432182867E+02  0.40843114524E+02  0.00000000000E+00 0.  1.
</event>
<event>
 7    1  0.3622165E-015  0.9000760E+02  0.7816164E-02  0.1186339E+00
        -11   -1    0    0    0    0  0.00000000000E+00  0.00000000000E+00  0.45593999997E+02  0.45594000000E+02  0.51100000000E-03 0.  1.
         11   -1    0    0    0    0 -0.00000000000E+00 -0.00000000000E+00 -0.45593999997E+02  0.45594000000E+02  0.51100000000E-03 0. -1.
    9900012    2    1    2    0    0  0.62056000396E+00 -0.71904495920E+00  0.70087195297E+00  0.90007600972E+02  0.89999860504E+02 0.  0.
        -12    1    1    2    0    0 -0.62056000396E+00  0.71904495920E+00 -0.70087195297E+00  0.11803990284E+01  0.00000000000E+00 0.  1.
         11    1    3    3    0    0  0.55305153471E+01  0.22086108984E+01 -0.63463791839E+01  0.87029357755E+01  0.51100000000E-03 0. -1.
        -11    1    3    3    0    0  0.21233431126E+02 -0.24909982943E+02  0.26395287309E+02  0.42048508178E+02  0.51100000000E-03 0.  1.
         12    1    3    3    0    0 -0.26143386469E+02  0.21982327085E+02 -0.19348036172E+02  0.39256157018E+02  0.00000000000E+00 0. -1.
</event>
<event>
 7    1  0.3622165E-015  0.9000777E+02  0.7816164E-02  0.1186339E+00
        -11   -1    0    0    0    0  0.00000000000E+00  0.00000000000E+00  0.45593999997E+02  0.45594000000E+02  0.51100000000E-03 0. -1.
         11   -1    0    0    0    0 -0.00000000000E+00 -0.00000000000E+00 -0.45593999997E+02  0.45594000000E+02  0.51100000000E-03 0.  1.
    9900012    2    1    2    0    0  0.60991381873E+00  0.50559738877E+00  0.87482904450E+00  0.90007767208E+02  0.90000028935E+02 0.  0.
        -12    1    1    2    0    0 -0.60991381873E+00 -0.50559738877E+00 -0.87482904450E+00  0.11802327918E+01  0.00000000000E+00 0.  1.
         11    1    3    3    0    0  0.19438122404E+01 -0.91194448142E+01 -0.62847702721E+00  0.93454621812E+01  0.51100000000E-03 0. -1.
        -11    1    3    3    0    0  0.29457453463E+02 -0.21751527508E+02  0.23453968929E+01  0.36692933929E+02  0.51100000000E-03 0.  1.
         12    1    3    3    0    0 -0.30791351885E+02  0.31376569711E+02 -0.84209082122E+00  0.43969371098E+02  0.00000000000E+00 0. -1.
</event>
<event>
 7    1  0.3622165E-015  0.9000794E+02  0.7816164E-02  0.1186339E+00
        -11   -1    0    0    0    0  0.00000000000E+00  0.00000000000E+00  0.45593999997E+02  0.45594000000E+02  0.51100000000E-03 0.  1.
         11   -1    0    0    0    0 -0.00000000000E+00 -0.00000000000E+00 -0.45593999997E+02  0.45594000000E+02  0.51100000000E-03 0. -1.
    9900012    2    1    2    0    0 -0.33593779255E+00  0.11188951004E+01 -0.16661666237E+00  0.90007940019E+02  0.90000204027E+02 0.  0.
        -12    1    1    2    0    0  0.33593779255E+00 -0.11188951004E+01  0.16661666237E+00  0.11800599809E+01  0.00000000000E+00 0.  1.
         11    1    3    3    0    0  0.14208567668E+02  0.24751374142E+02 -0.31205632838E+02  0.42288360553E+02  0.51100000000E-03 0. -1.
        -11    1    3    3    0    0 -0.93778010266E-01 -0.15034795410E+02  0.34748778791E+01  0.15431417429E+02  0.51100000000E-03 0.  1.
        -12    1    3    3    0    0 -0.14450727451E+02 -0.85976836317E+01  0.27564138297E+02  0.32288162037E+02  0.00000000000E+00 0.  1.
</event>
<event>
 7    1  0.3622165E-015  0.9000771E+02  0.7816164E-02  0.1186339E+00
        -11   -1    0    0    0    0  0.00000000000E+00  0.00000000000E+00  0.45593999997E+02  0.45594000000E+02  0.51100000000E-03 0.  1.
         11   -1    0    0    0    0 -0.00000000000E+00 -0.00000000000E+00 -0.45593999997E+02  0.45594000000E+02  0.51100000000E-03 0. -1.
    9900012    2    1    2    0    0 -0.10146941772E+01 -0.47828653185E+00 -0.36703563863E+00  0.90007712984E+02  0.89999973996E+02 0.  0.
        -12    1    1    2    0    0  0.10146941772E+01  0.47828653185E+00  0.36703563863E+00  0.11802870158E+01  0.00000000000E+00 0.  1.
         11    1    3    3    0    0  0.12179671677E+01  0.84436834328E+01  0.18603114108E+01  0.87315515656E+01  0.51100000000E-03 0. -1.
        -11    1    3    3    0    0  0.13990514287E+01  0.35508495404E+02  0.57235434364E+01  0.35994020899E+02  0.51100000000E-03 0.  1.
         12    1    3    3    0    0 -0.36317127736E+01 -0.44430465368E+02 -0.79508904859E+01  0.45282140520E+02  0.00000000000E+00 0. -1.
</event>
<event>
 7    1  0.3622165E-015  0.9000774E+02  0.7816164E-02  0.1186339E+00
        -11   -1    0    0    0    0  0.00000000000E+00  0.00000000000E+00  0.45593999997E+02  0.45594000000E+02  0.51100000000E-03 0. -1.
         11   -1    0    0    0    0 -0.00000000000E+00 -0.00000000000E+00 -0.45593999997E+02  0.45594000000E+02  0.51100000000E-03 0.  1.
    9900012    2    1    2    0    0 -0.38977100369E+00 -0.11008191904E+01 -0.17117547563E+00  0.90007735043E+02  0.89999996346E+02 0.  0.
        -12    1    1    2    0    0  0.38977100369E+00  0.11008191904E+01  0.17117547563E+00  0.11802649570E+01  0.00000000000E+00 0.  1.
         11    1    3    3    0    0  0.69858595394E+01 -0.33104656733E+01 -0.70224191837E+01  0.10443935462E+02  0.51100000000E-03 0. -1.
        -11    1    3    3    0    0  0.19004904109E+02  0.33136784033E+02 -0.75969611644E+00  0.38207459673E+02  0.51100000000E-03 0.  1.
         12    1    3    3    0    0 -0.26380534652E+02 -0.30927137550E+02  0.76109398245E+01  0.41356339908E+02  0.00000000000E+00 0. -1.
</event>
<event>
 7    1  0.3622165E-015  0.9000780E+02  0.7816164E-02  0.1186339E+00
        -11   -1    0    0    0    0  0.00000000000E+00  0.00000000000E+00  0.45593999997E+02  0.45594000000E+02  0.51100000000E-03 0.  1.
         11   -1    0    0    0    0 -0.00000000000E+00 -0.00000000000E+00 -0.45593999997E+02  0.45594000000E+02  0.51100000000E-03 0. -1.
    9900012    2    1    2    0    0  0.46430346859E+00  0.10551202445E+01 -0.25299159847E+00  0.90007804597E+02  0.90000066817E+02 0.  0.
        -12    1    1    2    0    0 -0.46430346859E+00 -0.10551202445E+01  0.25299159847E+00  0.11801954034E+01  0.00000000000E+00 0.  1.
         11    1    3    3    0    0 -0.85228222485E+01  0.19949235148E-01 -0.53432205544E+01  0.10059269516E+02  0.51100000000E-03 0. -1.
        -11    1    3    3    0    0 -0.30050257847E+01  0.16014356941E+02  0.38284351197E+02  0.41607467539E+02  0.51100000000E-03 0.  1.
         12    1    3    3    0    0  0.11992151502E+02 -0.14979185931E+02 -0.33194122241E+02  0.38341067541E+02  0.00000000000E+00 0. -1.
</event>
<event>
 7    1  0.3622165E-015  0.9000777E+02  0.7816164E-02  0.1186339E+00
        -11   -1    0    0    0    0  0.00000000000E+00  0.00000000000E+00  0.45593999997E+02  0.45594000000E+02  0.51100000000E-03 0.  1.
         11   -1    0    0    0    0 -0.00000000000E+00 -0.00000000000E+00 -0.45593999997E+02  0.45594000000E+02  0.51100000000E-03 0. -1.
    9900012    2    1    2    0    0 -0.19113495989E+00  0.11642552617E+01  0.30411809889E-01  0.90007767919E+02  0.90000029655E+02 0.  0.
        -12    1    1    2    0    0  0.19113495989E+00 -0.11642552617E+01 -0.30411809889E-01  0.11802320812E+01  0.00000000000E+00 0.  1.
         11    1    3    3    0    0 -0.32171458063E+02  0.85797761055E+01  0.18302599334E+02  0.37994741933E+02  0.51100000000E-03 0. -1.
        -11    1    3    3    0    0 -0.73791300669E+01  0.29132638170E+01 -0.40478564327E+01  0.89063914451E+01  0.51100000000E-03 0.  1.
        -12    1    3    3    0    0  0.39359453170E+02 -0.10328784661E+02 -0.14224331091E+02  0.43106634541E+02  0.00000000000E+00 0.  1.
</event>
<event>
 7    1  0.3622165E-015  0.9000766E+02  0.7816164E-02  0.1186339E+00
        -11   -1    0    0    0    0  0.00000000000E+00  0.00000000000E+00  0.45593999997E+02  0.45594000000E+02  0.51100000000E-03 0.  1.
         11   -1    0    0    0    0 -0.00000000000E+00 -0.00000000000E+00 -0.45593999997E+02  0.45594000000E+02  0.51100000000E-03 0. -1.
    9900012    2    1    2    0    0  0.98213808645E+00 -0.60426295512E+00 -0.25192415328E+00  0.90007663303E+02  0.89999923658E+02 0.  0.
        -12    1    1    2    0    0 -0.98213808645E+00  0.60426295512E+00  0.25192415328E+00  0.11803366972E+01  0.00000000000E+00 0.  1.
         11    1    3    3    0    0 -0.10853048701E+02 -0.44321914918E+01  0.92348412928E-01  0.11723545369E+02  0.51100000000E-03 0. -1.
        -11    1    3    3    0    0  0.12339594801E+02 -0.35776972309E+02  0.55152189128E+01  0.38244934140E+02  0.51100000000E-03 0.  1.
         12    1    3    3    0    0 -0.50440801364E+00  0.39604900846E+02 -0.58594914791E+01  0.40039183793E+02  0.00000000000E+00 0. -1.
</event>
<event>
 7    1  0.3622165E-015  0.9000781E+02  0.7816164E-02  0.1186339E+00
        -11   -1    0    0    0    0  0.00000000000E+00  0.00000000000E+00  0.45593999997E+02  0.45594000000E+02  0.51100000000E-03 0.  1.
         11   -1    0    0    0    0 -0.00000000000E+00 -0.00000000000E+00 -0.45593999997E+02  0.45594000000E+02  0.51100000000E-03 0. -1.
    9900012    2    1    2    0    0 -0.93026263505E+00  0.43850372869E+00 -0.57893959800E+00  0.90007811393E+02  0.90000073703E+02 0.  0.
        -12    1    1    2    0    0  0.93026263505E+00 -0.43850372869E+00  0.57893959800E+00  0.11801886071E+01  0.00000000000E+00 0.  1.
         11    1    3    3    0    0 -0.44288389366E+01  0.40137493580E+02  0.83351699596E+01  0.41232366700E+02  0.51100000000E-03 0. -1.
        -11    1    3    3    0    0  0.48028828987E+01  0.86087308485E-01 -0.75463161343E+01  0.89455006916E+01  0.51100000000E-03 0.  1.
        -12    1    3    3    0    0 -0.13043065971E+01 -0.39785077159E+02 -0.13677934233E+01  0.39829944001E+02  0.00000000000E+00 0.  1.
</event>
<event>
 7    1  0.3622165E-015  0.9000808E+02  0.7816164E-02  0.1186338E+00
        -11   -1    0    0    0    0  0.00000000000E+00  0.00000000000E+00  0.45593999997E+02  0.45594000000E+02  0.51100000000E-03 0. -1.
         11   -1    0    0    0    0 -0.00000000000E+00 -0.00000000000E+00 -0.45593999997E+02  0.45594000000E+02  0.51100000000E-03 0.  1.
    9900012    2    1    2    0    0 -0.17877013067E+00 -0.11309458559E+01  0.28497469939E+00  0.90008081415E+02  0.90000347289E+02 0.  0.
        -12    1    1    2    0    0  0.17877013067E+00  0.11309458559E+01 -0.28497469939E+00  0.11799185853E+01  0.00000000000E+00 0.  1.
         11    1    3    3    0    0  0.38634337363E+02 -0.15993611377E+02 -0.67284733583E+01  0.42351859254E+02  0.51100000000E-03 0. -1.
        -11    1    3    3    0    0 -0.39771454297E+01  0.18327542590E+01 -0.67096353784E+01  0.80122332164E+01  0.51100000000E-03 0.  1.
        -12    1    3    3    0    0 -0.34835962064E+02  0.13029911262E+02  0.13723083436E+02  0.39643988944E+02  0.00000000000E+00 0.  1.
</event>
<event>
 7    1  0.3622165E-015  0.9000775E+02  0.7816164E-02  0.1186339E+00
        -11   -1    0    0    0    0  0.00000000000E+00  0.00000000000E+00  0.45593999997E+02  0.45594000000E+02  0.51100000000E-03 0.  1.
         11   -1    0    0    0    0 -0.00000000000E+00 -0.00000000000E+00 -0.45593999997E+02  0.45594000000E+02  0.51100000000E-03 0. -1.
    9900012    2    1    2    0    0 -0.50601695700E+00 -0.10631914687E+01  0.80943223670E-01  0.90007753812E+02  0.90000015362E+02 0.  0.
        -12    1    1    2    0    0  0.50601695700E+00  0.10631914687E+01 -0.80943223670E-01  0.11802461884E+01  0.00000000000E+00 0.  1.
         11    1    3    3    0    0  0.29154910675E+02 -0.22895452186E+02  0.16527839683E+02  0.40587929636E+02  0.51100000000E-03 0. -1.
        -11    1    3    3    0    0  0.40838101912E+01  0.86997587567E+00 -0.76749787812E+01  0.87372571929E+01  0.51100000000E-03 0.  1.
        -12    1    3    3    0    0 -0.33744737823E+02  0.20962284842E+02 -0.87719176779E+01  0.40682566983E+02  0.00000000000E+00 0.  1.
</event>
<event>
 7    1  0.3622165E-015  0.9000784E+02  0.7816164E-02  0.1186339E+00
        -11   -1    0    0    0    0  0.00000000000E+00  0.00000000000E+00  0.45593999997E+02  0.45594000000E+02  0.51100000000E-03 0. -1.
         11   -1    0    0    0    0 -0.00000000000E+00 -0.00000000000E+00 -0.45593999997E+02  0.45594000000E+02  0.51100000000E-03 0.  1.
    9900012    2    1    2    0    0 -0.10411553389E+01  0.55545275038E+00 -0.15402491193E-01  0.90007843470E+02  0.90000106204E+02 0.  0.
        -12    1    1    2    0    0  0.10411553389E+01 -0.55545275038E+00  0.15402491193E-01  0.11801565296E+01  0.00000000000E+00 0.  1.
         11    1    3    3    0    0 -0.34327408957E+02 -0.15805810404E+01  0.10027482554E+02  0.35796922336E+02  0.51100000000E-03 0. -1.
        -11    1    3    3    0    0 -0.96882145804E+01 -0.75459039954E-01  0.11260932083E+01  0.97537316960E+01  0.51100000000E-03 0.  1.
        -12    1    3    3    0    0  0.42974468199E+02  0.22114928307E+01 -0.11168978253E+02  0.44457189438E+02  0.00000000000E+00 0.  1.
</event>
<event>
 7    1  0.3622165E-015  0.9000770E+02  0.7816164E-02  0.1186339E+00
        -11   -1    0    0    0    0  0.00000000000E+00  0.00000000000E+00  0.45593999997E+02  0.45594000000E+02  0.51100000000E-03 0.  1.
         11   -1    0    0    0    0 -0.00000000000E+00 -0.00000000000E+00 -0.45593999997E+02  0.45594000000E+02  0.51100000000E-03 0. -1.
    9900012    2    1    2    0    0  0.31224630289E+00 -0.11372328099E+01 -0.48122315146E-01  0.90007698354E+02  0.89999959173E+02 0.  0.
        -12    1    1    2    0    0 -0.31224630289E+00  0.11372328099E+01  0.48122315146E-01  0.11803016457E+01  0.00000000000E+00 0.  1.
         11    1    3    3    0    0 -0.11921481707E+02  0.21036989563E+02 -0.22903807232E+02  0.33305570735E+02  0.51100000000E-03 0. -1.
        -11    1    3    3    0    0  0.40843498490E+01  0.22856092815E+01 -0.12268782634E+02  0.13131220471E+02  0.51100000000E-03 0.  1.
        -12    1    3    3    0    0  0.81493781605E+01 -0.24459831655E+02  0.35124467551E+02  0.43570907148E+02  0.00000000000E+00 0.  1.
</event>
<event>
 7    1  0.3622165E-015  0.9000773E+02  0.7816164E-02  0.1186339E+00
        -11   -1    0    0    0    0  0.00000000000E+00  0.00000000000E+00  0.45593999997E+02  0.45594000000E+02  0.51100000000E-03 0. -1.
         11   -1    0    0    0    0 -0.00000000000E+00 -0.00000000000E+00 -0.45593999997E+02  0.45594000000E+02  0.51100000000E-03 0.  1.
    9900012    2    1    2    0    0 -0.14181866326E+00 -0.58822298454E+00  0.10133657955E+01  0.90007733484E+02  0.89999994766E+02 0.  0.
        -12    1    1    2    0    0  0.14181866326E+00  0.58822298454E+00 -0.10133657955E+01  0.11802665158E+01  0.00000000000E+00 0.  1.
         11    1    3    3    0    0  0.24739907028E+02 -0.58614680502E+01  0.24772558949E+02  0.35497880001E+02  0.51100000000E-03 0. -1.
        -11    1    3    3    0    0  0.28803462179E+01 -0.34974415167E+01  0.93684691198E+01  0.10406570300E+02  0.51100000000E-03 0.  1.
        -12    1    3    3    0    0 -0.27762071909E+02  0.87706865824E+01 -0.33127662273E+02  0.44103283183E+02  0.00000000000E+00 0.  1.
</event>
<event>
 7    1  0.3622165E-015  0.9000771E+02  0.7816164E-02  0.1186339E+00
        -11   -1    0    0    0    0  0.00000000000E+00  0.00000000000E+00  0.45593999997E+02  0.45594000000E+02  0.51100000000E-03 0. -1.
         11   -1    0    0    0    0 -0.00000000000E+00 -0.00000000000E+00 -0.45593999997E+02  0.45594000000E+02  0.51100000000E-03 0.  1.
    9900012    2    1    2    0    0  0.91004085710E+00 -0.69604627354E+00 -0.28361887248E+00  0.90007705782E+02  0.89999966698E+02 0.  0.
        -12    1    1    2    0    0 -0.91004085710E+00  0.69604627354E+00  0.28361887248E+00  0.11802942181E+01  0.00000000000E+00 0.  1.
         11    1    3    3    0    0  0.19614205337E+01 -0.11701529855E+02 -0.79961733184E+01  0.14307751726E+02  0.51100000000E-03 0. -1.
        -11    1    3    3    0    0  0.73718188760E+01  0.16534692575E+02 -0.30890009821E+02  0.35804084671E+02  0.51100000000E-03 0.  1.
         12    1    3    3    0    0 -0.84231985526E+01 -0.55292089931E+01  0.38602564267E+02  0.39895869385E+02  0.00000000000E+00 0. -1.
</event>
<event>
 7    1  0.3622165E-015  0.9000778E+02  0.7816164E-02  0.1186339E+00
        -11   -1    0    0    0    0  0.00000000000E+00  0.00000000000E+00  0.45593999997E+02  0.45594000000E+02  0.51100000000E-03 0. -1.
         11   -1    0    0    0    0 -0.00000000000E+00 -0.00000000000E+00 -0.45593999997E+02  0.45594000000E+02  0.51100000000E-03 0.  1.
    9900012    2    1    2    0    0 -0.38611913489E+00  0.92277487369E+00  0.62634963431E+00  0.90007781665E+02  0.90000043583E+02 0.  0.
        -12    1    1    2    0    0  0.38611913489E+00 -0.92277487369E+00 -0.62634963431E+00  0.11802183350E+01  0.00000000000E+00 0.  1.
         11    1    3    3    0    0 -0.32483695265E+02 -0.92740836752E+01  0.16883792339E+02  0.37765877854E+02  0.51100000000E-03 0. -1.
        -11    1    3    3    0    0 -0.73367630949E+01  0.66146079621E+01 -0.15354154040E+01  0.99969311255E+01  0.51100000000E-03 0.  1.
        -12    1    3    3    0    0  0.39434339225E+02  0.35822505868E+01 -0.14722027300E+02  0.42244972686E+02  0.00000000000E+00 0.  1.
</event>
<event>
 7    1  0.3622165E-015  0.9000773E+02  0.7816164E-02  0.1186339E+00
        -11   -1    0    0    0    0  0.00000000000E+00  0.00000000000E+00  0.45593999997E+02  0.45594000000E+02  0.51100000000E-03 0.  1.
         11   -1    0    0    0    0 -0.00000000000E+00 -0.00000000000E+00 -0.45593999997E+02  0.45594000000E+02  0.51100000000E-03 0. -1.
    9900012    2    1    2    0    0  0.52936729836E+00 -0.10031369461E+01 -0.32637431125E+00  0.90007731530E+02  0.89999992787E+02 0.  0.
        -12    1    1    2    0    0 -0.52936729836E+00  0.10031369461E+01  0.32637431125E+00  0.11802684696E+01  0.00000000000E+00 0.  1.
         11    1    3    3    0    0  0.26243661650E+02  0.20039509764E+02 -0.69887635310E+01  0.33751363592E+02  0.51100000000E-03 0. -1.
        -11    1    3    3    0    0  0.10732913218E+02  0.40691928845E+01 -0.12038991641E+00  0.11479035276E+02  0.51100000000E-03 0.  1.
        -12    1    3    3    0    0 -0.36447207570E+02 -0.25111839595E+02  0.67827791362E+01  0.44777332662E+02  0.00000000000E+00 0.  1.
</event>
<event>
 7    1  0.3622165E-015  0.9000777E+02  0.7816164E-02  0.1186339E+00
        -11   -1    0    0    0    0  0.00000000000E+00  0.00000000000E+00  0.45593999997E+02  0.45594000000E+02  0.51100000000E-03 0. -1.
         11   -1    0    0    0    0 -0.00000000000E+00 -0.00000000000E+00 -0.45593999997E+02  0.45594000000E+02  0.51100000000E-03 0.  1.
    9900012    2    1    2    0    0  0.68159319185E+00 -0.33303226194E-01  0.96294885895E+00  0.90007767443E+02  0.90000029173E+02 0.  0.
        -12    1    1    2    0    0 -0.68159319185E+00  0.33303226194E-01 -0.96294885895E+00  0.11802325572E+01  0.00000000000E+00 0.  1.
         11    1    3    3    0    0 -0.70608655779E+00 -0.17426991104E+01 -0.11010374770E+02  0.11169776688E+02  0.51100000000E-03 0. -1.
        -11    1    3    3    0    0 -0.53720224978E+01  0.19788233864E+02 -0.27849852450E+02  0.34583913991E+02  0.51100000000E-03 0.  1.
         12    1    3    3    0    0  0.67597022474E+01 -0.18078837980E+02  0.39823176080E+02  0.44254076764E+02  0.00000000000E+00 0. -1.
</event>
<event>
 7    1  0.3622165E-015  0.9000765E+02  0.7816164E-02  0.1186339E+00
        -11   -1    0    0    0    0  0.00000000000E+00  0.00000000000E+00  0.45593999997E+02  0.45594000000E+02  0.51100000000E-03 0. -1.
         11   -1    0    0    0    0 -0.00000000000E+00 -0.00000000000E+00 -0.45593999997E+02  0.45594000000E+02  0.51100000000E-03 0.  1.
    9900012    2    1    2    0    0 -0.86100329852E-01  0.51581580799E+00  0.10581824533E+01  0.90007648646E+02  0.89999908808E+02 0.  0.
        -12    1    1    2    0    0  0.86100329852E-01 -0.51581580799E+00 -0.10581824533E+01  0.11803513541E+01  0.00000000000E+00 0.  1.
         11    1    3    3    0    0  0.29399425773E+02  0.13374290372E+02  0.16724473896E+02  0.36371773481E+02  0.51100000000E-03 0. -1.
        -11    1    3    3    0    0 -0.38676659589E+01  0.88953866416E+01  0.79652272697E+01  0.12551158879E+02  0.51100000000E-03 0.  1.
        -12    1    3    3    0    0 -0.25617860144E+02 -0.21753861205E+02 -0.23631518713E+02  0.41084716287E+02  0.00000000000E+00 0.  1.
</event>
<event>
 7    1  0.3622165E-015  0.9000774E+02  0.7816164E-02  0.1186339E+00
        -11   -1    0    0    0    0  0.00000000000E+00  0.00000000000E+00  0.45593999997E+02  0.45594000000E+02  0.51100000000E-03 0. -1.
         11   -1    0    0    0    0 -0.00000000000E+00 -0.00000000000E+00 -0.45593999997E+02  0.45594000000E+02  0.51100000000E-03 0.  1.
    9900012    2    1    2    0    0  0.10351638584E+01 -0.21250944226E+00 -0.52563670748E+00  0.90007737985E+02  0.89999999326E+02 0.  0.
        -12    1    1    2    0    0 -0.10351638584E+01  0.21250944226E+00  0.52563670748E+00  0.11802620154E+01  0.00000000000E+00 0.  1.
         11    1    3    3    0    0  0.48876696584E+01 -0.15170168008E+02  0.34559761763E+02  0.38057856554E+02  0.51100000000E-03 0. -1.
        -11    1    3    3    0    0 -0.48135956666E+01 -0.10263803799E+02 -0.42621999830E+01  0.12111264204E+02  0.51100000000E-03 0.  1.
        -12    1    3    3    0    0  0.96108986660E+00  0.25221462364E+02 -0.30823198488E+02  0.39838617227E+02  0.00000000000E+00 0.  1.
</event>
<event>
 7    1  0.3832270E-015  0.9000779E+02  0.7816164E-02  0.1186339E+00
        -11   -1    0    0    0    0  0.00000000000E+00  0.00000000000E+00  0.45593999997E+02  0.45594000000E+02  0.51100000000E-03 0. -1.
         11   -1    0    0    0    0 -0.00000000000E+00 -0.00000000000E+00 -0.45593999997E+02  0.45594000000E+02  0.51100000000E-03 0.  1.
    9900012    2    1    2    0    0  0.88336211458E+00 -0.34007001170E+00  0.70492193474E+00  0.90007791894E+02  0.90000053947E+02 0.  0.
        -12    1    1    2    0    0 -0.88336211458E+00  0.34007001170E+00 -0.70492193474E+00  0.11802081056E+01  0.00000000000E+00 0.  1.
         11    1    3    3    0    0 -0.23576394369E+01  0.67755004914E+01 -0.63549855050E+01  0.95839298648E+01  0.51100000000E-03 0. -1.
        -11    1    3    3    0    0 -0.29944451830E+02  0.40531312606E+01 -0.19944099778E+02  0.36205872240E+02  0.51100000000E-03 0.  1.
         12    1    3    3    0    0  0.33185453381E+02 -0.11168701764E+02  0.27004007218E+02  0.44217989790E+02  0.00000000000E+00 0. -1.
</event>
<event>
 7    1  0.3622165E-015  0.9000749E+02  0.7816164E-02  0.1186340E+00
        -11   -1    0    0    0    0  0.00000000000E+00  0.00000000000E+00  0.45593999997E+02  0.45594000000E+02  0.51100000000E-03 0. -1.
         11   -1    0    0    0    0 -0.00000000000E+00 -0.00000000000E+00 -0.45593999997E+02  0.45594000000E+02  0.51100000000E-03 0.  1.
    9900012    2    1    2    0    0 -0.46733078811E+00 -0.54729852815E+00 -0.93576830905E+00  0.90007493298E+02  0.89999751410E+02 0.  0.
        -12    1    1    2    0    0  0.46733078811E+00  0.54729852815E+00  0.93576830905E+00  0.11805067017E+01  0.00000000000E+00 0.  1.
         11    1    3    3    0    0  0.31036322871E+02  0.16251899292E+02  0.13659278054E+02  0.37602572321E+02  0.51100000000E-03 0. -1.
        -11    1    3    3    0    0  0.29063160546E+01  0.30718589275E+01  0.62403588408E+01  0.75382404447E+01  0.51100000000E-03 0.  1.
        -12    1    3    3    0    0 -0.34409969714E+02 -0.19871056748E+02 -0.20835405204E+02  0.44866680532E+02  0.00000000000E+00 0.  1.
</event>
<event>
 7    1  0.3622165E-015  0.9000771E+02  0.7816164E-02  0.1186339E+00
        -11   -1    0    0    0    0  0.00000000000E+00  0.00000000000E+00  0.45593999997E+02  0.45594000000E+02  0.51100000000E-03 0.  1.
         11   -1    0    0    0    0 -0.00000000000E+00 -0.00000000000E+00 -0.45593999997E+02  0.45594000000E+02  0.51100000000E-03 0. -1.
    9900012    2    1    2    0    0 -0.24756950290E+00 -0.10811096219E+01  0.40372179166E+00  0.90007711917E+02  0.89999972914E+02 0.  0.
        -12    1    1    2    0    0  0.24756950290E+00  0.10811096219E+01 -0.40372179166E+00  0.11802880828E+01  0.00000000000E+00 0.  1.
         11    1    3    3    0    0  0.92572845518E+01  0.15056434086E+02 -0.37217258841E+02  0.41200945142E+02  0.51100000000E-03 0. -1.
        -11    1    3    3    0    0 -0.82380781224E+01 -0.31046067833E+01 -0.17643419472E+00  0.88054326252E+01  0.51100000000E-03 0.  1.
        -12    1    3    3    0    0 -0.12667759323E+01 -0.13032936924E+02  0.37797414828E+02  0.40001334150E+02  0.00000000000E+00 0.  1.
</event>
<event>
 7    1  0.3622165E-015  0.9000794E+02  0.7816164E-02  0.1186339E+00
        -11   -1    0    0    0    0  0.00000000000E+00  0.00000000000E+00  0.45593999997E+02  0.45594000000E+02  0.51100000000E-03 0.  1.
         11   -1    0    0    0    0 -0.00000000000E+00 -0.00000000000E+00 -0.45593999997E+02  0.45594000000E+02  0.51100000000E-03 0. -1.
    9900012    2    1    2    0    0 -0.19752196342E+00  0.96509596171E+00 -0.64970217785E+00  0.90007941501E+02  0.90000205528E+02 0.  0.
        -12    1    1    2    0    0  0.19752196342E+00 -0.96509596171E+00  0.64970217785E+00  0.11800584991E+01  0.00000000000E+00 0.  1.
         11    1    3    3    0    0  0.62950791258E+01  0.56515223337E+01  0.34363860620E+01  0.91310719697E+01  0.51100000000E-03 0. -1.
        -11    1    3    3    0    0  0.22702619141E+02  0.26364237120E+02  0.96362618349E+01  0.36101792991E+02  0.51100000000E-03 0.  1.
         12    1    3    3    0    0 -0.29195220230E+02 -0.31050663492E+02 -0.13722350075E+02  0.44775076540E+02  0.00000000000E+00 0. -1.
</event>
<event>
 7    1  0.3622165E-015  0.9000779E+02  0.7816164E-02  0.1186339E+00
        -11   -1    0    0    0    0  0.00000000000E+00  0.00000000000E+00  0.45593999997E+02  0.45594000000E+02  0.51100000000E-03 0.  1.
         11   -1    0    0    0    0 -0.00000000000E+00 -0.00000000000E+00 -0.45593999997E+02  0.45594000000E+02  0.51100000000E-03 0. -1.
    9900012    2    1    2    0    0  0.19485587474E+00 -0.38682819456E+00 -0.10978571201E+01  0.90007790222E+02  0.90000052253E+02 0.  0.
        -12    1    1    2    0    0 -0.19485587474E+00  0.38682819456E+00  0.10978571201E+01  0.11802097780E+01  0.00000000000E+00 0.  1.
         11    1    3    3    0    0  0.15972881830E+02 -0.28300197348E+02  0.15429132482E+02  0.35973493760E+02  0.51100000000E-03 0. -1.
        -11    1    3    3    0    0  0.20287208879E+01 -0.53890061839E+01  0.73636187053E+01  0.93477257549E+01  0.51100000000E-03 0.  1.
        -12    1    3    3    0    0 -0.17806746843E+02  0.33302375338E+02 -0.23890608307E+02  0.44686570707E+02  0.00000000000E+00 0.  1.
</event>
<event>
 7    1  0.3622165E-015  0.9000770E+02  0.7816164E-02  0.1186339E+00
        -11   -1    0    0    0    0  0.00000000000E+00  0.00000000000E+00  0.45593999997E+02  0.45594000000E+02  0.51100000000E-03 0.  1.
         11   -1    0    0    0    0 -0.00000000000E+00 -0.00000000000E+00 -0.45593999997E+02  0.45594000000E+02  0.51100000000E-03 0. -1.
    9900012    2    1    2    0    0 -0.55553422510E+00 -0.66664485862E+00 -0.80004338163E+00  0.90007702133E+02  0.89999963001E+02 0.  0.
        -12    1    1    2    0    0  0.55553422510E+00  0.66664485862E+00  0.80004338163E+00  0.11802978672E+01  0.00000000000E+00 0.  1.
         11    1    3    3    0    0 -0.11118426290E+02 -0.31954674302E+02 -0.24203387211E+02  0.41599574104E+02  0.51100000000E-03 0. -1.
        -11    1    3    3    0    0  0.68782493795E+01 -0.26893762868E+01  0.78969448786E+00  0.74274273463E+01  0.51100000000E-03 0.  1.
        -12    1    3    3    0    0  0.36846426858E+01  0.33977405730E+02  0.22613649342E+02  0.40980700682E+02  0.00000000000E+00 0.  1.
</event>
<event>
 7    1  0.3622165E-015  0.9000778E+02  0.7816164E-02  0.1186339E+00
        -11   -1    0    0    0    0  0.00000000000E+00  0.00000000000E+00  0.45593999997E+02  0.45594000000E+02  0.51100000000E-03 0.  1.
         11   -1    0    0    0    0 -0.00000000000E+00 -0.00000000000E+00 -0.45593999997E+02  0.45594000000E+02  0.51100000000E-03 0. -1.
    9900012    2    1    2    0    0 -0.23542078084E+00  0.52312435023E+00 -0.10314223275E+01  0.90007782203E+02  0.90000044128E+02 0.  0.
        -12    1    1    2    0    0  0.23542078084E+00 -0.52312435023E+00  0.10314223275E+01  0.11802177967E+01  0.00000000000E+00 0.  1.
         11    1    3    3    0    0 -0.18343685914E+02 -0.29679768978E+02  0.23593606045E+01  0.34970646008E+02  0.51100000000E-03 0. -1.
        -11    1    3    3    0    0 -0.11355311468E+02 -0.14768597049E+01 -0.27159140246E+01  0.11768619392E+02  0.51100000000E-03 0.  1.
        -12    1    3    3    0    0  0.29463576602E+02  0.31679753033E+02 -0.67486890749E+00  0.43268516804E+02  0.00000000000E+00 0.  1.
</event>
<event>
 7    1  0.3622165E-015  0.9000774E+02  0.7816164E-02  0.1186339E+00
        -11   -1    0    0    0    0  0.00000000000E+00  0.00000000000E+00  0.45593999997E+02  0.45594000000E+02  0.51100000000E-03 0. -1.
         11   -1    0    0    0    0 -0.00000000000E+00 -0.00000000000E+00 -0.45593999997E+02  0.45594000000E+02  0.51100000000E-03 0.  1.
    9900012    2    1    2    0    0  0.13611261096E+00  0.11664455650E+01  0.11789066661E+00  0.90007737272E+02  0.89999998604E+02 0.  0.
        -12    1    1    2    0    0 -0.13611261096E+00 -0.11664455650E+01 -0.11789066661E+00  0.11802627285E+01  0.00000000000E+00 0.  1.
         11    1    3    3    0    0 -0.40339848374E+01  0.53735580277E+01 -0.38412957182E+01  0.77397488720E+01  0.51100000000E-03 0. -1.
        -11    1    3    3    0    0 -0.15299446118E+02  0.17612938870E+02 -0.29643037038E+02  0.37722649858E+02  0.51100000000E-03 0.  1.
         12    1    3    3    0    0  0.19469543566E+02 -0.21820051333E+02  0.33602223423E+02  0.44545338542E+02  0.00000000000E+00 0. -1.
</event>
<event>
 7    1  0.3622165E-015  0.9000768E+02  0.7816164E-02  0.1186339E+00
        -11   -1    0    0    0    0  0.00000000000E+00  0.00000000000E+00  0.45593999997E+02  0.45594000000E+02  0.51100000000E-03 0. -1.
         11   -1    0    0    0    0 -0.00000000000E+00 -0.00000000000E+00 -0.45593999997E+02  0.45594000000E+02  0.51100000000E-03 0.  1.
    9900012    2    1    2    0    0  0.10133207490E+01 -0.24521984489E+00 -0.55334795915E+00  0.90007684078E+02  0.89999944707E+02 0.  0.
        -12    1    1    2    0    0 -0.10133207490E+01  0.24521984489E+00  0.55334795915E+00  0.11803159224E+01  0.00000000000E+00 0.  1.
         11    1    3    3    0    0  0.50586399373E+01  0.30693786554E+01  0.86575546532E+01  0.10486380509E+02  0.51100000000E-03 0. -1.
        -11    1    3    3    0    0 -0.17898577295E+02  0.34147804675E+02 -0.89464586685E+01  0.39578665418E+02  0.51100000000E-03 0.  1.
         12    1    3    3    0    0  0.13853258107E+02 -0.37462403175E+02 -0.26444394386E+00  0.39942638151E+02  0.00000000000E+00 0. -1.
</event>
<event>
 7    1  0.3622165E-015  0.9000779E+02  0.7816164E-02  0.1186339E+00
        -11   -1    0    0    0    0  0.00000000000E+00  0.00000000000E+00  0.45593999997E+02  0.45594000000E+02  0.51100000000E-03 0. -1.
         11   -1    0    0    0    0 -0.00000000000E+00 -0.00000000000E+00 -0.45593999997E+02  0.45594000000E+02  0.51100000000E-03 0.  1.
    9900012    2    1    2    0    0 -0.10420659471E+01 -0.71346399264E-01 -0.54945341252E+00  0.90007792053E+02  0.90000054108E+02 0.  0.
        -12    1    1    2    0    0  0.10420659471E+01  0.71346399264E-01  0.54945341252E+00  0.11802079475E+01  0.00000000000E+00 0.  1.
         11    1    3    3    0    0  0.14809353498E+02 -0.24829508273E+02  0.61451966452E+01  0.29556469244E+02  0.51100000000E-03 0. -1.
        -11    1    3    3    0    0 -0.16798034678E+02 -0.72282087455E+01  0.13394373300E+02  0.22667823166E+02  0.51100000000E-03 0.  1.
        -12    1    3    3    0    0  0.94661523247E+00  0.31986370619E+02 -0.20089023358E+02  0.37783499643E+02  0.00000000000E+00 0.  1.
</event>
<event>
 7    1  0.4725062E-015  0.9000776E+02  0.7816164E-02  0.1186339E+00
        -11   -1    0    0    0    0  0.00000000000E+00  0.00000000000E+00  0.45593999997E+02  0.45594000000E+02  0.51100000000E-03 0. -1.
         11   -1    0    0    0    0 -0.00000000000E+00 -0.00000000000E+00 -0.45593999997E+02  0.45594000000E+02  0.51100000000E-03 0.  1.
    9900012    2    1    2    0    0  0.39639840348E+00  0.80179836456E+00  0.77003828309E+00  0.90007757962E+02  0.90000019567E+02 0.  0.
        -12    1    1    2    0    0 -0.39639840348E+00 -0.80179836456E+00 -0.77003828309E+00  0.11802420384E+01  0.00000000000E+00 0.  1.
         11    1    3    3    0    0 -0.15595058844E+02 -0.94326736954E+01  0.31085265915E+02  0.36034357919E+02  0.51100000000E-03 0. -1.
        -11    1    3    3    0    0 -0.31745594889E+01 -0.71290292680E+01  0.56791356624E+01  0.96516044462E+01  0.51100000000E-03 0.  1.
        -12    1    3    3    0    0  0.19166016736E+02  0.17363501328E+02 -0.35994363295E+02  0.44321795596E+02  0.00000000000E+00 0.  1.
</event>
<event>
 7    1  0.3622165E-015  0.9000773E+02  0.7816164E-02  0.1186339E+00
        -11   -1    0    0    0    0  0.00000000000E+00  0.00000000000E+00  0.45593999997E+02  0.45594000000E+02  0.51100000000E-03 0.  1.
         11   -1    0    0    0    0 -0.00000000000E+00 -0.00000000000E+00 -0.45593999997E+02  0.45594000000E+02  0.51100000000E-03 0. -1.
    9900012    2    1    2    0    0 -0.67606523617E+00  0.59915264968E+00 -0.75959465538E+00  0.90007732174E+02  0.89999993438E+02 0.  0.
        -12    1    1    2    0    0  0.67606523617E+00 -0.59915264968E+00  0.75959465538E+00  0.11802678262E+01  0.00000000000E+00 0.  1.
         11    1    3    3    0    0 -0.83903978784E+01  0.17574198598E+01 -0.12030667802E+01  0.86564814480E+01  0.51100000000E-03 0. -1.
        -11    1    3    3    0    0  0.23432218104E+02 -0.28444327796E+02  0.22249536299E+02  0.43048699107E+02  0.51100000000E-03 0.  1.
         12    1    3    3    0    0 -0.15717885462E+02  0.27286060586E+02 -0.21806064174E+02  0.38302551618E+02  0.00000000000E+00 0. -1.
</event>
<event>
 7    1  0.3622165E-015  0.9000745E+02  0.7816164E-02  0.1186340E+00
        -11   -1    0    0    0    0  0.00000000000E+00  0.00000000000E+00  0.45593999997E+02  0.45594000000E+02  0.51100000000E-03 0. -1.
         11   -1    0    0    0    0 -0.00000000000E+00 -0.00000000000E+00 -0.45593999997E+02  0.45594000000E+02  0.51100000000E-03 0.  1.
    9900012    2    1    2    0    0 -0.49035055813E+00  0.22518952526E+00  0.10500240143E+01  0.90007447408E+02  0.89999704913E+02 0.  0.
        -12    1    1    2    0    0  0.49035055813E+00 -0.22518952526E+00 -0.10500240143E+01  0.11805525922E+01  0.00000000000E+00 0.  1.
         11    1    3    3    0    0 -0.21710168181E+02 -0.47733065638E+01  0.30536947248E+02  0.37770636816E+02  0.51100000000E-03 0. -1.
        -11    1    3    3    0    0 -0.89202214651E+01  0.12512377299E+01  0.11689191579E+01  0.90830787238E+01  0.51100000000E-03 0.  1.
        -12    1    3    3    0    0  0.30140039088E+02  0.37472583592E+01 -0.30655842391E+02  0.43153731868E+02  0.00000000000E+00 0.  1.
</event>
<event>
 7    1  0.3622165E-015  0.9000781E+02  0.7816164E-02  0.1186339E+00
        -11   -1    0    0    0    0  0.00000000000E+00  0.00000000000E+00  0.45593999997E+02  0.45594000000E+02  0.51100000000E-03 0.  1.
         11   -1    0    0    0    0 -0.00000000000E+00 -0.00000000000E+00 -0.45593999997E+02  0.45594000000E+02  0.51100000000E-03 0. -1.
    9900012    2    1    2    0    0 -0.95088105036E+00  0.49289624257E+00 -0.49570651217E+00  0.90007810852E+02  0.90000073156E+02 0.  0.
        -12    1    1    2    0    0  0.95088105036E+00 -0.49289624257E+00  0.49570651217E+00  0.11801891476E+01  0.00000000000E+00 0.  1.
         11    1    3    3    0    0 -0.10295063005E+02 -0.38285384445E+00  0.62908649422E+01  0.12071034807E+02  0.51100000000E-03 0. -1.
        -11    1    3    3    0    0  0.17598071145E+02 -0.20641518938E+02  0.26190062331E+02  0.37705222149E+02  0.51100000000E-03 0.  1.
         12    1    3    3    0    0 -0.82538891901E+01  0.21517269025E+02 -0.32976633786E+02  0.40231553896E+02  0.00000000000E+00 0. -1.
</event>
<event>
 7    1  0.3622165E-015  0.9000771E+02  0.7816164E-02  0.1186339E+00
        -11   -1    0    0    0    0  0.00000000000E+00  0.00000000000E+00  0.45593999997E+02  0.45594000000E+02  0.51100000000E-03 0.  1.
         11   -1    0    0    0    0 -0.00000000000E+00 -0.00000000000E+00 -0.45593999997E+02  0.45594000000E+02  0.51100000000E-03 0. -1.
    9900012    2    1    2    0    0 -0.38930455676E+00 -0.27978058338E+00 -0.10785364624E+01  0.90007713546E+02  0.89999974565E+02 0.  0.
        -12    1    1    2    0    0  0.38930455676E+00  0.27978058338E+00  0.10785364624E+01  0.11802864540E+01  0.00000000000E+00 0.  1.
         11    1    3    3    0    0  0.93302802860E+01  0.11535958921E+02 -0.97161668127E+01  0.17735173420E+02  0.51100000000E-03 0. -1.
        -11    1    3    3    0    0 -0.20467029898E+02 -0.76596205339E+01 -0.27047756178E+02  0.34772837303E+02  0.51100000000E-03 0.  1.
         12    1    3    3    0    0  0.10747445055E+02 -0.41561189701E+01  0.35685386529E+02  0.37499702823E+02  0.00000000000E+00 0. -1.
</event>
<event>
 7    1  0.3622165E-015  0.9000756E+02  0.7816164E-02  0.1186339E+00
        -11   -1    0    0    0    0  0.00000000000E+00  0.00000000000E+00  0.45593999997E+02  0.45594000000E+02  0.51100000000E-03 0.  1.
         11   -1    0    0    0    0 -0.00000000000E+00 -0.00000000000E+00 -0.45593999997E+02  0.45594000000E+02  0.51100000000E-03 0. -1.
    9900012    2    1    2    0    0  0.43580036994E+00  0.10709561396E+01 -0.23782839839E+00  0.90007563063E+02  0.89999822095E+02 0.  0.
        -12    1    1    2    0    0 -0.43580036994E+00 -0.10709561396E+01  0.23782839839E+00  0.11804369371E+01  0.00000000000E+00 0.  1.
         11    1    3    3    0    0 -0.26806776525E+00 -0.10562930336E+02 -0.14882850496E+02  0.18252303875E+02  0.51100000000E-03 0. -1.
        -11    1    3    3    0    0  0.19259547234E+02 -0.16143528476E+02 -0.13091668537E+02  0.28336115765E+02  0.51100000000E-03 0.  1.
         12    1    3    3    0    0 -0.18555679099E+02  0.27777414951E+02  0.27736690634E+02  0.43419143423E+02  0.00000000000E+00 0. -1.
</event>
<event>
 7    1  0.3622165E-015  0.9000778E+02  0.7816164E-02  0.1186339E+00
        -11   -1    0    0    0    0  0.00000000000E+00  0.00000000000E+00  0.45593999997E+02  0.45594000000E+02  0.51100000000E-03 0.  1.
         11   -1    0    0    0    0 -0.00000000000E+00 -0.00000000000E+00 -0.45593999997E+02  0.45594000000E+02  0.51100000000E-03 0. -1.
    9900012    2    1    2    0    0  0.66352361392E+00  0.40517568304E-01 -0.97520332160E+00  0.90007776810E+02  0.90000038664E+02 0.  0.
        -12    1    1    2    0    0 -0.66352361392E+00 -0.40517568304E-01  0.97520332160E+00  0.11802231899E+01  0.00000000000E+00 0.  1.
         11    1    3    3    0    0  0.36569014458E+02  0.52744860477E+01 -0.66655598265E+00  0.36953447994E+02  0.51100000000E-03 0. -1.
        -11    1    3    3    0    0  0.62823530992E+01  0.41185692478E+01  0.56955839198E+01  0.94271018643E+01  0.51100000000E-03 0.  1.
        -12    1    3    3    0    0 -0.42187843943E+02 -0.93525377272E+01 -0.60042312587E+01  0.43627226952E+02  0.00000000000E+00 0.  1.
</event>
<event>
 7    1  0.3622165E-015  0.9000775E+02  0.7816164E-02  0.1186339E+00
        -11   -1    0    0    0    0  0.00000000000E+00  0.00000000000E+00  0.45593999997E+02  0.45594000000E+02  0.51100000000E-03 0.  1.
         11   -1    0    0    0    0 -0.00000000000E+00 -0.00000000000E+00 -0.45593999997E+02  0.45594000000E+02  0.51100000000E-03 0. -1.
    9900012    2    1    2    0    0 -0.49629326768E+00  0.10440837922E+01 -0.23786021710E+00  0.90007747715E+02  0.90000009185E+02 0.  0.
        -12    1    1    2    0    0  0.49629326768E+00 -0.10440837922E+01  0.23786021710E+00  0.11802522848E+01  0.00000000000E+00 0.  1.
         11    1    3    3    0    0 -0.37933759662E+02  0.58764068180E+01 -0.12274761241E+01  0.38405845611E+02  0.51100000000E-03 0. -1.
        -11    1    3    3    0    0 -0.59108496549E+01  0.36497507708E+01  0.25602048951E+01  0.74036122061E+01  0.51100000000E-03 0.  1.
        -12    1    3    3    0    0  0.43348316049E+02 -0.84820737965E+01 -0.15705889881E+01  0.44198289898E+02  0.00000000000E+00 0.  1.
</event>
<event>
 7    1  0.3622165E-015  0.9000776E+02  0.7816164E-02  0.1186339E+00
        -11   -1    0    0    0    0  0.00000000000E+00  0.00000000000E+00  0.45593999997E+02  0.45594000000E+02  0.51100000000E-03 0. -1.
         11   -1    0    0    0    0 -0.00000000000E+00 -0.00000000000E+00 -0.45593999997E+02  0.45594000000E+02  0.51100000000E-03 0.  1.
    9900012    2    1    2    0    0 -0.28706872023E+00 -0.15539686459E+00  0.11342022010E+01  0.90007757962E+02  0.90000019567E+02 0.  0.
        -12    1    1    2    0    0  0.28706872023E+00  0.15539686459E+00 -0.11342022010E+01  0.11802420381E+01  0.00000000000E+00 0.  1.
         11    1    3    3    0    0 -0.31204107335E+01  0.18367399192E+01 -0.95006761216E+01  0.10167272186E+02  0.51100000000E-03 0. -1.
        -11    1    3    3    0    0 -0.20999483397E+02  0.30955248098E+02  0.11606396630E+02  0.39165215827E+02  0.51100000000E-03 0.  1.
         12    1    3    3    0    0  0.23832825410E+02 -0.32947384882E+02 -0.97151830723E+00  0.40675269949E+02  0.00000000000E+00 0. -1.
</event>
<event>
 7    1  0.3622165E-015  0.9000779E+02  0.7816164E-02  0.1186339E+00
        -11   -1    0    0    0    0  0.00000000000E+00  0.00000000000E+00  0.45593999997E+02  0.45594000000E+02  0.51100000000E-03 0. -1.
         11   -1    0    0    0    0 -0.00000000000E+00 -0.00000000000E+00 -0.45593999997E+02  0.45594000000E+02  0.51100000000E-03 0.  1.
    9900012    2    1    2    0    0  0.10798351331E+01  0.35667693739E+00 -0.31563227360E+00  0.90007794050E+02  0.90000056131E+02 0.  0.
        -12    1    1    2    0    0 -0.10798351331E+01 -0.35667693739E+00  0.31563227360E+00  0.11802059500E+01  0.00000000000E+00 0.  1.
         11    1    3    3    0    0 -0.26503604867E+02  0.40408358693E+01  0.22558739298E+02  0.35038067076E+02  0.51100000000E-03 0. -1.
        -11    1    3    3    0    0 -0.80140309851E+01 -0.15978983415E+01  0.51130039860E+01  0.96395426117E+01  0.51100000000E-03 0.  1.
        -12    1    3    3    0    0  0.35597470985E+02 -0.20862605905E+01 -0.27987375557E+02  0.45330184363E+02  0.00000000000E+00 0.  1.
</event>
<event>
 7    1  0.3622165E-015  0.9000777E+02  0.7816164E-02  0.1186339E+00
        -11   -1    0    0    0    0  0.00000000000E+00  0.00000000000E+00  0.45593999997E+02  0.45594000000E+02  0.51100000000E-03 0.  1.
         11   -1    0    0    0    0 -0.00000000000E+00 -0.00000000000E+00 -0.45593999997E+02  0.45594000000E+02  0.51100000000E-03 0. -1.
    9900012    2    1    2    0    0 -0.30963560497E+00  0.11340120086E+01  0.10532141140E+00  0.90007766954E+02  0.90000028678E+02 0.  0.
        -12    1    1    2    0    0  0.30963560497E+00 -0.11340120086E+01 -0.10532141140E+00  0.11802330462E+01  0.00000000000E+00 0.  1.
         11    1    3    3    0    0  0.70025060612E+00  0.79004094146E+01 -0.71120592791E+01  0.10653084402E+02  0.51100000000E-03 0. -1.
        -11    1    3    3    0    0  0.15485122829E+02  0.24798250989E+02 -0.19230498970E+02  0.34993633307E+02  0.51100000000E-03 0.  1.
         12    1    3    3    0    0 -0.16495009040E+02 -0.31564648395E+02  0.26447879661E+02  0.44361049244E+02  0.00000000000E+00 0. -1.
</event>
<event>
 7    1  0.3622165E-015  0.9000776E+02  0.7816164E-02  0.1186339E+00
        -11   -1    0    0    0    0  0.00000000000E+00  0.00000000000E+00  0.45593999997E+02  0.45594000000E+02  0.51100000000E-03 0. -1.
         11   -1    0    0    0    0 -0.00000000000E+00 -0.00000000000E+00 -0.45593999997E+02  0.45594000000E+02  0.51100000000E-03 0.  1.
    9900012    2    1    2    0    0  0.46531205455E+00 -0.39316204302E+00  0.10108741004E+01  0.90007763521E+02  0.90000025199E+02 0.  0.
        -12    1    1    2    0    0 -0.46531205455E+00  0.39316204302E+00 -0.10108741004E+01  0.11802364792E+01  0.00000000000E+00 0.  1.
         11    1    3    3    0    0 -0.90729195352E+01 -0.95257793107E+01  0.72733061498E+01  0.15031943420E+02  0.51100000000E-03 0. -1.
        -11    1    3    3    0    0 -0.22874161274E+02  0.23994886844E+02 -0.17633856183E+02  0.37549097630E+02  0.51100000000E-03 0.  1.
         12    1    3    3    0    0  0.32412392864E+02 -0.14862269577E+02  0.11371424133E+02  0.37426722471E+02  0.00000000000E+00 0. -1.
</event>
<event>
 7    1  0.3622165E-015  0.9000832E+02  0.7816164E-02  0.1186338E+00
        -11   -1    0    0    0    0  0.00000000000E+00  0.00000000000E+00  0.45593999997E+02  0.45594000000E+02  0.51100000000E-03 0.  1.
         11   -1    0    0    0    0 -0.00000000000E+00 -0.00000000000E+00 -0.45593999997E+02  0.45594000000E+02  0.51100000000E-03 0. -1.
    9900012    2    1    2    0    0  0.80905179286E+00 -0.75058463385E+00 -0.41676760548E+00  0.90008323208E+02  0.90000592273E+02 0.  0.
        -12    1    1    2    0    0 -0.80905179286E+00  0.75058463385E+00  0.41676760548E+00  0.11796767918E+01  0.00000000000E+00 0.  1.
         11    1    3    3    0    0  0.31465476098E+02  0.17102154454E+02 -0.15624400824E+02  0.39072775361E+02  0.51100000000E-03 0. -1.
        -11    1    3    3    0    0 -0.29275599813E+01  0.76596623966E+01  0.99454064687E+01  0.12890001767E+02  0.51100000000E-03 0.  1.
        -12    1    3    3    0    0 -0.27728864324E+02 -0.25512401484E+02  0.52622267500E+01  0.38045546080E+02  0.00000000000E+00 0.  1.
</event>
<event>
 7    1  0.3622165E-015  0.9000768E+02  0.7816164E-02  0.1186339E+00
        -11   -1    0    0    0    0  0.00000000000E+00  0.00000000000E+00  0.45593999997E+02  0.45594000000E+02  0.51100000000E-03 0.  1.
         11   -1    0    0    0    0 -0.00000000000E+00 -0.00000000000E+00 -0.45593999997E+02  0.45594000000E+02  0.51100000000E-03 0. -1.
    9900012    2    1    2    0    0 -0.66696035647E+00  0.91709409014E+00 -0.32749556312E+00  0.90007681809E+02  0.89999942409E+02 0.  0.
        -12    1    1    2    0    0  0.66696035647E+00 -0.91709409014E+00  0.32749556312E+00  0.11803181906E+01  0.00000000000E+00 0.  1.
         11    1    3    3    0    0 -0.21754003389E+02 -0.17064039901E+02 -0.25388551175E+02  0.37536604164E+02  0.51100000000E-03 0. -1.
        -11    1    3    3    0    0 -0.20695301967E+00  0.84722902059E+01 -0.82373298200E+01  0.11818465793E+02  0.51100000000E-03 0.  1.
        -12    1    3    3    0    0  0.21293996052E+02  0.95088437852E+01  0.33298385432E+02  0.40652611851E+02  0.00000000000E+00 0.  1.
</event>
<event>
 7    1  0.3622165E-015  0.9000772E+02  0.7816164E-02  0.1186339E+00
        -11   -1    0    0    0    0  0.00000000000E+00  0.00000000000E+00  0.45593999997E+02  0.45594000000E+02  0.51100000000E-03 0. -1.
         11   -1    0    0    0    0 -0.00000000000E+00 -0.00000000000E+00 -0.45593999997E+02  0.45594000000E+02  0.51100000000E-03 0.  1.
    9900012    2    1    2    0    0 -0.52250230681E+00 -0.35313236389E+00  0.99766879921E+00  0.90007722846E+02  0.89999983988E+02 0.  0.
        -12    1    1    2    0    0  0.52250230681E+00  0.35313236389E+00 -0.99766879921E+00  0.11802771539E+01  0.00000000000E+00 0.  1.
         11    1    3    3    0    0 -0.71841135064E+01 -0.22322739887E+01 -0.36159701093E+01  0.83468421650E+01  0.51100000000E-03 0. -1.
        -11    1    3    3    0    0  0.24120072707E+02 -0.28042138141E+02  0.21857919597E+02  0.42964032263E+02  0.51100000000E-03 0.  1.
         12    1    3    3    0    0 -0.17458461507E+02  0.29921279766E+02 -0.17244280688E+02  0.38696848418E+02  0.00000000000E+00 0. -1.
</event>
<event>
 7    1  0.3622165E-015  0.9000774E+02  0.7816164E-02  0.1186339E+00
        -11   -1    0    0    0    0  0.00000000000E+00  0.00000000000E+00  0.45593999997E+02  0.45594000000E+02  0.51100000000E-03 0.  1.
         11   -1    0    0    0    0 -0.00000000000E+00 -0.00000000000E+00 -0.45593999997E+02  0.45594000000E+02  0.51100000000E-03 0. -1.
    9900012    2    1    2    0    0  0.95802768995E+00  0.51533574794E+00 -0.45783839183E+00  0.90007744104E+02  0.90000005526E+02 0.  0.
        -12    1    1    2    0    0 -0.95802768995E+00 -0.51533574794E+00  0.45783839183E+00  0.11802558963E+01  0.00000000000E+00 0.  1.
         11    1    3    3    0    0  0.62448807647E+01 -0.10915417743E+02  0.83156926288E+01  0.15076326622E+02  0.51100000000E-03 0. -1.
        -11    1    3    3    0    0 -0.31295592915E+02  0.11302829885E+01  0.18074826661E+02  0.36157862694E+02  0.51100000000E-03 0.  1.
         12    1    3    3    0    0  0.26008739840E+02  0.10300470502E+02 -0.26848357682E+02  0.38773554787E+02  0.00000000000E+00 0. -1.
</event>
<event>
 7    1  0.3622165E-015  0.9000769E+02  0.7816164E-02  0.1186339E+00
        -11   -1    0    0    0    0  0.00000000000E+00  0.00000000000E+00  0.45593999997E+02  0.45594000000E+02  0.51100000000E-03 0. -1.
         11   -1    0    0    0    0 -0.00000000000E+00 -0.00000000000E+00 -0.45593999997E+02  0.45594000000E+02  0.51100000000E-03 0.  1.
    9900012    2    1    2    0    0  0.11284280860E+01 -0.26578803396E+00  0.22165291209E+00  0.90007693583E+02  0.89999954338E+02 0.  0.
        -12    1    1    2    0    0 -0.11284280860E+01  0.26578803396E+00 -0.22165291209E+00  0.11803064169E+01  0.00000000000E+00 0.  1.
         11    1    3    3    0    0 -0.73191539990E+01 -0.26875253113E+02  0.30874844190E+02  0.41582511339E+02  0.51100000000E-03 0. -1.
        -11    1    3    3    0    0 -0.42023175279E+01 -0.25306280680E+01 -0.80872217376E+01  0.94586841959E+01  0.51100000000E-03 0.  1.
        -12    1    3    3    0    0  0.12649899613E+02  0.29140093147E+02 -0.22565969541E+02  0.38966498049E+02  0.00000000000E+00 0.  1.
</event>
<event>
 7    1  0.3622165E-015  0.9000778E+02  0.7816164E-02  0.1186339E+00
        -11   -1    0    0    0    0  0.00000000000E+00  0.00000000000E+00  0.45593999997E+02  0.45594000000E+02  0.51100000000E-03 0.  1.
         11   -1    0    0    0    0 -0.00000000000E+00 -0.00000000000E+00 -0.45593999997E+02  0.45594000000E+02  0.51100000000E-03 0. -1.
    9900012    2    1    2    0    0 -0.78410661481E+00 -0.51625416897E+00 -0.71524574529E+00  0.90007780518E+02  0.90000042420E+02 0.  0.
        -12    1    1    2    0    0  0.78410661481E+00  0.51625416897E+00  0.71524574529E+00  0.11802194824E+01  0.00000000000E+00 0.  1.
         11    1    3    3    0    0 -0.13685498805E+01 -0.78482519314E+01  0.47373384342E+01  0.92687843246E+01  0.51100000000E-03 0. -1.
        -11    1    3    3    0    0  0.98479709141E+01 -0.34355770185E+02  0.66495421098E+01  0.36352687475E+02  0.51100000000E-03 0.  1.
         12    1    3    3    0    0 -0.92635276484E+01  0.41687767947E+02 -0.12102126289E+02  0.44386308718E+02  0.00000000000E+00 0. -1.
</event>
<event>
 7    1  0.4898399E-015  0.9000774E+02  0.7816164E-02  0.1186339E+00
        -11   -1    0    0    0    0  0.00000000000E+00  0.00000000000E+00  0.45593999997E+02  0.45594000000E+02  0.51100000000E-03 0. -1.
         11   -1    0    0    0    0 -0.00000000000E+00 -0.00000000000E+00 -0.45593999997E+02  0.45594000000E+02  0.51100000000E-03 0.  1.
    9900012    2    1    2    0    0 -0.49372734909E+00 -0.17029582835E+00  0.10584115306E+01  0.90007744802E+02  0.90000006233E+02 0.  0.
        -12    1    1    2    0    0  0.49372734909E+00  0.17029582835E+00 -0.10584115306E+01  0.11802551980E+01  0.00000000000E+00 0.  1.
         11    1    3    3    0    0  0.74600198111E+01  0.21428349369E+00  0.53931753163E+01  0.92078310829E+01  0.51100000000E-03 0. -1.
        -11    1    3    3    0    0  0.22015425199E+02 -0.95518156928E+01 -0.31310302176E+02  0.39449349200E+02  0.51100000000E-03 0.  1.
         12    1    3    3    0    0 -0.29969172359E+02  0.91672363708E+01  0.26975538390E+02  0.41350564519E+02  0.00000000000E+00 0. -1.
</event>
<event>
 7    1  0.3622165E-015  0.9000774E+02  0.7816164E-02  0.1186339E+00
        -11   -1    0    0    0    0  0.00000000000E+00  0.00000000000E+00  0.45593999997E+02  0.45594000000E+02  0.51100000000E-03 0.  1.
         11   -1    0    0    0    0 -0.00000000000E+00 -0.00000000000E+00 -0.45593999997E+02  0.45594000000E+02  0.51100000000E-03 0. -1.
    9900012    2    1    2    0    0  0.10227957196E+01  0.20249703810E+00 -0.55308061092E+00  0.90007739734E+02  0.90000001098E+02 0.  0.
        -12    1    1    2    0    0 -0.10227957196E+01 -0.20249703810E+00  0.55308061092E+00  0.11802602665E+01  0.00000000000E+00 0.  1.
         11    1    3    3    0    0  0.28829127533E+02 -0.23730427272E+02 -0.14103508850E+01  0.37366306517E+02  0.51100000000E-03 0. -1.
        -11    1    3    3    0    0  0.31919959966E+01 -0.60917266329E+01  0.60694283092E+01  0.91725640949E+01  0.51100000000E-03 0.  1.
        -12    1    3    3    0    0 -0.30998327811E+02  0.30024650943E+02 -0.52121580351E+01  0.43468869121E+02  0.00000000000E+00 0.  1.
</event>
<event>
 7    1  0.3622165E-015  0.9000777E+02  0.7816164E-02  0.1186339E+00
        -11   -1    0    0    0    0  0.00000000000E+00  0.00000000000E+00  0.45593999997E+02  0.45594000000E+02  0.51100000000E-03 0. -1.
         11   -1    0    0    0    0 -0.00000000000E+00 -0.00000000000E+00 -0.45593999997E+02  0.45594000000E+02  0.51100000000E-03 0.  1.
    9900012    2    1    2    0    0 -0.94909098881E+00  0.69003795797E+00  0.12658101919E+00  0.90007767462E+02  0.90000029193E+02 0.  0.
        -12    1    1    2    0    0  0.94909098881E+00 -0.69003795797E+00 -0.12658101919E+00  0.11802325376E+01  0.00000000000E+00 0.  1.
         11    1    3    3    0    0  0.34439068864E+00 -0.70663871392E+01 -0.67495729196E+01  0.97779940175E+01  0.51100000000E-03 0. -1.
        -11    1    3    3    0    0 -0.24214783375E+02 -0.23525913095E+02  0.20057351943E+02  0.39269857245E+02  0.51100000000E-03 0.  1.
         12    1    3    3    0    0  0.22921301697E+02  0.31282338192E+02 -0.13181198004E+02  0.40959916200E+02  0.00000000000E+00 0. -1.
</event>
<event>
 7    1  0.3622165E-015  0.9000759E+02  0.7816164E-02  0.1186339E+00
        -11   -1    0    0    0    0  0.00000000000E+00  0.00000000000E+00  0.45593999997E+02  0.45594000000E+02  0.51100000000E-03 0.  1.
         11   -1    0    0    0    0 -0.00000000000E+00 -0.00000000000E+00 -0.45593999997E+02  0.45594000000E+02  0.51100000000E-03 0. -1.
    9900012    2    1    2    0    0  0.82488248977E+00  0.77555293802E-01 -0.84078890513E+00  0.90007588238E+02  0.89999847602E+02 0.  0.
        -12    1    1    2    0    0 -0.82488248977E+00 -0.77555293802E-01  0.84078890513E+00  0.11804117623E+01  0.00000000000E+00 0.  1.
         11    1    3    3    0    0 -0.24069789641E+01 -0.52122009033E+01 -0.72652216135E+01  0.92598073060E+01  0.51100000000E-03 0. -1.
        -11    1    3    3    0    0 -0.36090653944E+02  0.13260745274E+02 -0.56162377144E+01  0.38857750754E+02  0.51100000000E-03 0.  1.
         12    1    3    3    0    0  0.39322515398E+02 -0.79709890769E+01  0.12040670423E+02  0.41890030178E+02  0.00000000000E+00 0. -1.
</event>
<event>
 7    1  0.3622165E-015  0.9000779E+02  0.7816164E-02  0.1186339E+00
        -11   -1    0    0    0    0  0.00000000000E+00  0.00000000000E+00  0.45593999997E+02  0.45594000000E+02  0.51100000000E-03 0. -1.
         11   -1    0    0    0    0 -0.00000000000E+00 -0.00000000000E+00 -0.45593999997E+02  0.45594000000E+02  0.51100000000E-03 0.  1.
    9900012    2    1    2    0    0 -0.99501738869E+00 -0.53119136666E+00 -0.34738431886E+00  0.90007788266E+02  0.90000050271E+02 0.  0.
        -12    1    1    2    0    0  0.99501738869E+00  0.53119136666E+00  0.34738431886E+00  0.11802117339E+01  0.00000000000E+00 0.  1.
         11    1    3    3    0    0 -0.95509707196E+01 -0.30840789544E+01  0.15777195812E+01  0.10159812204E+02  0.51100000000E-03 0. -1.
        -11    1    3    3    0    0  0.10269425651E+02 -0.37924215135E+02 -0.18715036435E+01  0.39334586853E+02  0.51100000000E-03 0.  1.
         12    1    3    3    0    0 -0.17134723206E+01  0.40477102722E+02 -0.53600256515E-01  0.40513389209E+02  0.00000000000E+00 0. -1.
</event>
<event>
 7    1  0.3622165E-015  0.9000782E+02  0.7816164E-02  0.1186339E+00
        -11   -1    0    0    0    0  0.00000000000E+00  0.00000000000E+00  0.45593999997E+02  0.45594000000E+02  0.51100000000E-03 0.  1.
         11   -1    0    0    0    0 -0.00000000000E+00 -0.00000000000E+00 -0.45593999997E+02  0.45594000000E+02  0.51100000000E-03 0. -1.
    9900012    2    1    2    0    0  0.64115840050E+00  0.97565675414E+00 -0.17275952715E+00  0.90007815247E+02  0.90000077608E+02 0.  0.
        -12    1    1    2    0    0 -0.64115840050E+00 -0.97565675414E+00  0.17275952715E+00  0.11801847528E+01  0.00000000000E+00 0.  1.
         11    1    3    3    0    0  0.50702566799E+01  0.14767877090E+01  0.68325113411E+01  0.86354858708E+01  0.51100000000E-03 0. -1.
        -11    1    3    3    0    0 -0.27059443737E+01 -0.35418016789E+02  0.16580804426E+02  0.39200524536E+02  0.51100000000E-03 0.  1.
         12    1    3    3    0    0 -0.17231539057E+01  0.34916885834E+02 -0.23586075294E+02  0.42171804841E+02  0.00000000000E+00 0. -1.
</event>
<event>
 7    1  0.3622165E-015  0.9000765E+02  0.7816164E-02  0.1186339E+00
        -11   -1    0    0    0    0  0.00000000000E+00  0.00000000000E+00  0.45593999997E+02  0.45594000000E+02  0.51100000000E-03 0.  1.
         11   -1    0    0    0    0 -0.00000000000E+00 -0.00000000000E+00 -0.45593999997E+02  0.45594000000E+02  0.51100000000E-03 0. -1.
    9900012    2    1    2    0    0  0.50521396699E+00  0.49304430440E+00 -0.94599090092E+00  0.90007647246E+02  0.89999907390E+02 0.  0.
        -12    1    1    2    0    0 -0.50521396699E+00 -0.49304430440E+00  0.94599090092E+00  0.11803527537E+01  0.00000000000E+00 0.  1.
         11    1    3    3    0    0  0.44975749711E+01 -0.41469504619E+01 -0.93905074338E+01  0.11207453274E+02  0.51100000000E-03 0. -1.
        -11    1    3    3    0    0  0.29036072217E+02 -0.61497980505E+01  0.26370089026E+02  0.39702583057E+02  0.51100000000E-03 0.  1.
         12    1    3    3    0    0 -0.33028433222E+02  0.10789792817E+02 -0.17925572493E+02  0.39097610916E+02  0.00000000000E+00 0. -1.
</event>
<event>
 7    1  0.3622165E-015  0.9000784E+02  0.7816164E-02  0.1186339E+00
        -11   -1    0    0    0    0  0.00000000000E+00  0.00000000000E+00  0.45593999997E+02  0.45594000000E+02  0.51100000000E-03 0. -1.
         11   -1    0    0    0    0 -0.00000000000E+00 -0.00000000000E+00 -0.45593999997E+02  0.45594000000E+02  0.51100000000E-03 0.  1.
    9900012    2    1    2    0    0  0.33390978698E+00  0.46762283272E+00  0.10308284134E+01  0.90007841503E+02  0.90000104211E+02 0.  0.
        -12    1    1    2    0    0 -0.33390978698E+00 -0.46762283272E+00 -0.10308284134E+01  0.11801584967E+01  0.00000000000E+00 0.  1.
         11    1    3    3    0    0 -0.26292331234E+02 -0.21866696939E+02  0.16422427916E+02  0.37935936204E+02  0.51100000000E-03 0. -1.
        -11    1    3    3    0    0 -0.25599154346E+01 -0.41494051850E+01  0.55952325927E+01  0.74214121600E+01  0.51100000000E-03 0.  1.
        -12    1    3    3    0    0  0.29186156455E+02  0.26483724956E+02 -0.20986832096E+02  0.44650493140E+02  0.00000000000E+00 0.  1.
</event>
<event>
 7    1  0.3622165E-015  0.9000786E+02  0.7816164E-02  0.1186339E+00
        -11   -1    0    0    0    0  0.00000000000E+00  0.00000000000E+00  0.45593999997E+02  0.45594000000E+02  0.51100000000E-03 0. -1.
         11   -1    0    0    0    0 -0.00000000000E+00 -0.00000000000E+00 -0.45593999997E+02  0.45594000000E+02  0.51100000000E-03 0.  1.
    9900012    2    1    2    0    0  0.22632491744E+00  0.20611147076E+00  0.11397511161E+01  0.90007856995E+02  0.90000119907E+02 0.  0.
        -12    1    1    2    0    0 -0.22632491744E+00 -0.20611147076E+00 -0.11397511161E+01  0.11801430054E+01  0.00000000000E+00 0.  1.
         11    1    3    3    0    0 -0.50768475010E+01 -0.14726974319E+01  0.78208787913E+01  0.94397756119E+01  0.51100000000E-03 0. -1.
        -11    1    3    3    0    0  0.11959111816E+02  0.38072839989E+02 -0.15024201941E+02  0.42641390040E+02  0.51100000000E-03 0.  1.
         12    1    3    3    0    0 -0.66559393976E+01 -0.36394031087E+02  0.83430742660E+01  0.37926691343E+02  0.00000000000E+00 0. -1.
</event>
<event>
 7    1  0.3622165E-015  0.9000766E+02  0.7816164E-02  0.1186339E+00
        -11   -1    0    0    0    0  0.00000000000E+00  0.00000000000E+00  0.45593999997E+02  0.45594000000E+02  0.51100000000E-03 0.  1.
         11   -1    0    0    0    0 -0.00000000000E+00 -0.00000000000E+00 -0.45593999997E+02  0.45594000000E+02  0.51100000000E-03 0. -1.
    9900012    2    1    2    0    0 -0.83018217912E+00  0.61950729023E+00  0.56586531653E+00  0.90007663061E+02  0.89999923413E+02 0.  0.
        -12    1    1    2    0    0  0.83018217912E+00 -0.61950729023E+00 -0.56586531653E+00  0.11803369390E+01  0.00000000000E+00 0.  1.
         11    1    3    3    0    0  0.25000795733E+02 -0.65024463610E+00 -0.23468867339E+02  0.34296506233E+02  0.51100000000E-03 0. -1.
        -11    1    3    3    0    0 -0.50877694186E+01  0.34926927743E+01 -0.12329473217E+02  0.13787683291E+02  0.51100000000E-03 0.  1.
        -12    1    3    3    0    0 -0.20743208493E+02 -0.22229408480E+01  0.36364205873E+02  0.41923473536E+02  0.00000000000E+00 0.  1.
</event>
<event>
 7    1  0.3622165E-015  0.9000778E+02  0.7816164E-02  0.1186339E+00
        -11   -1    0    0    0    0  0.00000000000E+00  0.00000000000E+00  0.45593999997E+02  0.45594000000E+02  0.51100000000E-03 0.  1.
         11   -1    0    0    0    0 -0.00000000000E+00 -0.00000000000E+00 -0.45593999997E+02  0.45594000000E+02  0.51100000000E-03 0. -1.
    9900012    2    1    2    0    0  0.26567464271E-01 -0.95018923883E+00 -0.69953344685E+00  0.90007782875E+02  0.90000044809E+02 0.  0.
        -12    1    1    2    0    0 -0.26567464271E-01  0.95018923883E+00  0.69953344685E+00  0.11802171254E+01  0.00000000000E+00 0.  1.
         11    1    3    3    0    0  0.18562394280E+01 -0.42635303606E+01  0.10890803979E+02  0.11841998460E+02  0.51100000000E-03 0. -1.
        -11    1    3    3    0    0  0.14025448830E+01 -0.35350734220E+02  0.54389033832E+01  0.35794178470E+02  0.51100000000E-03 0.  1.
         12    1    3    3    0    0 -0.32322168467E+01  0.38664075342E+02 -0.17029240809E+02  0.42371605945E+02  0.00000000000E+00 0. -1.
</event>
<event>
 7    1  0.3622165E-015  0.9000757E+02  0.7816164E-02  0.1186339E+00
        -11   -1    0    0    0    0  0.00000000000E+00  0.00000000000E+00  0.45593999997E+02  0.45594000000E+02  0.51100000000E-03 0. -1.
         11   -1    0    0    0    0 -0.00000000000E+00 -0.00000000000E+00 -0.45593999997E+02  0.45594000000E+02  0.51100000000E-03 0.  1.
    9900012    2    1    2    0    0 -0.11037423358E+01  0.12772325302E+00  0.39855363215E+00  0.90007574072E+02  0.89999833250E+02 0.  0.
        -12    1    1    2    0    0  0.11037423358E+01 -0.12772325302E+00 -0.39855363215E+00  0.11804259277E+01  0.00000000000E+00 0.  1.
         11    1    3    3    0    0 -0.99423647063E+01  0.11328028918E+01  0.15548575559E+01  0.10126768518E+02  0.51100000000E-03 0. -1.
        -11    1    3    3    0    0  0.21652247708E+02  0.34528467972E+02 -0.78886732685E+01  0.41512240333E+02  0.51100000000E-03 0.  1.
         12    1    3    3    0    0 -0.12813625338E+02 -0.35533547610E+02  0.67323693447E+01  0.38368565221E+02  0.00000000000E+00 0. -1.
</event>
<event>
 7    1  0.3622165E-015  0.9000769E+02  0.7816164E-02  0.1186339E+00
        -11   -1    0    0    0    0  0.00000000000E+00  0.00000000000E+00  0.45593999997E+02  0.45594000000E+02  0.51100000000E-03 0. -1.
         11   -1    0    0    0    0 -0.00000000000E+00 -0.00000000000E+00 -0.45593999997E+02  0.45594000000E+02  0.51100000000E-03 0.  1.
    9900012    2    1    2    0    0 -0.74997071174E+00 -0.16631639765E+00  0.89610539157E+00  0.90007694071E+02  0.89999954833E+02 0.  0.
        -12    1    1    2    0    0  0.74997071174E+00  0.16631639765E+00 -0.89610539157E+00  0.11803059287E+01  0.00000000000E+00 0.  1.
         11    1    3    3    0    0 -0.26583810878E+02 -0.43042362488E+01  0.24435835422E+02  0.36363931354E+02  0.51100000000E-03 0. -1.
        -11    1    3    3    0    0 -0.89912629796E+01  0.90942786897E+01 -0.39709743289E+01  0.13390942918E+02  0.51100000000E-03 0.  1.
        -12    1    3    3    0    0  0.34825103146E+02 -0.49563588385E+01 -0.19568755702E+02  0.40252819799E+02  0.00000000000E+00 0.  1.
</event>
<event>
 7    1  0.4089290E-015  0.9000778E+02  0.7816164E-02  0.1186339E+00
        -11   -1    0    0    0    0  0.00000000000E+00  0.00000000000E+00  0.45593999997E+02  0.45594000000E+02  0.51100000000E-03 0.  1.
         11   -1    0    0    0    0 -0.00000000000E+00 -0.00000000000E+00 -0.45593999997E+02  0.45594000000E+02  0.51100000000E-03 0. -1.
    9900012    2    1    2    0    0 -0.55946929179E+00  0.11958884063E+00  0.10322887041E+01  0.90007776569E+02  0.90000038419E+02 0.  0.
        -12    1    1    2    0    0  0.55946929179E+00 -0.11958884063E+00 -0.10322887041E+01  0.11802234313E+01  0.00000000000E+00 0.  1.
         11    1    3    3    0    0  0.54108999194E+01 -0.56736305782E+01  0.58051967514E+01  0.97554206193E+01  0.51100000000E-03 0. -1.
        -11    1    3    3    0    0 -0.12972156655E+02 -0.35331805824E+02 -0.77569795081E+01  0.38428948495E+02  0.51100000000E-03 0.  1.
         12    1    3    3    0    0  0.70017874437E+01  0.41125025243E+02  0.29840714608E+01  0.41823407455E+02  0.00000000000E+00 0. -1.
</event>
<event>
 7    1  0.3622165E-015  0.9000785E+02  0.7816164E-02  0.1186339E+00
        -11   -1    0    0    0    0  0.00000000000E+00  0.00000000000E+00  0.45593999997E+02  0.45594000000E+02  0.51100000000E-03 0. -1.
         11   -1    0    0    0    0 -0.00000000000E+00 -0.00000000000E+00 -0.45593999997E+02  0.45594000000E+02  0.51100000000E-03 0.  1.
    9900012    2    1    2    0    0  0.11763286048E+01  0.69594313018E-01 -0.64584223883E-01  0.90007845994E+02  0.90000108762E+02 0.  0.
        -12    1    1    2    0    0 -0.11763286048E+01 -0.69594313018E-01  0.64584223883E-01  0.11801540055E+01  0.00000000000E+00 0.  1.
         11    1    3    3    0    0  0.76188982628E+01 -0.94639873512E+01  0.39712720951E+02  0.41529686646E+02  0.51100000000E-03 0. -1.
        -11    1    3    3    0    0 -0.56509395198E+01 -0.73851414377E+01 -0.71988557258E+01  0.11759972599E+02  0.51100000000E-03 0.  1.
        -12    1    3    3    0    0 -0.79163013826E+00  0.16918723102E+02 -0.32578449449E+02  0.36718186749E+02  0.00000000000E+00 0.  1.
</event>
<event>
 7    1  0.3622165E-015  0.9000783E+02  0.7816164E-02  0.1186339E+00
        -11   -1    0    0    0    0  0.00000000000E+00  0.00000000000E+00  0.45593999997E+02  0.45594000000E+02  0.51100000000E-03 0.  1.
         11   -1    0    0    0    0 -0.00000000000E+00 -0.00000000000E+00 -0.45593999997E+02  0.45594000000E+02  0.51100000000E-03 0. -1.
    9900012    2    1    2    0    0  0.80765438562E-01 -0.67999441865E-01 -0.11754399516E+01  0.90007827953E+02  0.90000090482E+02 0.  0.
        -12    1    1    2    0    0 -0.80765438562E-01  0.67999441865E-01  0.11754399516E+01  0.11801720467E+01  0.00000000000E+00 0.  1.
         11    1    3    3    0    0  0.30300913753E+02  0.43001893232E+01 -0.22172439611E+02  0.37792248955E+02  0.51100000000E-03 0. -1.
        -11    1    3    3    0    0 -0.43966428703E+00 -0.14379621316E+02 -0.72678308405E-01  0.14386524816E+02  0.51100000000E-03 0.  1.
        -12    1    3    3    0    0 -0.29780484028E+02  0.10011432551E+02  0.21069677968E+02  0.37829054182E+02  0.00000000000E+00 0.  1.
</event>
<event>
 7    1  0.3622165E-015  0.9000769E+02  0.7816164E-02  0.1186339E+00
        -11   -1    0    0    0    0  0.00000000000E+00  0.00000000000E+00  0.45593999997E+02  0.45594000000E+02  0.51100000000E-03 0.  1.
         11   -1    0    0    0    0 -0.00000000000E+00 -0.00000000000E+00 -0.45593999997E+02  0.45594000000E+02  0.51100000000E-03 0. -1.
    9900012    2    1    2    0    0  0.83270111962E+00  0.76354862383E+00 -0.34166959774E+00  0.90007688274E+02  0.89999948960E+02 0.  0.
        -12    1    1    2    0    0 -0.83270111962E+00 -0.76354862383E+00  0.34166959774E+00  0.11803117256E+01  0.00000000000E+00 0.  1.
         11    1    3    3    0    0 -0.27200044141E+01  0.33643422789E+01  0.87858022345E+01  0.97932397166E+01  0.51100000000E-03 0. -1.
        -11    1    3    3    0    0  0.13450435140E+01  0.15290693470E+02  0.31900127039E+02  0.35401024762E+02  0.51100000000E-03 0.  1.
         12    1    3    3    0    0  0.22076620197E+01 -0.17891487125E+02 -0.41027598871E+02  0.44813423796E+02  0.00000000000E+00 0. -1.
</event>
<event>
 7    1  0.3622165E-015  0.9000773E+02  0.7816164E-02  0.1186339E+00
        -11   -1    0    0    0    0  0.00000000000E+00  0.00000000000E+00  0.45593999997E+02  0.45594000000E+02  0.51100000000E-03 0.  1.
         11   -1    0    0    0    0 -0.00000000000E+00 -0.00000000000E+00 -0.45593999997E+02  0.45594000000E+02  0.51100000000E-03 0. -1.
    9900012    2    1    2    0    0  0.10653012733E+01  0.26865672216E+00  0.43126643505E+00  0.90007731397E+02  0.89999992651E+02 0.  0.
        -12    1    1    2    0    0 -0.10653012733E+01 -0.26865672216E+00 -0.43126643505E+00  0.11802686030E+01  0.00000000000E+00 0.  1.
         11    1    3    3    0    0 -0.44360674852E+01  0.76069257461E+00 -0.89550285118E+01  0.10022468949E+02  0.51100000000E-03 0. -1.
        -11    1    3    3    0    0 -0.25814010414E+02 -0.16833389419E+02  0.26583193662E+02  0.40698799964E+02  0.51100000000E-03 0.  1.
         12    1    3    3    0    0  0.31315379172E+02  0.16341353567E+02 -0.17196898715E+02  0.39286462484E+02  0.00000000000E+00 0. -1.
</event>
<event>
 7    1  0.3622165E-015  0.9000774E+02  0.7816164E-02  0.1186339E+00
        -11   -1    0    0    0    0  0.00000000000E+00  0.00000000000E+00  0.45593999997E+02  0.45594000000E+02  0.51100000000E-03 0.  1.
         11   -1    0    0    0    0 -0.00000000000E+00 -0.00000000000E+00 -0.45593999997E+02  0.45594000000E+02  0.51100000000E-03 0. -1.
    9900012    2    1    2    0    0 -0.22467745123E+00  0.66406375627E+00  0.94950505213E+00  0.90007737117E+02  0.89999998447E+02 0.  0.
        -12    1    1    2    0    0  0.22467745123E+00 -0.66406375627E+00 -0.94950505213E+00  0.11802628832E+01  0.00000000000E+00 0.  1.
         11    1    3    3    0    0 -0.17988467618E+02 -0.18362821581E+02  0.56050869468E+01  0.26309602497E+02  0.51100000000E-03 0. -1.
        -11    1    3    3    0    0  0.31542178851E+01 -0.77602977327E+01 -0.25437251183E+02  0.26781057847E+02  0.51100000000E-03 0.  1.
        -12    1    3    3    0    0  0.14609572281E+02  0.26787183070E+02  0.20781669288E+02  0.36917076773E+02  0.00000000000E+00 0.  1.
</event>
<event>
 7    1  0.3622165E-015  0.9000769E+02  0.7816164E-02  0.1186339E+00
        -11   -1    0    0    0    0  0.00000000000E+00  0.00000000000E+00  0.45593999997E+02  0.45594000000E+02  0.51100000000E-03 0. -1.
         11   -1    0    0    0    0 -0.00000000000E+00 -0.00000000000E+00 -0.45593999997E+02  0.45594000000E+02  0.51100000000E-03 0.  1.
    9900012    2    1    2    0    0 -0.10710840157E+01  0.48654532965E+00  0.95880799125E-01  0.90007686290E+02  0.89999946949E+02 0.  0.
        -12    1    1    2    0    0  0.10710840157E+01 -0.48654532965E+00 -0.95880799125E-01  0.11803137101E+01  0.00000000000E+00 0.  1.
         11    1    3    3    0    0 -0.38796931873E+01 -0.70981523707E+01  0.36276495829E+01  0.88654175346E+01  0.51100000000E-03 0. -1.
        -11    1    3    3    0    0  0.19300652091E+01 -0.33630002732E+02 -0.17054977855E+02  0.37756780919E+02  0.51100000000E-03 0.  1.
         12    1    3    3    0    0  0.87854396247E+00  0.41214700432E+02  0.13523209071E+02  0.43385487836E+02  0.00000000000E+00 0. -1.
</event>
<event>
 7    1  0.3622165E-015  0.9000770E+02  0.7816164E-02  0.1186339E+00
        -11   -1    0    0    0    0  0.00000000000E+00  0.00000000000E+00  0.45593999997E+02  0.45594000000E+02  0.51100000000E-03 0.  1.
         11   -1    0    0    0    0 -0.00000000000E+00 -0.00000000000E+00 -0.45593999997E+02  0.45594000000E+02  0.51100000000E-03 0. -1.
    9900012    2    1    2    0    0  0.80824186244E+00  0.55409074614E+00 -0.65790424799E+00  0.90007699418E+02  0.89999960251E+02 0.  0.
        -12    1    1    2    0    0 -0.80824186244E+00 -0.55409074614E+00  0.65790424799E+00  0.11803005815E+01  0.00000000000E+00 0.  1.
         11    1    3    3    0    0  0.13544527030E+02 -0.14096742186E+02  0.10034067793E+02  0.21973958894E+02  0.51100000000E-03 0. -1.
        -11    1    3    3    0    0  0.17435338772E+02  0.27536108406E+02  0.24673824566E+01  0.32685107935E+02  0.51100000000E-03 0.  1.
         12    1    3    3    0    0 -0.30171623940E+02 -0.12885275474E+02 -0.13159354497E+02  0.35348632590E+02  0.00000000000E+00 0. -1.
</event>
<event>
 7    1  0.3622165E-015  0.9000773E+02  0.7816164E-02  0.1186339E+00
        -11   -1    0    0    0    0  0.00000000000E+00  0.00000000000E+00  0.45593999997E+02  0.45594000000E+02  0.51100000000E-03 0. -1.
         11   -1    0    0    0    0 -0.00000000000E+00 -0.00000000000E+00 -0.45593999997E+02  0.45594000000E+02  0.51100000000E-03 0.  1.
    9900012    2    1    2    0    0  0.27374084421E+00 -0.10493796756E+01  0.46574135084E+00  0.90007725981E+02  0.89999987164E+02 0.  0.
        -12    1    1    2    0    0 -0.27374084421E+00  0.10493796756E+01 -0.46574135084E+00  0.11802740187E+01  0.00000000000E+00 0.  1.
         11    1    3    3    0    0  0.26318013864E+01 -0.94311365684E+01 -0.12792531619E+01  0.98746749021E+01  0.51100000000E-03 0. -1.
        -11    1    3    3    0    0 -0.62075940062E+01 -0.25559096786E+02 -0.25352675173E+02  0.36531627264E+02  0.51100000000E-03 0.  1.
         12    1    3    3    0    0  0.38495334640E+01  0.33940853679E+02  0.27097669686E+02  0.43601423815E+02  0.00000000000E+00 0. -1.
</event>
<event>
 7    1  0.3622165E-015  0.9000771E+02  0.7816164E-02  0.1186339E+00
        -11   -1    0    0    0    0  0.00000000000E+00  0.00000000000E+00  0.45593999997E+02  0.45594000000E+02  0.51100000000E-03 0.  1.
         11   -1    0    0    0    0 -0.00000000000E+00 -0.00000000000E+00 -0.45593999997E+02  0.45594000000E+02  0.51100000000E-03 0. -1.
    9900012    2    1    2    0    0  0.34836723004E-01 -0.10657626114E+01 -0.50599125182E+00  0.90007707372E+02  0.89999968309E+02 0.  0.
        -12    1    1    2    0    0 -0.34836723004E-01  0.10657626114E+01  0.50599125182E+00  0.11802926282E+01  0.00000000000E+00 0.  1.
         11    1    3    3    0    0  0.13489476791E+02 -0.15467160152E+02  0.52315766481E+01  0.21179433933E+02  0.51100000000E-03 0. -1.
        -11    1    3    3    0    0  0.16408065231E+02 -0.16088619215E+02 -0.11613321311E+02  0.25747572798E+02  0.51100000000E-03 0.  1.
         12    1    3    3    0    0 -0.29862705299E+02  0.30490016755E+02  0.58757534109E+01  0.43080700640E+02  0.00000000000E+00 0. -1.
</event>
<event>
 7    1  0.3622165E-015  0.9000754E+02  0.7816164E-02  0.1186339E+00
        -11   -1    0    0    0    0  0.00000000000E+00  0.00000000000E+00  0.45593999997E+02  0.45594000000E+02  0.51100000000E-03 0.  1.
         11   -1    0    0    0    0 -0.00000000000E+00 -0.00000000000E+00 -0.45593999997E+02  0.45594000000E+02  0.51100000000E-03 0. -1.
    9900012    2    1    2    0    0 -0.10720866460E+01  0.18860292051E+00 -0.45666740615E+00  0.90007539938E+02  0.89999798665E+02 0.  0.
        -12    1    1    2    0    0  0.10720866460E+01 -0.18860292051E+00  0.45666740615E+00  0.11804600620E+01  0.00000000000E+00 0.  1.
         11    1    3    3    0    0  0.85913666134E+00  0.27724802989E+01  0.81990172422E+01  0.86976230552E+01  0.51100000000E-03 0. -1.
        -11    1    3    3    0    0 -0.38608793169E+01  0.62490830966E+01  0.35492901549E+02  0.36245047790E+02  0.51100000000E-03 0.  1.
         12    1    3    3    0    0  0.19296560096E+01 -0.88329604750E+01 -0.44148586198E+02  0.45064869093E+02  0.00000000000E+00 0. -1.
</event>
<event>
 7    1  0.3622165E-015  0.9000729E+02  0.7816164E-02  0.1186340E+00
        -11   -1    0    0    0    0  0.00000000000E+00  0.00000000000E+00  0.45593999997E+02  0.45594000000E+02  0.51100000000E-03 0. -1.
         11   -1    0    0    0    0 -0.00000000000E+00 -0.00000000000E+00 -0.45593999997E+02  0.45594000000E+02  0.51100000000E-03 0.  1.
    9900012    2    1    2    0    0  0.83575592523E+00 -0.15201964387E+00  0.82004212173E+00  0.90007293847E+02  0.89999549324E+02 0.  0.
        -12    1    1    2    0    0 -0.83575592523E+00  0.15201964387E+00 -0.82004212173E+00  0.11807061532E+01  0.00000000000E+00 0.  1.
         11    1    3    3    0    0  0.80901781470E+01 -0.72526253749E+01  0.54949912649E+01  0.12175651381E+02  0.51100000000E-03 0. -1.
        -11    1    3    3    0    0  0.25932944979E+02  0.25136468898E+02 -0.14314747666E+02  0.38849346261E+02  0.51100000000E-03 0.  1.
         12    1    3    3    0    0 -0.33187367200E+02 -0.18035863167E+02  0.96397985231E+01  0.38982296205E+02  0.00000000000E+00 0. -1.
</event>
<event>
 7    1  0.3622165E-015  0.9000777E+02  0.7816164E-02  0.1186339E+00
        -11   -1    0    0    0    0  0.00000000000E+00  0.00000000000E+00  0.45593999997E+02  0.45594000000E+02  0.51100000000E-03 0. -1.
         11   -1    0    0    0    0 -0.00000000000E+00 -0.00000000000E+00 -0.45593999997E+02  0.45594000000E+02  0.51100000000E-03 0.  1.
    9900012    2    1    2    0    0  0.60802064398E+00  0.52547851426E+00  0.86436538685E+00  0.90007769389E+02  0.90000031145E+02 0.  0.
        -12    1    1    2    0    0 -0.60802064398E+00 -0.52547851426E+00 -0.86436538685E+00  0.11802306107E+01  0.00000000000E+00 0.  1.
         11    1    3    3    0    0 -0.11052974897E+02 -0.42587115062E+01  0.36283588361E+02  0.38168097443E+02  0.51100000000E-03 0. -1.
        -11    1    3    3    0    0 -0.10337169784E+02  0.72063747674E+00 -0.50619942137E+00  0.10374614963E+02  0.51100000000E-03 0.  1.
        -12    1    3    3    0    0  0.21998165326E+02  0.40635525437E+01 -0.34913023553E+02  0.41465056983E+02  0.00000000000E+00 0.  1.
</event>
<event>
 7    1  0.3622165E-015  0.9000782E+02  0.7816164E-02  0.1186339E+00
        -11   -1    0    0    0    0  0.00000000000E+00  0.00000000000E+00  0.45593999997E+02  0.45594000000E+02  0.51100000000E-03 0. -1.
         11   -1    0    0    0    0 -0.00000000000E+00 -0.00000000000E+00 -0.45593999997E+02  0.45594000000E+02  0.51100000000E-03 0.  1.
    9900012    2    1    2    0    0  0.94324722151E+00  0.60408081041E+00 -0.37173832340E+00  0.90007822756E+02  0.90000085216E+02 0.  0.
        -12    1    1    2    0    0 -0.94324722151E+00 -0.60408081041E+00  0.37173832340E+00  0.11801772441E+01  0.00000000000E+00 0.  1.
         11    1    3    3    0    0 -0.39463591307E+01 -0.38016023873E+01  0.46604663456E+01  0.71934607749E+01  0.51100000000E-03 0. -1.
        -11    1    3    3    0    0 -0.27991668989E+02  0.13127109145E+02 -0.28046248336E+02  0.41742622980E+02  0.51100000000E-03 0.  1.
         12    1    3    3    0    0  0.32881275342E+02 -0.87214259469E+01  0.23014043667E+02  0.41071739001E+02  0.00000000000E+00 0. -1.
</event>
<event>
 7    1  0.3622165E-015  0.9000780E+02  0.7816164E-02  0.1186339E+00
        -11   -1    0    0    0    0  0.00000000000E+00  0.00000000000E+00  0.45593999997E+02  0.45594000000E+02  0.51100000000E-03 0. -1.
         11   -1    0    0    0    0 -0.00000000000E+00 -0.00000000000E+00 -0.45593999997E+02  0.45594000000E+02  0.51100000000E-03 0.  1.
    9900012    2    1    2    0    0  0.11463063437E+01  0.15062494649E+00  0.23697376208E+00  0.90007803969E+02  0.90000066181E+02 0.  0.
        -12    1    1    2    0    0 -0.11463063437E+01 -0.15062494649E+00 -0.23697376208E+00  0.11801960312E+01  0.00000000000E+00 0.  1.
         11    1    3    3    0    0  0.35099756679E+01 -0.56861848901E+01 -0.62463435175E+01  0.91470998351E+01  0.51100000000E-03 0. -1.
        -11    1    3    3    0    0 -0.84666744584E+01 -0.10147082354E+02 -0.34233192996E+02  0.36695495086E+02  0.51100000000E-03 0.  1.
         12    1    3    3    0    0  0.61030051342E+01  0.15983892190E+02  0.40716510275E+02  0.44165209048E+02  0.00000000000E+00 0. -1.
</event>
<event>
 7    1  0.3622165E-015  0.9000757E+02  0.7816164E-02  0.1186339E+00
        -11   -1    0    0    0    0  0.00000000000E+00  0.00000000000E+00  0.45593999997E+02  0.45594000000E+02  0.51100000000E-03 0.  1.
         11   -1    0    0    0    0 -0.00000000000E+00 -0.00000000000E+00 -0.45593999997E+02  0.45594000000E+02  0.51100000000E-03 0. -1.
    9900012    2    1    2    0    0  0.42254163141E+00 -0.22930075724E+00 -0.10780975171E+01  0.90007570195E+02  0.89999829322E+02 0.  0.
        -12    1    1    2    0    0 -0.42254163141E+00  0.22930075724E+00  0.10780975171E+01  0.11804298047E+01  0.00000000000E+00 0.  1.
         11    1    3    3    0    0 -0.35463158074E+02 -0.65302900450E+01 -0.43714959228E+01  0.36323411810E+02  0.51100000000E-03 0. -1.
        -11    1    3    3    0    0 -0.44440465837E+01 -0.62104826831E+01 -0.68481012062E+01  0.10257491681E+02  0.51100000000E-03 0.  1.
        -12    1    3    3    0    0  0.40329746289E+02  0.12511471971E+02  0.10141499612E+02  0.43426666704E+02  0.00000000000E+00 0.  1.
</event>
<event>
 7    1  0.3622165E-015  0.9000781E+02  0.7816164E-02  0.1186339E+00
        -11   -1    0    0    0    0  0.00000000000E+00  0.00000000000E+00  0.45593999997E+02  0.45594000000E+02  0.51100000000E-03 0. -1.
         11   -1    0    0    0    0 -0.00000000000E+00 -0.00000000000E+00 -0.45593999997E+02  0.45594000000E+02  0.51100000000E-03 0.  1.
    9900012    2    1    2    0    0  0.35899803375E+00 -0.86778279636E+00  0.71479151703E+00  0.90007807862E+02  0.90000070126E+02 0.  0.
        -12    1    1    2    0    0 -0.35899803375E+00  0.86778279636E+00 -0.71479151703E+00  0.11801921381E+01  0.00000000000E+00 0.  1.
         11    1    3    3    0    0  0.82431414987E+01  0.38261212658E+01 -0.85337982174E+00  0.91278060393E+01  0.51100000000E-03 0. -1.
        -11    1    3    3    0    0  0.23715374784E+02  0.25565634850E+02 -0.86991795755E+01  0.35940178241E+02  0.51100000000E-03 0.  1.
         12    1    3    3    0    0 -0.31599518249E+02 -0.30259538912E+02  0.10267350914E+02  0.44939823582E+02  0.00000000000E+00 0. -1.
</event>
<event>
 8    1  0.3622165E-015  0.9000779E+02  0.7816164E-02  0.1186339E+00
        -11   -1    0    0    0    0  0.00000000000E+00  0.00000000000E+00  0.45593999997E+02  0.45594000000E+02  0.51100000000E-03 0.  1.
         11   -1    0    0    0    0 -0.00000000000E+00 -0.00000000000E+00 -0.45593999997E+02  0.45594000000E+02  0.51100000000E-03 0. -1.
    9900012    2    1    2    0    0 -0.10098301441E+01  0.57917181710E+00 -0.19414104506E+00  0.90007793383E+02  0.90000055456E+02 0.  0.
         23    2    3    3    0    0 -0.90789875340E+01  0.40456630522E+01 -0.19919462444E+02  0.68415753953E+02  0.64692619368E+02 0.  0.
        -12    1    1    2    0    0  0.10098301441E+01 -0.57917181710E+00  0.19414104506E+00  0.11802066171E+01  0.00000000000E+00 0.  1.
         11    1    4    4    0    0 -0.23179051054E+02 -0.18598533311E+02 -0.27703137498E+02  0.40628040521E+02  0.51100000000E-03 0. -1.
        -11    1    4    4    0    0  0.14100063520E+02  0.22644196363E+02  0.77836750545E+01  0.27787713432E+02  0.51100000000E-03 0.  1.
        -12    1    3    3    0    0  0.80691573900E+01 -0.34664912351E+01  0.19725321399E+02  0.21592039430E+02  0.00000000000E+00 0.  1.
</event>
<event>
 7    1  0.4078620E-015  0.9000861E+02  0.7816164E-02  0.1186337E+00
        -11   -1    0    0    0    0  0.00000000000E+00  0.00000000000E+00  0.45593999997E+02  0.45594000000E+02  0.51100000000E-03 0.  1.
         11   -1    0    0    0    0 -0.00000000000E+00 -0.00000000000E+00 -0.45593999997E+02  0.45594000000E+02  0.51100000000E-03 0. -1.
    9900012    2    1    2    0    0 -0.10634790480E+01 -0.45970445027E+00  0.22054309825E+00  0.90008612394E+02  0.90000885273E+02 0.  0.
        -12    1    1    2    0    0  0.10634790480E+01  0.45970445027E+00 -0.22054309825E+00  0.11793876060E+01  0.00000000000E+00 0.  1.
         11    1    3    3    0    0  0.32748367305E+02  0.25584806200E+02  0.64427439292E+00  0.41562638983E+02  0.51100000000E-03 0. -1.
        -11    1    3    3    0    0 -0.40660053779E+01 -0.32135742965E+01  0.84500242911E+01  0.99127377789E+01  0.51100000000E-03 0.  1.
        -12    1    3    3    0    0 -0.29745840975E+02 -0.22830936354E+02 -0.88737555858E+01  0.38533235632E+02  0.00000000000E+00 0.  1.
</event>
<event>
 7    1  0.3622165E-015  0.9000776E+02  0.7816164E-02  0.1186339E+00
        -11   -1    0    0    0    0  0.00000000000E+00  0.00000000000E+00  0.45593999997E+02  0.45594000000E+02  0.51100000000E-03 0.  1.
         11   -1    0    0    0    0 -0.00000000000E+00 -0.00000000000E+00 -0.45593999997E+02  0.45594000000E+02  0.51100000000E-03 0. -1.
    9900012    2    1    2    0    0 -0.14389254515E+00  0.11279348188E+01 -0.31626486350E+00  0.90007760413E+02  0.90000022050E+02 0.  0.
        -12    1    1    2    0    0  0.14389254515E+00 -0.11279348188E+01  0.31626486350E+00  0.11802395875E+01  0.00000000000E+00 0.  1.
         11    1    3    3    0    0 -0.25164437409E+02  0.14196267420E+02 -0.37369105644E+00  0.28895026632E+02  0.51100000000E-03 0. -1.
        -11    1    3    3    0    0 -0.12983275615E+02 -0.31638867503E+01 -0.14042845863E+02  0.19384972150E+02  0.51100000000E-03 0.  1.
        -12    1    3    3    0    0  0.38003820479E+02 -0.99044458513E+01  0.14100272056E+02  0.41727761630E+02  0.00000000000E+00 0.  1.
</event>
<event>
 7    1  0.3622165E-015  0.9000772E+02  0.7816164E-02  0.1186339E+00
        -11   -1    0    0    0    0  0.00000000000E+00  0.00000000000E+00  0.45593999997E+02  0.45594000000E+02  0.51100000000E-03 0.  1.
         11   -1    0    0    0    0 -0.00000000000E+00 -0.00000000000E+00 -0.45593999997E+02  0.45594000000E+02  0.51100000000E-03 0. -1.
    9900012    2    1    2    0    0  0.40837642012E+00  0.86593750835E+00 -0.69024359155E+00  0.90007722370E+02  0.89999983505E+02 0.  0.
        -12    1    1    2    0    0 -0.40837642012E+00 -0.86593750835E+00  0.69024359155E+00  0.11802776303E+01  0.00000000000E+00 0.  1.
         11    1    3    3    0    0 -0.22670766997E+02 -0.34470438135E+02 -0.65373822039E+01  0.41772145597E+02  0.51100000000E-03 0. -1.
        -11    1    3    3    0    0  0.74695849413E+01  0.90609643271E+00  0.71913302464E+01  0.10408215069E+02  0.51100000000E-03 0.  1.
        -12    1    3    3    0    0  0.15609558475E+02  0.34430279211E+02 -0.13441916340E+01  0.37827361704E+02  0.00000000000E+00 0.  1.
</event>
<event>
 7    1  0.3622165E-015  0.9000770E+02  0.7816164E-02  0.1186339E+00
        -11   -1    0    0    0    0  0.00000000000E+00  0.00000000000E+00  0.45593999997E+02  0.45594000000E+02  0.51100000000E-03 0.  1.
         11   -1    0    0    0    0 -0.00000000000E+00 -0.00000000000E+00 -0.45593999997E+02  0.45594000000E+02  0.51100000000E-03 0. -1.
    9900012    2    1    2    0    0 -0.50584665407E-01  0.11788908718E+01 -0.27594382451E-01  0.90007701756E+02  0.89999962619E+02 0.  0.
        -12    1    1    2    0    0  0.50584665407E-01 -0.11788908718E+01  0.27594382451E-01  0.11802982445E+01  0.00000000000E+00 0.  1.
         11    1    3    3    0    0  0.25721562012E+02 -0.12751478481E+02 -0.12762776643E+02  0.31417947478E+02  0.51100000000E-03 0. -1.
        -11    1    3    3    0    0  0.84127793391E+01  0.16559988621E+02  0.15500600752E+02  0.24192492705E+02  0.51100000000E-03 0.  1.
        -12    1    3    3    0    0 -0.34184926017E+02 -0.26296192678E+01 -0.27654184923E+01  0.34397261573E+02  0.00000000000E+00 0.  1.
</event>
<event>
 7    1  0.3622165E-015  0.9000757E+02  0.7816164E-02  0.1186339E+00
        -11   -1    0    0    0    0  0.00000000000E+00  0.00000000000E+00  0.45593999997E+02  0.45594000000E+02  0.51100000000E-03 0.  1.
         11   -1    0    0    0    0 -0.00000000000E+00 -0.00000000000E+00 -0.45593999997E+02  0.45594000000E+02  0.51100000000E-03 0. -1.
    9900012    2    1    2    0    0  0.69461446727E+00  0.41136385641E+00 -0.86122948353E+00  0.90007565460E+02  0.89999824524E+02 0.  0.
        -12    1    1    2    0    0 -0.69461446727E+00 -0.41136385641E+00  0.86122948353E+00  0.11804345402E+01  0.00000000000E+00 0.  1.
         11    1    3    3    0    0 -0.71233660701E+01 -0.66295278355E+01 -0.32496764148E+01  0.10259307021E+02  0.51100000000E-03 0. -1.
        -11    1    3    3    0    0 -0.33798496898E+02 -0.64660363674E+01 -0.67080320002E+01  0.35059174440E+02  0.51100000000E-03 0.  1.
         12    1    3    3    0    0  0.41616477435E+02  0.13506928059E+02  0.90964789314E+01  0.44689083999E+02  0.00000000000E+00 0. -1.
</event>
<event>
 7    1  0.3622165E-015  0.9000851E+02  0.7816164E-02  0.1186337E+00
        -11   -1    0    0    0    0  0.00000000000E+00  0.00000000000E+00  0.45593999997E+02  0.45594000000E+02  0.51100000000E-03 0. -1.
         11   -1    0    0    0    0 -0.00000000000E+00 -0.00000000000E+00 -0.45593999997E+02  0.45594000000E+02  0.51100000000E-03 0.  1.
    9900012    2    1    2    0    0  0.11473810985E+01  0.13169317300E-01 -0.27300079370E+00  0.90008514413E+02  0.90000786000E+02 0.  0.
        -12    1    1    2    0    0 -0.11473810985E+01 -0.13169317300E-01  0.27300079370E+00  0.11794855868E+01  0.00000000000E+00 0.  1.
         11    1    3    3    0    0 -0.10553595562E+02  0.19391118612E+02  0.28184221182E+02  0.35801455057E+02  0.51100000000E-03 0. -1.
        -11    1    3    3    0    0 -0.48698689363E+01  0.87502706119E+01  0.12192693775E+01  0.10088085909E+02  0.51100000000E-03 0.  1.
        -12    1    3    3    0    0  0.16570845597E+02 -0.28128219907E+02 -0.29676491353E+02  0.44118973446E+02  0.00000000000E+00 0.  1.
</event>
<event>
 7    1  0.3622165E-015  0.9000800E+02  0.7816164E-02  0.1186339E+00
        -11   -1    0    0    0    0  0.00000000000E+00  0.00000000000E+00  0.45593999997E+02  0.45594000000E+02  0.51100000000E-03 0. -1.
         11   -1    0    0    0    0 -0.00000000000E+00 -0.00000000000E+00 -0.45593999997E+02  0.45594000000E+02  0.51100000000E-03 0.  1.
    9900012    2    1    2    0    0 -0.45509442116E+00 -0.68838279669E-01  0.10865288772E+01  0.90008002270E+02  0.90000267100E+02 0.  0.
        -12    1    1    2    0    0  0.45509442116E+00  0.68838279669E-01 -0.10865288772E+01  0.11799977296E+01  0.00000000000E+00 0.  1.
         11    1    3    3    0    0  0.22322244306E+02  0.28284203087E+02  0.18886182518E+02  0.40681281021E+02  0.51100000000E-03 0. -1.
        -11    1    3    3    0    0  0.30962824464E+01 -0.64661935005E+01 -0.13341190940E+02  0.15145494358E+02  0.51100000000E-03 0.  1.
        -12    1    3    3    0    0 -0.25873621174E+02 -0.21886847866E+02 -0.44584627012E+01  0.34181226892E+02  0.00000000000E+00 0.  1.
</event>
<event>
 7    1  0.3622165E-015  0.9000778E+02  0.7816164E-02  0.1186339E+00
        -11   -1    0    0    0    0  0.00000000000E+00  0.00000000000E+00  0.45593999997E+02  0.45594000000E+02  0.51100000000E-03 0. -1.
         11   -1    0    0    0    0 -0.00000000000E+00 -0.00000000000E+00 -0.45593999997E+02  0.45594000000E+02  0.51100000000E-03 0.  1.
    9900012    2    1    2    0    0  0.81010646292E+00 -0.80247141360E+00  0.30443617925E+00  0.90007782123E+02  0.90000044047E+02 0.  0.
        -12    1    1    2    0    0 -0.81010646292E+00  0.80247141360E+00 -0.30443617925E+00  0.11802178774E+01  0.00000000000E+00 0.  1.
         11    1    3    3    0    0 -0.14835477192E+02  0.37376276651E+01  0.33442771159E+02  0.36776081727E+02  0.51100000000E-03 0. -1.
        -11    1    3    3    0    0 -0.26001855961E+01  0.98262396971E+01  0.27092364888E+01  0.10519311495E+02  0.51100000000E-03 0.  1.
        -12    1    3    3    0    0  0.18245769251E+02 -0.14366338776E+02 -0.35847571469E+02  0.42712388901E+02  0.00000000000E+00 0.  1.
</event>
<event>
 7    1  0.3622165E-015  0.9000770E+02  0.7816164E-02  0.1186339E+00
        -11   -1    0    0    0    0  0.00000000000E+00  0.00000000000E+00  0.45593999997E+02  0.45594000000E+02  0.51100000000E-03 0.  1.
         11   -1    0    0    0    0 -0.00000000000E+00 -0.00000000000E+00 -0.45593999997E+02  0.45594000000E+02  0.51100000000E-03 0. -1.
    9900012    2    1    2    0    0  0.11667609442E+00 -0.16429091003E+00 -0.11629710932E+01  0.90007700641E+02  0.89999961489E+02 0.  0.
        -12    1    1    2    0    0 -0.11667609442E+00  0.16429091003E+00  0.11629710932E+01  0.11802993594E+01  0.00000000000E+00 0.  1.
         11    1    3    3    0    0 -0.10041725637E+02 -0.37096876737E+02 -0.98743859607E+01  0.39680196771E+02  0.51100000000E-03 0. -1.
        -11    1    3    3    0    0  0.11452175137E+01  0.17545421472E+01 -0.94819116442E+01  0.97106431295E+01  0.51100000000E-03 0.  1.
        -12    1    3    3    0    0  0.90131842177E+01  0.35178043679E+02  0.18193326512E+02  0.40616860741E+02  0.00000000000E+00 0.  1.
</event>
<event>
 7    1  0.3622165E-015  0.9000777E+02  0.7816164E-02  0.1186339E+00
        -11   -1    0    0    0    0  0.00000000000E+00  0.00000000000E+00  0.45593999997E+02  0.45594000000E+02  0.51100000000E-03 0. -1.
         11   -1    0    0    0    0 -0.00000000000E+00 -0.00000000000E+00 -0.45593999997E+02  0.45594000000E+02  0.51100000000E-03 0.  1.
    9900012    2    1    2    0    0 -0.10340889660E+01 -0.28027555076E+00  0.49501879544E+00  0.90007772064E+02  0.90000033855E+02 0.  0.
        -12    1    1    2    0    0  0.10340889660E+01  0.28027555076E+00 -0.49501879544E+00  0.11802279363E+01  0.00000000000E+00 0.  1.
         11    1    3    3    0    0  0.14130430529E+02  0.24396118018E+02  0.19595625335E+02  0.34334067248E+02  0.51100000000E-03 0. -1.
        -11    1    3    3    0    0  0.54808703451E+01  0.77317461667E+01  0.45918379195E+01  0.10531135469E+02  0.51100000000E-03 0.  1.
        -12    1    3    3    0    0 -0.20645389840E+02 -0.32408139735E+02 -0.23692444459E+02  0.45142569346E+02  0.00000000000E+00 0.  1.
</event>
<event>
 7    1  0.3622165E-015  0.9000773E+02  0.7816164E-02  0.1186339E+00
        -11   -1    0    0    0    0  0.00000000000E+00  0.00000000000E+00  0.45593999997E+02  0.45594000000E+02  0.51100000000E-03 0.  1.
         11   -1    0    0    0    0 -0.00000000000E+00 -0.00000000000E+00 -0.45593999997E+02  0.45594000000E+02  0.51100000000E-03 0. -1.
    9900012    2    1    2    0    0 -0.23109599328E+00 -0.35883500102E+00 -0.11003911614E+01  0.90007733664E+02  0.89999994948E+02 0.  0.
        -12    1    1    2    0    0  0.23109599328E+00  0.35883500102E+00  0.11003911614E+01  0.11802663361E+01  0.00000000000E+00 0.  1.
         11    1    3    3    0    0  0.64192094405E+01  0.17112295058E+01  0.63183859548E+01  0.91682363406E+01  0.51100000000E-03 0. -1.
        -11    1    3    3    0    0  0.22473213644E+02  0.20363112907E+02  0.18804286132E+02  0.35683369739E+02  0.51100000000E-03 0.  1.
         12    1    3    3    0    0 -0.29123519077E+02 -0.22433177413E+02 -0.26223063248E+02  0.45156127585E+02  0.00000000000E+00 0. -1.
</event>
<event>
 7    1  0.3622165E-015  0.9000800E+02  0.7816164E-02  0.1186339E+00
        -11   -1    0    0    0    0  0.00000000000E+00  0.00000000000E+00  0.45593999997E+02  0.45594000000E+02  0.51100000000E-03 0. -1.
         11   -1    0    0    0    0 -0.00000000000E+00 -0.00000000000E+00 -0.45593999997E+02  0.45594000000E+02  0.51100000000E-03 0.  1.
    9900012    2    1    2    0    0 -0.73121474071E+00 -0.82502414140E+00  0.42078851665E+00  0.90007998811E+02  0.90000263595E+02 0.  0.
        -12    1    1    2    0    0  0.73121474071E+00  0.82502414140E+00 -0.42078851665E+00  0.11800011893E+01  0.00000000000E+00 0.  1.
         11    1    3    3    0    0  0.71424655260E+01  0.50733343897E+01 -0.29976414879E+01  0.92595567049E+01  0.51100000000E-03 0. -1.
        -11    1    3    3    0    0  0.27971372959E+02  0.86837968774E+01  0.23129491713E+02  0.37319960083E+02  0.51100000000E-03 0.  1.
         12    1    3    3    0    0 -0.35845053226E+02 -0.14582155408E+02 -0.19711061709E+02  0.43428482023E+02  0.00000000000E+00 0. -1.
</event>
<event>
 7    1  0.3622165E-015  0.9000760E+02  0.7816164E-02  0.1186339E+00
        -11   -1    0    0    0    0  0.00000000000E+00  0.00000000000E+00  0.45593999997E+02  0.45594000000E+02  0.51100000000E-03 0.  1.
         11   -1    0    0    0    0 -0.00000000000E+00 -0.00000000000E+00 -0.45593999997E+02  0.45594000000E+02  0.51100000000E-03 0. -1.
    9900012    2    1    2    0    0 -0.33408713687E+00 -0.55730992993E+00 -0.98545615419E+00  0.90007604979E+02  0.89999864565E+02 0.  0.
        -12    1    1    2    0    0  0.33408713687E+00  0.55730992993E+00  0.98545615419E+00  0.11803950207E+01  0.00000000000E+00 0.  1.
         11    1    3    3    0    0  0.17516165391E+02 -0.49284604431E+00 -0.34327252789E+02  0.38541136874E+02  0.51100000000E-03 0. -1.
        -11    1    3    3    0    0  0.15093262829E+01 -0.11951347401E+02  0.11987946900E+01  0.12105778764E+02  0.51100000000E-03 0.  1.
        -12    1    3    3    0    0 -0.19359578811E+02  0.11886883515E+02  0.32143001945E+02  0.39360689341E+02  0.00000000000E+00 0.  1.
</event>
<event>
 7    1  0.3622165E-015  0.9000785E+02  0.7816164E-02  0.1186339E+00
        -11   -1    0    0    0    0  0.00000000000E+00  0.00000000000E+00  0.45593999997E+02  0.45594000000E+02  0.51100000000E-03 0. -1.
         11   -1    0    0    0    0 -0.00000000000E+00 -0.00000000000E+00 -0.45593999997E+02  0.45594000000E+02  0.51100000000E-03 0.  1.
    9900012    2    1    2    0    0  0.49247451405E+00  0.39131072061E-01  0.10717729713E+01  0.90007847599E+02  0.90000110387E+02 0.  0.
        -12    1    1    2    0    0 -0.49247451405E+00 -0.39131072061E-01 -0.10717729713E+01  0.11801524011E+01  0.00000000000E+00 0.  1.
         11    1    3    3    0    0  0.70346483626E+01 -0.60455430872E+01 -0.49389303627E+01  0.10508468118E+02  0.51100000000E-03 0. -1.
        -11    1    3    3    0    0 -0.68356940479E+01 -0.29423544538E+02 -0.19341297445E+02  0.35868614043E+02  0.51100000000E-03 0.  1.
         12    1    3    3    0    0  0.29352019934E+00  0.35508218697E+02  0.25352000779E+02  0.43630765437E+02  0.00000000000E+00 0. -1.
</event>
<event>
 7    1  0.3622165E-015  0.9000756E+02  0.7816164E-02  0.1186339E+00
        -11   -1    0    0    0    0  0.00000000000E+00  0.00000000000E+00  0.45593999997E+02  0.45594000000E+02  0.51100000000E-03 0. -1.
         11   -1    0    0    0    0 -0.00000000000E+00 -0.00000000000E+00 -0.45593999997E+02  0.45594000000E+02  0.51100000000E-03 0.  1.
    9900012    2    1    2    0    0  0.46421167438E+00 -0.10448135090E+01  0.29378211666E+00  0.90007561234E+02  0.89999820243E+02 0.  0.
        -12    1    1    2    0    0 -0.46421167438E+00  0.10448135090E+01 -0.29378211666E+00  0.11804387656E+01  0.00000000000E+00 0.  1.
         11    1    3    3    0    0  0.76532477850E+01  0.48181387984E+00 -0.39082073697E+01  0.86068827911E+01  0.51100000000E-03 0. -1.
        -11    1    3    3    0    0  0.32064503052E+02 -0.12133991622E+02 -0.13768597196E+02  0.36945099508E+02  0.51100000000E-03 0.  1.
         12    1    3    3    0    0 -0.39253539163E+02  0.10607364233E+02  0.17970586682E+02  0.44455578935E+02  0.00000000000E+00 0. -1.
</event>
<event>
 7    1  0.3622165E-015  0.9000813E+02  0.7816164E-02  0.1186338E+00
        -11   -1    0    0    0    0  0.00000000000E+00  0.00000000000E+00  0.45593999997E+02  0.45594000000E+02  0.51100000000E-03 0. -1.
         11   -1    0    0    0    0 -0.00000000000E+00 -0.00000000000E+00 -0.45593999997E+02  0.45594000000E+02  0.51100000000E-03 0.  1.
    9900012    2    1    2    0    0  0.76709259506E+00  0.89583102981E+00  0.33733505024E-01  0.90008134655E+02  0.90000401231E+02 0.  0.
        -12    1    1    2    0    0 -0.76709259506E+00 -0.89583102981E+00 -0.33733505024E-01  0.11798653452E+01  0.00000000000E+00 0.  1.
         11    1    3    3    0    0  0.33307387479E+02 -0.17691040437E+02  0.10633265589E+02  0.39184452399E+02  0.51100000000E-03 0. -1.
        -11    1    3    3    0    0 -0.26162110277E+01 -0.83286550675E+01  0.13628854414E+01  0.88356387636E+01  0.51100000000E-03 0.  1.
        -12    1    3    3    0    0 -0.29924083856E+02  0.26915526535E+02 -0.11962417526E+02  0.41988043493E+02  0.00000000000E+00 0.  1.
</event>
<event>
 7    1  0.3622165E-015  0.9000774E+02  0.7816164E-02  0.1186339E+00
        -11   -1    0    0    0    0  0.00000000000E+00  0.00000000000E+00  0.45593999997E+02  0.45594000000E+02  0.51100000000E-03 0.  1.
         11   -1    0    0    0    0 -0.00000000000E+00 -0.00000000000E+00 -0.45593999997E+02  0.45594000000E+02  0.51100000000E-03 0. -1.
    9900012    2    1    2    0    0 -0.82146036962E+00 -0.84226591370E+00  0.93788361617E-01  0.90007743560E+02  0.90000004975E+02 0.  0.
        -12    1    1    2    0    0  0.82146036962E+00  0.84226591370E+00 -0.93788361617E-01  0.11802564404E+01  0.00000000000E+00 0.  1.
         11    1    3    3    0    0 -0.36192836253E+01 -0.89216724718E+00 -0.13015411915E+02  0.13538689890E+02  0.51100000000E-03 0. -1.
        -11    1    3    3    0    0  0.10758705089E+02 -0.26466518680E+02  0.32041713290E+02  0.42928984813E+02  0.51100000000E-03 0.  1.
         12    1    3    3    0    0 -0.79608818334E+01  0.26516420013E+02 -0.18932513014E+02  0.33540068857E+02  0.00000000000E+00 0. -1.
</event>
<event>
 7    1  0.3622165E-015  0.9000776E+02  0.7816164E-02  0.1186339E+00
        -11   -1    0    0    0    0  0.00000000000E+00  0.00000000000E+00  0.45593999997E+02  0.45594000000E+02  0.51100000000E-03 0.  1.
         11   -1    0    0    0    0 -0.00000000000E+00 -0.00000000000E+00 -0.45593999997E+02  0.45594000000E+02  0.51100000000E-03 0. -1.
    9900012    2    1    2    0    0 -0.45723773089E+00 -0.61424802769E-01 -0.10863371456E+01  0.90007759456E+02  0.90000021080E+02 0.  0.
        -12    1    1    2    0    0  0.45723773089E+00  0.61424802769E-01  0.10863371456E+01  0.11802405445E+01  0.00000000000E+00 0.  1.
         11    1    3    3    0    0 -0.11376078902E+02 -0.79855015145E+00 -0.78239739395E+00  0.11430879208E+02  0.51100000000E-03 0. -1.
        -11    1    3    3    0    0 -0.33519591907E+02 -0.28583947642E+00  0.46888218479E+01  0.33847153446E+02  0.51100000000E-03 0.  1.
         12    1    3    3    0    0  0.44438433077E+02  0.10229648251E+01 -0.49927615996E+01  0.44729726802E+02  0.00000000000E+00 0. -1.
</event>
<event>
 7    1  0.3622165E-015  0.9000770E+02  0.7816164E-02  0.1186339E+00
        -11   -1    0    0    0    0  0.00000000000E+00  0.00000000000E+00  0.45593999997E+02  0.45594000000E+02  0.51100000000E-03 0.  1.
         11   -1    0    0    0    0 -0.00000000000E+00 -0.00000000000E+00 -0.45593999997E+02  0.45594000000E+02  0.51100000000E-03 0. -1.
    9900012    2    1    2    0    0  0.57116508425E+00  0.76235272677E+00 -0.69692481059E+00  0.90007696893E+02  0.89999957692E+02 0.  0.
        -12    1    1    2    0    0 -0.57116508425E+00 -0.76235272677E+00  0.69692481059E+00  0.11803031073E+01  0.00000000000E+00 0.  1.
         11    1    3    3    0    0  0.10829706488E+02 -0.69633343976E+01 -0.36331863682E+02  0.38545750575E+02  0.51100000000E-03 0. -1.
        -11    1    3    3    0    0 -0.65829314474E+01 -0.49170926663E+01 -0.43979169972E+01  0.93195740732E+01  0.51100000000E-03 0.  1.
        -12    1    3    3    0    0 -0.36756099568E+01  0.12642779791E+02  0.40032855868E+02  0.42142372244E+02  0.00000000000E+00 0.  1.
</event>
<event>
 7    1  0.3622165E-015  0.9000756E+02  0.7816164E-02  0.1186339E+00
        -11   -1    0    0    0    0  0.00000000000E+00  0.00000000000E+00  0.45593999997E+02  0.45594000000E+02  0.51100000000E-03 0.  1.
         11   -1    0    0    0    0 -0.00000000000E+00 -0.00000000000E+00 -0.45593999997E+02  0.45594000000E+02  0.51100000000E-03 0. -1.
    9900012    2    1    2    0    0 -0.65626501013E+00  0.97114711665E+00  0.14012069533E+00  0.90007557585E+02  0.89999816545E+02 0.  0.
        -12    1    1    2    0    0  0.65626501013E+00 -0.97114711665E+00 -0.14012069533E+00  0.11804424149E+01  0.00000000000E+00 0.  1.
         11    1    3    3    0    0 -0.32931881042E+02  0.76996939723E+01 -0.56201755003E+01  0.34283821974E+02  0.51100000000E-03 0. -1.
        -11    1    3    3    0    0 -0.16644317419E+01  0.69678193050E+00 -0.15094736880E+02  0.15202201151E+02  0.51100000000E-03 0.  1.
        -12    1    3    3    0    0  0.33940047774E+02 -0.74253287862E+01  0.20855033076E+02  0.40521534461E+02  0.00000000000E+00 0.  1.
</event>
<event>
 7    1  0.3622165E-015  0.9000767E+02  0.7816164E-02  0.1186339E+00
        -11   -1    0    0    0    0  0.00000000000E+00  0.00000000000E+00  0.45593999997E+02  0.45594000000E+02  0.51100000000E-03 0.  1.
         11   -1    0    0    0    0 -0.00000000000E+00 -0.00000000000E+00 -0.45593999997E+02  0.45594000000E+02  0.51100000000E-03 0. -1.
    9900012    2    1    2    0    0  0.56051790285E-01 -0.10773765191E+01  0.47883915974E+00  0.90007674237E+02  0.89999934736E+02 0.  0.
        -12    1    1    2    0    0 -0.56051790285E-01  0.10773765191E+01 -0.47883915974E+00  0.11803257635E+01  0.00000000000E+00 0.  1.
         11    1    3    3    0    0  0.18729134113E+02  0.53456662081E+01 -0.32755580932E+02  0.38108853227E+02  0.51100000000E-03 0. -1.
        -11    1    3    3    0    0  0.43234902709E+01 -0.12947607079E+02  0.41827292783E+01  0.14276845648E+02  0.51100000000E-03 0.  1.
        -12    1    3    3    0    0 -0.22996572593E+02  0.65245643514E+01  0.29051690813E+02  0.37621975362E+02  0.00000000000E+00 0.  1.
</event>
<event>
 7    1  0.3622165E-015  0.9000770E+02  0.7816164E-02  0.1186339E+00
        -11   -1    0    0    0    0  0.00000000000E+00  0.00000000000E+00  0.45593999997E+02  0.45594000000E+02  0.51100000000E-03 0.  1.
         11   -1    0    0    0    0 -0.00000000000E+00 -0.00000000000E+00 -0.45593999997E+02  0.45594000000E+02  0.51100000000E-03 0. -1.
    9900012    2    1    2    0    0 -0.10394831410E+01 -0.10309702170E+00 -0.54949513177E+00  0.90007703810E+02  0.89999964700E+02 0.  0.
        -12    1    1    2    0    0  0.10394831410E+01  0.10309702170E+00  0.54949513177E+00  0.11802961900E+01  0.00000000000E+00 0.  1.
         11    1    3    3    0    0  0.24144054633E+02 -0.15427320818E+02 -0.20738390971E+02  0.35369739356E+02  0.51100000000E-03 0. -1.
        -11    1    3    3    0    0  0.62985557090E+01 -0.40504991377E+00 -0.75405059436E+01  0.98333666462E+01  0.51100000000E-03 0.  1.
        -12    1    3    3    0    0 -0.31482093483E+02  0.15729273710E+02  0.27729401782E+02  0.44804597808E+02  0.00000000000E+00 0.  1.
</event>
<event>
 7    1  0.3622165E-015  0.9000773E+02  0.7816164E-02  0.1186339E+00
        -11   -1    0    0    0    0  0.00000000000E+00  0.00000000000E+00  0.45593999997E+02  0.45594000000E+02  0.51100000000E-03 0.  1.
         11   -1    0    0    0    0 -0.00000000000E+00 -0.00000000000E+00 -0.45593999997E+02  0.45594000000E+02  0.51100000000E-03 0. -1.
    9900012    2    1    2    0    0 -0.45360023975E+00  0.10484007111E+01 -0.29688620357E+00  0.90007729418E+02  0.89999990646E+02 0.  0.
        -12    1    1    2    0    0  0.45360023975E+00 -0.10484007111E+01  0.29688620357E+00  0.11802705818E+01  0.00000000000E+00 0.  1.
         11    1    3    3    0    0  0.16879975559E+02 -0.22421611319E+02 -0.22163791050E+02  0.35761653527E+02  0.51100000000E-03 0. -1.
        -11    1    3    3    0    0 -0.50938743007E+01  0.18230718596E+02 -0.87545668202E+01  0.20855433258E+02  0.51100000000E-03 0.  1.
        -12    1    3    3    0    0 -0.12239701498E+02  0.52392934339E+01  0.30621471667E+02  0.33390642633E+02  0.00000000000E+00 0.  1.
</event>
<event>
 7    1  0.3622165E-015  0.9000770E+02  0.7816164E-02  0.1186339E+00
        -11   -1    0    0    0    0  0.00000000000E+00  0.00000000000E+00  0.45593999997E+02  0.45594000000E+02  0.51100000000E-03 0.  1.
         11   -1    0    0    0    0 -0.00000000000E+00 -0.00000000000E+00 -0.45593999997E+02  0.45594000000E+02  0.51100000000E-03 0. -1.
    9900012    2    1    2    0    0 -0.24176904388E+00  0.10746459057E+01 -0.42400553729E+00  0.90007704787E+02  0.89999965691E+02 0.  0.
        -12    1    1    2    0    0  0.24176904388E+00 -0.10746459057E+01  0.42400553729E+00  0.11802952126E+01  0.00000000000E+00 0.  1.
         11    1    3    3    0    0  0.42167072016E+01  0.13760471853E+01  0.10161806030E+02  0.11087670067E+02  0.51100000000E-03 0. -1.
        -11    1    3    3    0    0 -0.69528031869E+01 -0.12039200883E+01  0.33762740812E+02  0.34492224677E+02  0.51100000000E-03 0.  1.
         12    1    3    3    0    0  0.24943269414E+01  0.90251880870E+00 -0.44348552379E+02  0.44427810043E+02  0.00000000000E+00 0. -1.
</event>
<event>
 7    1  0.3622165E-015  0.9000775E+02  0.7816164E-02  0.1186339E+00
        -11   -1    0    0    0    0  0.00000000000E+00  0.00000000000E+00  0.45593999997E+02  0.45594000000E+02  0.51100000000E-03 0. -1.
         11   -1    0    0    0    0 -0.00000000000E+00 -0.00000000000E+00 -0.45593999997E+02  0.45594000000E+02  0.51100000000E-03 0.  1.
    9900012    2    1    2    0    0 -0.92126665954E+00 -0.71833000562E+00 -0.16808785290E+00  0.90007752661E+02  0.90000014196E+02 0.  0.
        -12    1    1    2    0    0  0.92126665954E+00  0.71833000562E+00  0.16808785290E+00  0.11802473390E+01  0.00000000000E+00 0.  1.
         11    1    3    3    0    0 -0.16943265097E+02 -0.20219520434E+02 -0.19122695157E+02  0.32581907695E+02  0.51100000000E-03 0. -1.
        -11    1    3    3    0    0 -0.84658243209E+01 -0.87470601159E+01 -0.48523243857E+01  0.13104437962E+02  0.51100000000E-03 0.  1.
        -12    1    3    3    0    0  0.24487822759E+02  0.28248250544E+02  0.23806931690E+02  0.44321407003E+02  0.00000000000E+00 0.  1.
</event>
<event>
 7    1  0.3622165E-015  0.9000789E+02  0.7816164E-02  0.1186339E+00
        -11   -1    0    0    0    0  0.00000000000E+00  0.00000000000E+00  0.45593999997E+02  0.45594000000E+02  0.51100000000E-03 0.  1.
         11   -1    0    0    0    0 -0.00000000000E+00 -0.00000000000E+00 -0.45593999997E+02  0.45594000000E+02  0.51100000000E-03 0. -1.
    9900012    2    1    2    0    0  0.17404006130E+00  0.40709761608E+00 -0.10939155172E+01  0.90007885781E+02  0.90000149073E+02 0.  0.
        -12    1    1    2    0    0 -0.17404006130E+00 -0.40709761608E+00  0.10939155172E+01  0.11801142193E+01  0.00000000000E+00 0.  1.
         11    1    3    3    0    0  0.60949426712E+01 -0.57862020975E+01  0.42097590357E+01  0.93994963843E+01  0.51100000000E-03 0. -1.
        -11    1    3    3    0    0  0.12249743523E+02 -0.54839848697E+01  0.33560915206E+02  0.36145059637E+02  0.51100000000E-03 0.  1.
         12    1    3    3    0    0 -0.18170646133E+02  0.11677284583E+02 -0.38864589759E+02  0.44463329759E+02  0.00000000000E+00 0. -1.
</event>
<event>
 7    1  0.3622165E-015  0.9000881E+02  0.7816164E-02  0.1186337E+00
        -11   -1    0    0    0    0  0.00000000000E+00  0.00000000000E+00  0.45593999997E+02  0.45594000000E+02  0.51100000000E-03 0. -1.
         11   -1    0    0    0    0 -0.00000000000E+00 -0.00000000000E+00 -0.45593999997E+02  0.45594000000E+02  0.51100000000E-03 0.  1.
    9900012    2    1    2    0    0 -0.38788564731E+00 -0.11076919494E+01  0.11420446725E+00  0.90008814098E+02  0.90001089638E+02 0.  0.
        -12    1    1    2    0    0  0.38788564731E+00  0.11076919494E+01 -0.11420446725E+00  0.11791859016E+01  0.00000000000E+00 0.  1.
         11    1    3    3    0    0  0.58010917656E+01 -0.10350622899E+02 -0.11013225852E+02  0.16188860491E+02  0.51100000000E-03 0. -1.
        -11    1    3    3    0    0 -0.33071653813E+02 -0.11069930477E+02  0.18279248405E+02  0.39375227862E+02  0.51100000000E-03 0.  1.
         12    1    3    3    0    0  0.26882676400E+02  0.20312861426E+02 -0.71518180857E+01  0.34444725745E+02  0.00000000000E+00 0. -1.
</event>
<event>
 7    1  0.3622165E-015  0.9000776E+02  0.7816164E-02  0.1186339E+00
        -11   -1    0    0    0    0  0.00000000000E+00  0.00000000000E+00  0.45593999997E+02  0.45594000000E+02  0.51100000000E-03 0.  1.
         11   -1    0    0    0    0 -0.00000000000E+00 -0.00000000000E+00 -0.45593999997E+02  0.45594000000E+02  0.51100000000E-03 0. -1.
    9900012    2    1    2    0    0 -0.52193717948E+00  0.78136107630E+00 -0.71416088446E+00  0.90007758787E+02  0.90000020403E+02 0.  0.
        -12    1    1    2    0    0  0.52193717948E+00 -0.78136107630E+00  0.71416088446E+00  0.11802412125E+01  0.00000000000E+00 0.  1.
         11    1    3    3    0    0  0.50618171138E+01 -0.26854883245E+01  0.85215128814E+01  0.10268886117E+02  0.51100000000E-03 0. -1.
        -11    1    3    3    0    0  0.30056122013E+02 -0.20353920163E+02 -0.30516079376E+01  0.36427528707E+02  0.51100000000E-03 0.  1.
         12    1    3    3    0    0 -0.35639876306E+02  0.23820769564E+02 -0.61840658283E+01  0.43311343963E+02  0.00000000000E+00 0. -1.
</event>
<event>
 7    1  0.3622165E-015  0.9000771E+02  0.7816164E-02  0.1186339E+00
        -11   -1    0    0    0    0  0.00000000000E+00  0.00000000000E+00  0.45593999997E+02  0.45594000000E+02  0.51100000000E-03 0.  1.
         11   -1    0    0    0    0 -0.00000000000E+00 -0.00000000000E+00 -0.45593999997E+02  0.45594000000E+02  0.51100000000E-03 0. -1.
    9900012    2    1    2    0    0 -0.18951014734E+00 -0.30218459232E+00 -0.11251072336E+01  0.90007705159E+02  0.89999966067E+02 0.  0.
        -12    1    1    2    0    0  0.18951014734E+00  0.30218459232E+00  0.11251072336E+01  0.11802948406E+01  0.00000000000E+00 0.  1.
         11    1    3    3    0    0 -0.20557570431E+02 -0.30556914931E+02 -0.22367404195E+02  0.43088740093E+02  0.51100000000E-03 0. -1.
        -11    1    3    3    0    0  0.98838551166E+01  0.70540054767E+00  0.19323093805E+01  0.10095642709E+02  0.51100000000E-03 0.  1.
        -12    1    3    3    0    0  0.10484205167E+02  0.29549329791E+02  0.19309987581E+02  0.36823322358E+02  0.00000000000E+00 0.  1.
</event>
<event>
 7    1  0.3622165E-015  0.9000774E+02  0.7816164E-02  0.1186339E+00
        -11   -1    0    0    0    0  0.00000000000E+00  0.00000000000E+00  0.45593999997E+02  0.45594000000E+02  0.51100000000E-03 0.  1.
         11   -1    0    0    0    0 -0.00000000000E+00 -0.00000000000E+00 -0.45593999997E+02  0.45594000000E+02  0.51100000000E-03 0. -1.
    9900012    2    1    2    0    0  0.53145734599E+00  0.69051365871E+00 -0.79608850542E+00  0.90007740312E+02  0.90000001684E+02 0.  0.
        -12    1    1    2    0    0 -0.53145734599E+00 -0.69051365871E+00  0.79608850542E+00  0.11802596883E+01  0.00000000000E+00 0.  1.
         11    1    3    3    0    0 -0.20467903153E+02 -0.25497322595E+02  0.10199336590E+02  0.34250182279E+02  0.51100000000E-03 0. -1.
        -11    1    3    3    0    0 -0.83072354121E+01 -0.50469633067E+01  0.38095478484E+01  0.10440050473E+02  0.51100000000E-03 0.  1.
        -12    1    3    3    0    0  0.29306595911E+02  0.31234799561E+02 -0.14804972944E+02  0.45317507559E+02  0.00000000000E+00 0.  1.
</event>
<event>
 7    1  0.3622165E-015  0.9000803E+02  0.7816164E-02  0.1186338E+00
        -11   -1    0    0    0    0  0.00000000000E+00  0.00000000000E+00  0.45593999997E+02  0.45594000000E+02  0.51100000000E-03 0.  1.
         11   -1    0    0    0    0 -0.00000000000E+00 -0.00000000000E+00 -0.45593999997E+02  0.45594000000E+02  0.51100000000E-03 0. -1.
    9900012    2    1    2    0    0  0.10118237661E+01 -0.16090144490E+00 -0.58536626340E+00  0.90008029547E+02  0.90000294736E+02 0.  0.
        -12    1    1    2    0    0 -0.10118237661E+01  0.16090144490E+00  0.58536626340E+00  0.11799704535E+01  0.00000000000E+00 0.  1.
         11    1    3    3    0    0  0.11884728141E+00  0.52017154384E+01 -0.70589394614E+01  0.87692984188E+01  0.51100000000E-03 0. -1.
        -11    1    3    3    0    0  0.40344300671E+02 -0.57555213521E+01 -0.23148549517E+01  0.40818466120E+02  0.51100000000E-03 0.  1.
         12    1    3    3    0    0 -0.39451324186E+02  0.39290446888E+00  0.87884281497E+01  0.40420265008E+02  0.00000000000E+00 0. -1.
</event>
<event>
 7    1  0.3622165E-015  0.9000744E+02  0.7816164E-02  0.1186340E+00
        -11   -1    0    0    0    0  0.00000000000E+00  0.00000000000E+00  0.45593999997E+02  0.45594000000E+02  0.51100000000E-03 0.  1.
         11   -1    0    0    0    0 -0.00000000000E+00 -0.00000000000E+00 -0.45593999997E+02  0.45594000000E+02  0.51100000000E-03 0. -1.
    9900012    2    1    2    0    0 -0.91927869527E+00 -0.73324935203E+00  0.10485518764E+00  0.90007439734E+02  0.89999697138E+02 0.  0.
        -12    1    1    2    0    0  0.91927869527E+00  0.73324935203E+00 -0.10485518764E+00  0.11805602662E+01  0.00000000000E+00 0.  1.
         11    1    3    3    0    0 -0.20797814159E+02 -0.22184164014E+02  0.27494738588E+02  0.40995693153E+02  0.51100000000E-03 0. -1.
        -11    1    3    3    0    0  0.12164613910E+01 -0.63815247038E+01 -0.79664531947E+01  0.10279494765E+02  0.51100000000E-03 0.  1.
        -12    1    3    3    0    0  0.18662074073E+02  0.27832439366E+02 -0.19423430206E+02  0.38732251816E+02  0.00000000000E+00 0.  1.
</event>
<event>
 7    1  0.3622165E-015  0.9000764E+02  0.7816164E-02  0.1186339E+00
        -11   -1    0    0    0    0  0.00000000000E+00  0.00000000000E+00  0.45593999997E+02  0.45594000000E+02  0.51100000000E-03 0.  1.
         11   -1    0    0    0    0 -0.00000000000E+00 -0.00000000000E+00 -0.45593999997E+02  0.45594000000E+02  0.51100000000E-03 0. -1.
    9900012    2    1    2    0    0  0.77127804003E+00 -0.11853198181E+00 -0.88563064296E+00  0.90007635107E+02  0.89999895090E+02 0.  0.
        -12    1    1    2    0    0 -0.77127804003E+00  0.11853198181E+00  0.88563064296E+00  0.11803648934E+01  0.00000000000E+00 0.  1.
         11    1    3    3    0    0 -0.18138908694E+02  0.30813151589E+02  0.64164192175E+01  0.36326859970E+02  0.51100000000E-03 0. -1.
        -11    1    3    3    0    0  0.15403845099E+02  0.48899918877E+01  0.25561099617E+01  0.16362278659E+02  0.51100000000E-03 0.  1.
        -12    1    3    3    0    0  0.35063416349E+01 -0.35821675458E+02 -0.98581598221E+01  0.37318496478E+02  0.00000000000E+00 0.  1.
</event>
<event>
 7    1  0.3622165E-015  0.9000770E+02  0.7816164E-02  0.1186339E+00
        -11   -1    0    0    0    0  0.00000000000E+00  0.00000000000E+00  0.45593999997E+02  0.45594000000E+02  0.51100000000E-03 0.  1.
         11   -1    0    0    0    0 -0.00000000000E+00 -0.00000000000E+00 -0.45593999997E+02  0.45594000000E+02  0.51100000000E-03 0. -1.
    9900012    2    1    2    0    0 -0.11522296630E+01  0.24450784379E+00  0.75455113730E-01  0.90007698871E+02  0.89999959696E+02 0.  0.
        -12    1    1    2    0    0  0.11522296630E+01 -0.24450784379E+00 -0.75455113730E-01  0.11803011294E+01  0.00000000000E+00 0.  1.
         11    1    3    3    0    0 -0.27704468016E+02  0.25091815982E+02 -0.16479449335E+02  0.40849835104E+02  0.51100000000E-03 0. -1.
        -11    1    3    3    0    0 -0.52285072186E+01 -0.98271441552E+01  0.37236415982E+01  0.11737783308E+02  0.51100000000E-03 0.  1.
        -12    1    3    3    0    0  0.31780745572E+02 -0.15020163983E+02  0.12831262851E+02  0.37420080459E+02  0.00000000000E+00 0.  1.
</event>
<event>
 7    1  0.3622165E-015  0.9000779E+02  0.7816164E-02  0.1186339E+00
        -11   -1    0    0    0    0  0.00000000000E+00  0.00000000000E+00  0.45593999997E+02  0.45594000000E+02  0.51100000000E-03 0. -1.
         11   -1    0    0    0    0 -0.00000000000E+00 -0.00000000000E+00 -0.45593999997E+02  0.45594000000E+02  0.51100000000E-03 0.  1.
    9900012    2    1    2    0    0 -0.13612021285E+00  0.88679465452E+00  0.76679033798E+00  0.90007787776E+02  0.90000049774E+02 0.  0.
        -12    1    1    2    0    0  0.13612021285E+00 -0.88679465452E+00 -0.76679033798E+00  0.11802122242E+01  0.00000000000E+00 0.  1.
         11    1    3    3    0    0  0.17751757798E+01  0.78751476427E+00 -0.14999382013E+02  0.15124578989E+02  0.51100000000E-03 0. -1.
        -11    1    3    3    0    0 -0.36445004320E+01  0.19988195391E+02 -0.23358953062E+02  0.30958860231E+02  0.51100000000E-03 0.  1.
         12    1    3    3    0    0  0.17332044393E+01 -0.19888915501E+02  0.39125125413E+02  0.43924348556E+02  0.00000000000E+00 0. -1.
</event>
<event>
 7    1  0.3622165E-015  0.9000777E+02  0.7816164E-02  0.1186339E+00
        -11   -1    0    0    0    0  0.00000000000E+00  0.00000000000E+00  0.45593999997E+02  0.45594000000E+02  0.51100000000E-03 0.  1.
         11   -1    0    0    0    0 -0.00000000000E+00 -0.00000000000E+00 -0.45593999997E+02  0.45594000000E+02  0.51100000000E-03 0. -1.
    9900012    2    1    2    0    0  0.11444967025E+01  0.24722387078E+00 -0.14815563192E+00  0.90007770177E+02  0.90000031943E+02 0.  0.
        -12    1    1    2    0    0 -0.11444967025E+01 -0.24722387078E+00  0.14815563192E+00  0.11802298232E+01  0.00000000000E+00 0.  1.
         11    1    3    3    0    0  0.97957532737E+00  0.68290742079E+01  0.73115914351E+01  0.10052621148E+02  0.51100000000E-03 0. -1.
        -11    1    3    3    0    0 -0.94122900364E+01 -0.10440447708E+02  0.34231012292E+02  0.37004815293E+02  0.51100000000E-03 0.  1.
         12    1    3    3    0    0  0.95772114115E+01  0.38585973707E+01 -0.41690759359E+02  0.42950333736E+02  0.00000000000E+00 0. -1.
</event>
<event>
 7    1  0.3622165E-015  0.9000765E+02  0.7816164E-02  0.1186339E+00
        -11   -1    0    0    0    0  0.00000000000E+00  0.00000000000E+00  0.45593999997E+02  0.45594000000E+02  0.51100000000E-03 0.  1.
         11   -1    0    0    0    0 -0.00000000000E+00 -0.00000000000E+00 -0.45593999997E+02  0.45594000000E+02  0.51100000000E-03 0. -1.
    9900012    2    1    2    0    0 -0.25049542436E+00 -0.84462518486E+00 -0.78554536774E+00  0.90007652091E+02  0.89999912299E+02 0.  0.
        -12    1    1    2    0    0  0.25049542436E+00  0.84462518486E+00  0.78554536774E+00  0.11803479086E+01  0.00000000000E+00 0.  1.
         11    1    3    3    0    0  0.34224229190E+02  0.54900367232E+00 -0.15997888879E+02  0.37782690713E+02  0.51100000000E-03 0. -1.
        -11    1    3    3    0    0  0.46440200003E-02  0.33167569877E+01 -0.91582630318E+01  0.97403634687E+01  0.51100000000E-03 0.  1.
        -12    1    3    3    0    0 -0.34479368634E+02 -0.47103858449E+01  0.24370606543E+02  0.42484597909E+02  0.00000000000E+00 0.  1.
</event>
<event>
 7    1  0.3622165E-015  0.9000771E+02  0.7816164E-02  0.1186339E+00
        -11   -1    0    0    0    0  0.00000000000E+00  0.00000000000E+00  0.45593999997E+02  0.45594000000E+02  0.51100000000E-03 0.  1.
         11   -1    0    0    0    0 -0.00000000000E+00 -0.00000000000E+00 -0.45593999997E+02  0.45594000000E+02  0.51100000000E-03 0. -1.
    9900012    2    1    2    0    0  0.80466330817E+00  0.30883162715E+00 -0.80636397142E+00  0.90007710685E+02  0.89999971666E+02 0.  0.
        -12    1    1    2    0    0 -0.80466330817E+00 -0.30883162715E+00  0.80636397142E+00  0.11802893153E+01  0.00000000000E+00 0.  1.
         11    1    3    3    0    0  0.11466923003E+02 -0.54342303254E+01 -0.35240393284E+02  0.37455393489E+02  0.51100000000E-03 0. -1.
        -11    1    3    3    0    0 -0.59101357741E+01 -0.90367820443E+01 -0.36719615725E+01  0.11405105727E+02  0.51100000000E-03 0.  1.
        -12    1    3    3    0    0 -0.47521239211E+01  0.14779843997E+02  0.38105990885E+02  0.41147211469E+02  0.00000000000E+00 0.  1.
</event>
<event>
 7    1  0.3622165E-015  0.9000776E+02  0.7816164E-02  0.1186339E+00
        -11   -1    0    0    0    0  0.00000000000E+00  0.00000000000E+00  0.45593999997E+02  0.45594000000E+02  0.51100000000E-03 0.  1.
         11   -1    0    0    0    0 -0.00000000000E+00 -0.00000000000E+00 -0.45593999997E+02  0.45594000000E+02  0.51100000000E-03 0. -1.
    9900012    2    1    2    0    0  0.11564801774E+01  0.15647047517E+00  0.17616490424E+00  0.90007761260E+02  0.90000022908E+02 0.  0.
        -12    1    1    2    0    0 -0.11564801774E+01 -0.15647047517E+00 -0.17616490424E+00  0.11802387402E+01  0.00000000000E+00 0.  1.
         11    1    3    3    0    0 -0.31979838040E+01  0.28222090995E+01 -0.91547259677E+01  0.10099553080E+02  0.51100000000E-03 0. -1.
        -11    1    3    3    0    0  0.53627044272E+01 -0.24626252468E+02  0.36876004288E+02  0.44665989320E+02  0.51100000000E-03 0.  1.
         12    1    3    3    0    0 -0.10082404458E+01  0.21960513843E+02 -0.27545113416E+02  0.35242218860E+02  0.00000000000E+00 0. -1.
</event>
<event>
 7    1  0.3622165E-015  0.9000774E+02  0.7816164E-02  0.1186339E+00
        -11   -1    0    0    0    0  0.00000000000E+00  0.00000000000E+00  0.45593999997E+02  0.45594000000E+02  0.51100000000E-03 0.  1.
         11   -1    0    0    0    0 -0.00000000000E+00 -0.00000000000E+00 -0.45593999997E+02  0.45594000000E+02  0.51100000000E-03 0. -1.
    9900012    2    1    2    0    0 -0.54083105229E+00 -0.34746721848E+00 -0.98983415470E+00  0.90007744371E+02  0.90000005797E+02 0.  0.
        -12    1    1    2    0    0  0.54083105229E+00  0.34746721848E+00  0.98983415470E+00  0.11802556286E+01  0.00000000000E+00 0.  1.
         11    1    3    3    0    0 -0.64804332776E+01  0.55764286689E+01  0.52114530850E+01  0.10012582868E+02  0.51100000000E-03 0. -1.
        -11    1    3    3    0    0  0.62815643744E+01  0.36629790206E+02 -0.17110441566E+01  0.37203860739E+02  0.51100000000E-03 0.  1.
         12    1    3    3    0    0 -0.34196214908E+00 -0.42553686093E+02 -0.44902430831E+01  0.42791300765E+02  0.00000000000E+00 0. -1.
</event>
<event>
 7    1  0.3622165E-015  0.9000769E+02  0.7816164E-02  0.1186339E+00
        -11   -1    0    0    0    0  0.00000000000E+00  0.00000000000E+00  0.45593999997E+02  0.45594000000E+02  0.51100000000E-03 0.  1.
         11   -1    0    0    0    0 -0.00000000000E+00 -0.00000000000E+00 -0.45593999997E+02  0.45594000000E+02  0.51100000000E-03 0. -1.
    9900012    2    1    2    0    0  0.57723349689E+00  0.98667762258E+00  0.29393011555E+00  0.90007692348E+02  0.89999953087E+02 0.  0.
        -12    1    1    2    0    0 -0.57723349689E+00 -0.98667762258E+00 -0.29393011555E+00  0.11803076521E+01  0.00000000000E+00 0.  1.
         11    1    3    3    0    0 -0.36117886672E+01  0.38874912674E+01 -0.82560560043E+01  0.98142787171E+01  0.51100000000E-03 0. -1.
        -11    1    3    3    0    0 -0.37123238497E+02  0.48954982871E+01  0.86055064437E+00  0.37454522927E+02  0.51100000000E-03 0.  1.
        -12    1    3    3    0    0  0.41312260661E+02 -0.77963119319E+01  0.76894354755E+01  0.42738890704E+02  0.00000000000E+00 0.  1.
</event>
<event>
 7    1  0.3622165E-015  0.9000772E+02  0.7816164E-02  0.1186339E+00
        -11   -1    0    0    0    0  0.00000000000E+00  0.00000000000E+00  0.45593999997E+02  0.45594000000E+02  0.51100000000E-03 0. -1.
         11   -1    0    0    0    0 -0.00000000000E+00 -0.00000000000E+00 -0.45593999997E+02  0.45594000000E+02  0.51100000000E-03 0.  1.
    9900012    2    1    2    0    0  0.17251595441E-01  0.96373388240E+00 -0.68116003340E+00  0.90007720540E+02  0.89999981651E+02 0.  0.
        -12    1    1    2    0    0 -0.17251595441E-01 -0.96373388240E+00  0.68116003340E+00  0.11802794604E+01  0.00000000000E+00 0.  1.
         11    1    3    3    0    0  0.41320282908E+02  0.23761691644E+00  0.40734953844E+01  0.41521266916E+02  0.51100000000E-03 0. -1.
        -11    1    3    3    0    0 -0.39507134359E+01 -0.81045180700E+01  0.26483200007E+01  0.93970712931E+01  0.51100000000E-03 0.  1.
        -12    1    3    3    0    0 -0.37352317877E+02  0.88306350360E+01 -0.74029754184E+01  0.39089382330E+02  0.00000000000E+00 0.  1.
</event>
<event>
 7    1  0.3622165E-015  0.9000716E+02  0.7816164E-02  0.1186340E+00
        -11   -1    0    0    0    0  0.00000000000E+00  0.00000000000E+00  0.45593999997E+02  0.45594000000E+02  0.51100000000E-03 0. -1.
         11   -1    0    0    0    0 -0.00000000000E+00 -0.00000000000E+00 -0.45593999997E+02  0.45594000000E+02  0.51100000000E-03 0.  1.
    9900012    2    1    2    0    0 -0.59228038374E+00  0.92551195518E+00  0.43244851596E+00  0.90007161251E+02  0.89999414978E+02 0.  0.
        -12    1    1    2    0    0  0.59228038374E+00 -0.92551195518E+00 -0.43244851596E+00  0.11808387490E+01  0.00000000000E+00 0.  1.
         11    1    3    3    0    0 -0.15566148967E+02  0.26590676526E+02 -0.14071044319E+02  0.33872752475E+02  0.51100000000E-03 0. -1.
        -11    1    3    3    0    0  0.12541610086E+02  0.23658837534E+01 -0.11972761068E+02  0.17499611348E+02  0.51100000000E-03 0.  1.
        -12    1    3    3    0    0  0.24322584964E+01 -0.28031048324E+02  0.26476253903E+02  0.38634797428E+02  0.00000000000E+00 0.  1.
</event>
<event>
 7    1  0.3622165E-015  0.9000726E+02  0.7816164E-02  0.1186340E+00
        -11   -1    0    0    0    0  0.00000000000E+00  0.00000000000E+00  0.45593999997E+02  0.45594000000E+02  0.51100000000E-03 0.  1.
         11   -1    0    0    0    0 -0.00000000000E+00 -0.00000000000E+00 -0.45593999997E+02  0.45594000000E+02  0.51100000000E-03 0. -1.
    9900012    2    1    2    0    0  0.33604343041E+00 -0.92242196109E+00 -0.65601460277E+00  0.90007261832E+02  0.89999516887E+02 0.  0.
        -12    1    1    2    0    0 -0.33604343041E+00  0.92242196109E+00  0.65601460277E+00  0.11807381676E+01  0.00000000000E+00 0.  1.
         11    1    3    3    0    0 -0.25422089292E+01  0.24489753023E+01 -0.90876342554E+01  0.97491231858E+01  0.51100000000E-03 0. -1.
        -11    1    3    3    0    0 -0.30650496411E+02 -0.24427901714E+02 -0.22235341060E+01  0.39257093838E+02  0.51100000000E-03 0.  1.
         12    1    3    3    0    0  0.33528748770E+02  0.21056504451E+02  0.10655153759E+02  0.41001044809E+02  0.00000000000E+00 0. -1.
</event>
<event>
 7    1  0.3814193E-015  0.9000778E+02  0.7816164E-02  0.1186339E+00
        -11   -1    0    0    0    0  0.00000000000E+00  0.00000000000E+00  0.45593999997E+02  0.45594000000E+02  0.51100000000E-03 0. -1.
         11   -1    0    0    0    0 -0.00000000000E+00 -0.00000000000E+00 -0.45593999997E+02  0.45594000000E+02  0.51100000000E-03 0.  1.
    9900012    2    1    2    0    0  0.39737087839E+00  0.10701184944E+01  0.29976024006E+00  0.90007782474E+02  0.90000044403E+02 0.  0.
        -12    1    1    2    0    0 -0.39737087839E+00 -0.10701184944E+01 -0.29976024006E+00  0.11802175259E+01  0.00000000000E+00 0.  1.
         11    1    3    3    0    0  0.26717465649E+02 -0.21265769283E+02  0.20811201526E+02  0.39989523917E+02  0.51100000000E-03 0. -1.
        -11    1    3    3    0    0  0.38180528574E+01  0.79643129784E+01  0.28352994214E+01  0.92761377691E+01  0.51100000000E-03 0.  1.
        -12    1    3    3    0    0 -0.30138147628E+02  0.14371574798E+02 -0.23346740708E+02  0.40742120788E+02  0.00000000000E+00 0.  1.
</event>
<event>
 7    1  0.3622165E-015  0.9000780E+02  0.7816164E-02  0.1186339E+00
        -11   -1    0    0    0    0  0.00000000000E+00  0.00000000000E+00  0.45593999997E+02  0.45594000000E+02  0.51100000000E-03 0.  1.
         11   -1    0    0    0    0 -0.00000000000E+00 -0.00000000000E+00 -0.45593999997E+02  0.45594000000E+02  0.51100000000E-03 0. -1.
    9900012    2    1    2    0    0  0.11792625930E+01 -0.52769612667E-02 -0.46783239767E-01  0.90007797991E+02  0.90000060125E+02 0.  0.
        -12    1    1    2    0    0 -0.11792625930E+01  0.52769612667E-02  0.46783239767E-01  0.11802020086E+01  0.00000000000E+00 0.  1.
         11    1    3    3    0    0  0.22627216550E+02  0.19345193787E+02 -0.27396869807E+02  0.40457581823E+02  0.51100000000E-03 0. -1.
        -11    1    3    3    0    0  0.67650359101E+01 -0.49632103478E+01  0.11922713748E+01  0.84747082023E+01  0.51100000000E-03 0.  1.
        -12    1    3    3    0    0 -0.28212989867E+02 -0.14387260400E+02  0.26157815193E+02  0.41075507966E+02  0.00000000000E+00 0.  1.
</event>
<event>
 7    1  0.3622165E-015  0.9000770E+02  0.7816164E-02  0.1186339E+00
        -11   -1    0    0    0    0  0.00000000000E+00  0.00000000000E+00  0.45593999997E+02  0.45594000000E+02  0.51100000000E-03 0.  1.
         11   -1    0    0    0    0 -0.00000000000E+00 -0.00000000000E+00 -0.45593999997E+02  0.45594000000E+02  0.51100000000E-03 0. -1.
    9900012    2    1    2    0    0  0.10642629259E+01  0.30526036498E+00  0.40899805960E+00  0.90007695430E+02  0.89999956209E+02 0.  0.
        -12    1    1    2    0    0 -0.10642629259E+01 -0.30526036498E+00 -0.40899805960E+00  0.11803045703E+01  0.00000000000E+00 0.  1.
         11    1    3    3    0    0 -0.34186560753E+02  0.16026905640E+02 -0.76505883735E+01  0.38524202045E+02  0.51100000000E-03 0. -1.
        -11    1    3    3    0    0  0.41955462992E+01  0.86548781208E+01 -0.36756394828E+01  0.10296594092E+02  0.51100000000E-03 0.  1.
        -12    1    3    3    0    0  0.31055277379E+02 -0.24376523396E+02  0.11735225916E+02  0.41186899292E+02  0.00000000000E+00 0.  1.
</event>
<event>
 7    1  0.3622165E-015  0.9000794E+02  0.7816164E-02  0.1186339E+00
        -11   -1    0    0    0    0  0.00000000000E+00  0.00000000000E+00  0.45593999997E+02  0.45594000000E+02  0.51100000000E-03 0.  1.
         11   -1    0    0    0    0 -0.00000000000E+00 -0.00000000000E+00 -0.45593999997E+02  0.45594000000E+02  0.51100000000E-03 0. -1.
    9900012    2    1    2    0    0 -0.11301116604E+01  0.22946398556E+00  0.25045142247E+00  0.90007944069E+02  0.90000208130E+02 0.  0.
        -12    1    1    2    0    0  0.11301116604E+01 -0.22946398556E+00 -0.25045142247E+00  0.11800559311E+01  0.00000000000E+00 0.  1.
         11    1    3    3    0    0  0.26259060416E+02  0.27493976426E+02  0.22657132714E+01  0.38086617735E+02  0.51100000000E-03 0. -1.
        -11    1    3    3    0    0  0.58849590730E+01 -0.37725343138E+01  0.73329814097E+01  0.10131010564E+02  0.51100000000E-03 0.  1.
        -12    1    3    3    0    0 -0.33274131149E+02 -0.23491978127E+02 -0.93482432586E+01  0.41790315769E+02  0.00000000000E+00 0.  1.
</event>
<event>
 7    1  0.3622165E-015  0.9000742E+02  0.7816164E-02  0.1186340E+00
        -11   -1    0    0    0    0  0.00000000000E+00  0.00000000000E+00  0.45593999997E+02  0.45594000000E+02  0.51100000000E-03 0. -1.
         11   -1    0    0    0    0 -0.00000000000E+00 -0.00000000000E+00 -0.45593999997E+02  0.45594000000E+02  0.51100000000E-03 0.  1.
    9900012    2    1    2    0    0  0.68867856896E+00  0.93033424144E+00  0.23229230988E+00  0.90007424001E+02  0.89999681197E+02 0.  0.
        -12    1    1    2    0    0 -0.68867856896E+00 -0.93033424144E+00 -0.23229230988E+00  0.11805759990E+01  0.00000000000E+00 0.  1.
         11    1    3    3    0    0 -0.16408366232E+01 -0.54136648288E+00  0.84966180545E+01  0.86705213868E+01  0.51100000000E-03 0. -1.
        -11    1    3    3    0    0  0.31836971566E+02  0.25236859453E+02 -0.14097858419E+02  0.43002807418E+02  0.51100000000E-03 0.  1.
         12    1    3    3    0    0 -0.29507456374E+02 -0.23765158729E+02  0.58335326748E+01  0.38334095196E+02  0.00000000000E+00 0. -1.
</event>
<event>
 7    1  0.3622165E-015  0.9000771E+02  0.7816164E-02  0.1186339E+00
        -11   -1    0    0    0    0  0.00000000000E+00  0.00000000000E+00  0.45593999997E+02  0.45594000000E+02  0.51100000000E-03 0.  1.
         11   -1    0    0    0    0 -0.00000000000E+00 -0.00000000000E+00 -0.45593999997E+02  0.45594000000E+02  0.51100000000E-03 0. -1.
    9900012    2    1    2    0    0 -0.96951587854E+00  0.43623019232E+00 -0.51266543582E+00  0.90007710346E+02  0.89999971322E+02 0.  0.
        -12    1    1    2    0    0  0.96951587854E+00 -0.43623019232E+00  0.51266543582E+00  0.11802896545E+01  0.00000000000E+00 0.  1.
         11    1    3    3    0    0  0.85156403396E+01 -0.25025147141E+01  0.37597707583E+01  0.96392212706E+01  0.51100000000E-03 0. -1.
        -11    1    3    3    0    0  0.21565547872E+02  0.28031940067E+02  0.11869328270E+02  0.37306078229E+02  0.51100000000E-03 0.  1.
         12    1    3    3    0    0 -0.31050704090E+02 -0.25093195161E+02 -0.16141764464E+02  0.43062410846E+02  0.00000000000E+00 0. -1.
</event>
<event>
 7    1  0.3622165E-015  0.9000772E+02  0.7816164E-02  0.1186339E+00
        -11   -1    0    0    0    0  0.00000000000E+00  0.00000000000E+00  0.45593999997E+02  0.45594000000E+02  0.51100000000E-03 0. -1.
         11   -1    0    0    0    0 -0.00000000000E+00 -0.00000000000E+00 -0.45593999997E+02  0.45594000000E+02  0.51100000000E-03 0.  1.
    9900012    2    1    2    0    0  0.75117196867E+00 -0.25886713024E+00  0.87281009035E+00  0.90007716572E+02  0.89999977630E+02 0.  0.
        -12    1    1    2    0    0 -0.75117196867E+00  0.25886713024E+00 -0.87281009035E+00  0.11802834284E+01  0.00000000000E+00 0.  1.
         11    1    3    3    0    0  0.68950816419E+01 -0.35188482227E+02  0.43747530306E+00  0.35860323719E+02  0.51100000000E-03 0. -1.
        -11    1    3    3    0    0  0.33944043454E+01 -0.82829413577E+01 -0.37332025087E+01  0.96987576332E+01  0.51100000000E-03 0.  1.
        -12    1    3    3    0    0 -0.95383140186E+01  0.43212556455E+02  0.41685372959E+01  0.44448635220E+02  0.00000000000E+00 0.  1.
</event>
<event>
 7    1  0.3622165E-015  0.9000808E+02  0.7816164E-02  0.1186338E+00
        -11   -1    0    0    0    0  0.00000000000E+00  0.00000000000E+00  0.45593999997E+02  0.45594000000E+02  0.51100000000E-03 0. -1.
         11   -1    0    0    0    0 -0.00000000000E+00 -0.00000000000E+00 -0.45593999997E+02  0.45594000000E+02  0.51100000000E-03 0.  1.
    9900012    2    1    2    0    0 -0.10782764296E+01  0.17678392673E+00  0.44528280606E+00  0.90008080769E+02  0.90000346634E+02 0.  0.
        -12    1    1    2    0    0  0.10782764296E+01 -0.17678392673E+00 -0.44528280606E+00  0.11799192314E+01  0.00000000000E+00 0.  1.
         11    1    3    3    0    0 -0.27502631810E+02 -0.15992522779E+02  0.19750940151E+02  0.37446697831E+02  0.51100000000E-03 0. -1.
        -11    1    3    3    0    0 -0.67134334731E+01  0.24679984566E+01  0.54458227337E+01  0.89898938196E+01  0.51100000000E-03 0.  1.
        -12    1    3    3    0    0  0.33137788854E+02  0.13701308249E+02 -0.24751480079E+02  0.43571489118E+02  0.00000000000E+00 0.  1.
</event>
<event>
 7    1  0.3622165E-015  0.9000763E+02  0.7816164E-02  0.1186339E+00
        -11   -1    0    0    0    0  0.00000000000E+00  0.00000000000E+00  0.45593999997E+02  0.45594000000E+02  0.51100000000E-03 0. -1.
         11   -1    0    0    0    0 -0.00000000000E+00 -0.00000000000E+00 -0.45593999997E+02  0.45594000000E+02  0.51100000000E-03 0.  1.
    9900012    2    1    2    0    0  0.96544317471E+00  0.64061370056E+00  0.22540201851E+00  0.90007630352E+02  0.89999890272E+02 0.  0.
        -12    1    1    2    0    0 -0.96544317471E+00 -0.64061370056E+00 -0.22540201851E+00  0.11803696484E+01  0.00000000000E+00 0.  1.
         11    1    3    3    0    0 -0.30083351121E+02  0.48427871031E+00  0.20669963948E+02  0.36503286844E+02  0.51100000000E-03 0. -1.
        -11    1    3    3    0    0 -0.22840129356E+01 -0.70893669747E+01  0.66165346402E+01  0.99626487490E+01  0.51100000000E-03 0.  1.
        -12    1    3    3    0    0  0.33332807231E+02  0.72457019649E+01 -0.27061096570E+02  0.43541694758E+02  0.00000000000E+00 0.  1.
</event>
<event>
 7    1  0.3622165E-015  0.9000755E+02  0.7816164E-02  0.1186339E+00
        -11   -1    0    0    0    0  0.00000000000E+00  0.00000000000E+00  0.45593999997E+02  0.45594000000E+02  0.51100000000E-03 0. -1.
         11   -1    0    0    0    0 -0.00000000000E+00 -0.00000000000E+00 -0.45593999997E+02  0.45594000000E+02  0.51100000000E-03 0.  1.
    9900012    2    1    2    0    0 -0.10956669412E+00 -0.44458456348E+00  0.10880227563E+01  0.90007553554E+02  0.89999812460E+02 0.  0.
        -12    1    1    2    0    0  0.10956669412E+00  0.44458456348E+00 -0.10880227563E+01  0.11804464464E+01  0.00000000000E+00 0.  1.
         11    1    3    3    0    0 -0.10383236620E+01  0.30347799862E+02  0.25319318825E+02  0.39536501849E+02  0.51100000000E-03 0. -1.
        -11    1    3    3    0    0  0.71730178898E+00 -0.33964571211E+01  0.76707256814E+01  0.84196481858E+01  0.51100000000E-03 0.  1.
        -12    1    3    3    0    0  0.21145517894E+00 -0.27395927304E+02 -0.31902021750E+02  0.42051403518E+02  0.00000000000E+00 0.  1.
</event>
<event>
 7    1  0.3622165E-015  0.9000774E+02  0.7816164E-02  0.1186339E+00
        -11   -1    0    0    0    0  0.00000000000E+00  0.00000000000E+00  0.45593999997E+02  0.45594000000E+02  0.51100000000E-03 0.  1.
         11   -1    0    0    0    0 -0.00000000000E+00 -0.00000000000E+00 -0.45593999997E+02  0.45594000000E+02  0.51100000000E-03 0. -1.
    9900012    2    1    2    0    0 -0.65841810532E+00 -0.29660761632E+00 -0.93354822634E+00  0.90007744616E+02  0.90000006045E+02 0.  0.
        -12    1    1    2    0    0  0.65841810532E+00  0.29660761632E+00  0.93354822634E+00  0.11802553835E+01  0.00000000000E+00 0.  1.
         11    1    3    3    0    0 -0.26103694280E+01  0.61868736287E+01 -0.89828357486E+01  0.11215291891E+02  0.51100000000E-03 0. -1.
        -11    1    3    3    0    0  0.21446361686E+02 -0.32468086249E+02 -0.11876469722E+02  0.40683824643E+02  0.51100000000E-03 0.  1.
         12    1    3    3    0    0 -0.19494410363E+02  0.25984605004E+02  0.19925757245E+02  0.38108628083E+02  0.00000000000E+00 0. -1.
</event>
<event>
 7    1  0.3622165E-015  0.9000775E+02  0.7816164E-02  0.1186339E+00
        -11   -1    0    0    0    0  0.00000000000E+00  0.00000000000E+00  0.45593999997E+02  0.45594000000E+02  0.51100000000E-03 0. -1.
         11   -1    0    0    0    0 -0.00000000000E+00 -0.00000000000E+00 -0.45593999997E+02  0.45594000000E+02  0.51100000000E-03 0.  1.
    9900012    2    1    2    0    0 -0.40732762946E-01  0.81702069603E+00  0.85076795069E+00  0.90007750839E+02  0.90000012350E+02 0.  0.
        -12    1    1    2    0    0  0.40732762946E-01 -0.81702069603E+00 -0.85076795069E+00  0.11802491608E+01  0.00000000000E+00 0.  1.
         11    1    3    3    0    0 -0.23887054417E+02  0.20836240951E+02 -0.18968996585E+02  0.36939993738E+02  0.51100000000E-03 0. -1.
        -11    1    3    3    0    0 -0.92536127846E+01  0.10333148487E+01  0.45902265280E+00  0.93224348322E+01  0.51100000000E-03 0.  1.
         12    1    3    3    0    0  0.33099934438E+02 -0.21052535104E+02  0.19360741883E+02  0.43745322269E+02  0.00000000000E+00 0. -1.
</event>
<event>
 7    1  0.3622165E-015  0.9000776E+02  0.7816164E-02  0.1186339E+00
        -11   -1    0    0    0    0  0.00000000000E+00  0.00000000000E+00  0.45593999997E+02  0.45594000000E+02  0.51100000000E-03 0.  1.
         11   -1    0    0    0    0 -0.00000000000E+00 -0.00000000000E+00 -0.45593999997E+02  0.45594000000E+02  0.51100000000E-03 0. -1.
    9900012    2    1    2    0    0 -0.21545391369E-01  0.39607179182E-01 -0.11793826646E+01  0.90007755787E+02  0.90000017364E+02 0.  0.
        -12    1    1    2    0    0  0.21545391369E-01 -0.39607179182E-01  0.11793826646E+01  0.11802442129E+01  0.00000000000E+00 0.  1.
         11    1    3    3    0    0  0.75067741913E+01  0.12918377003E+01 -0.15806035926E+01  0.77793837405E+01  0.51100000000E-03 0. -1.
        -11    1    3    3    0    0  0.22967026098E+01 -0.22149335398E+01  0.40655867519E+02  0.40780882010E+02  0.51100000000E-03 0.  1.
         12    1    3    3    0    0 -0.98250221925E+01  0.96270301868E+00 -0.40254646591E+02  0.41447490037E+02  0.00000000000E+00 0. -1.
</event>
<event>
 7    1  0.3622165E-015  0.9000768E+02  0.7816164E-02  0.1186339E+00
        -11   -1    0    0    0    0  0.00000000000E+00  0.00000000000E+00  0.45593999997E+02  0.45594000000E+02  0.51100000000E-03 0. -1.
         11   -1    0    0    0    0 -0.00000000000E+00 -0.00000000000E+00 -0.45593999997E+02  0.45594000000E+02  0.51100000000E-03 0.  1.
    9900012    2    1    2    0    0 -0.36580518362E+00 -0.92333682568E+00  0.63779377945E+00  0.90007684266E+02  0.89999944899E+02 0.  0.
        -12    1    1    2    0    0  0.36580518362E+00  0.92333682568E+00 -0.63779377945E+00  0.11803157337E+01  0.00000000000E+00 0.  1.
         11    1    3    3    0    0  0.47101245144E+01  0.70999216329E+01  0.41034564686E+00  0.85300963620E+01  0.51100000000E-03 0. -1.
        -11    1    3    3    0    0  0.26182184443E+02  0.10149371888E+02  0.25041993639E+02  0.37624699037E+02  0.51100000000E-03 0.  1.
         12    1    3    3    0    0 -0.31258114141E+02 -0.18172630347E+02 -0.24814545506E+02  0.43852888868E+02  0.00000000000E+00 0. -1.
</event>
<event>
 7    1  0.3622165E-015  0.9000774E+02  0.7816164E-02  0.1186339E+00
        -11   -1    0    0    0    0  0.00000000000E+00  0.00000000000E+00  0.45593999997E+02  0.45594000000E+02  0.51100000000E-03 0. -1.
         11   -1    0    0    0    0 -0.00000000000E+00 -0.00000000000E+00 -0.45593999997E+02  0.45594000000E+02  0.51100000000E-03 0.  1.
    9900012    2    1    2    0    0 -0.97382201318E+00 -0.76721630531E-01  0.66242420272E+00  0.90007736747E+02  0.89999998072E+02 0.  0.
        -12    1    1    2    0    0  0.97382201318E+00  0.76721630531E-01 -0.66242420272E+00  0.11802632530E+01  0.00000000000E+00 0.  1.
         11    1    3    3    0    0 -0.11304621273E+02 -0.28844815732E+02  0.27445379447E+02  0.41389210067E+02  0.51100000000E-03 0. -1.
        -11    1    3    3    0    0  0.40538398033E+01  0.92876068147E+01  0.46180104013E+01  0.11136394292E+02  0.51100000000E-03 0.  1.
        -12    1    3    3    0    0  0.62769594560E+01  0.19480487287E+02 -0.31400965645E+02  0.37482132388E+02  0.00000000000E+00 0.  1.
</event>
<event>
 7    1  0.3622165E-015  0.9000759E+02  0.7816164E-02  0.1186339E+00
        -11   -1    0    0    0    0  0.00000000000E+00  0.00000000000E+00  0.45593999997E+02  0.45594000000E+02  0.51100000000E-03 0.  1.
         11   -1    0    0    0    0 -0.00000000000E+00 -0.00000000000E+00 -0.45593999997E+02  0.45594000000E+02  0.51100000000E-03 0. -1.
    9900012    2    1    2    0    0  0.67861328488E+00  0.70940631552E+00  0.65543088609E+00  0.90007592038E+02  0.89999851453E+02 0.  0.
        -12    1    1    2    0    0 -0.67861328488E+00 -0.70940631552E+00 -0.65543088609E+00  0.11804079623E+01  0.00000000000E+00 0.  1.
         11    1    3    3    0    0  0.93359375760E+01 -0.70687560154E+01  0.25405750481E+01  0.11982552477E+02  0.51100000000E-03 0. -1.
        -11    1    3    3    0    0  0.31391835133E+02 -0.10821991429E+02 -0.57480840294E+01  0.33698713355E+02  0.51100000000E-03 0.  1.
         12    1    3    3    0    0 -0.40049159424E+02  0.18600153760E+02  0.38629398674E+01  0.44326326206E+02  0.00000000000E+00 0. -1.
</event>
<event>
 8    1  0.3622165E-015  0.9000740E+02  0.7816164E-02  0.1186340E+00
        -11   -1    0    0    0    0  0.00000000000E+00  0.00000000000E+00  0.45593999997E+02  0.45594000000E+02  0.51100000000E-03 0.  1.
         11   -1    0    0    0    0 -0.00000000000E+00 -0.00000000000E+00 -0.45593999997E+02  0.45594000000E+02  0.51100000000E-03 0. -1.
    9900012    2    1    2    0    0  0.54913774904E+00  0.48273461471E+00 -0.92695348658E+00  0.90007395180E+02  0.89999651995E+02 0.  0.
         23    2    3    3    0    0 -0.25320393437E+02  0.52134199550E+01  0.33096949929E+01  0.63369804862E+02  0.57762236936E+02 0.  0.
        -12    1    1    2    0    0 -0.54913774904E+00 -0.48273461471E+00  0.92695348658E+00  0.11806048204E+01  0.00000000000E+00 0.  1.
         11    1    4    4    0    0  0.83238698356E+01 -0.17648514439E+02 -0.80933950313E+01  0.21124864836E+02  0.51100000000E-03 0. -1.
        -11    1    4    4    0    0 -0.33644263273E+02  0.22861934395E+02  0.11403090024E+02  0.42244940026E+02  0.51100000000E-03 0.  1.
         12    1    3    3    0    0  0.25869531186E+02 -0.47306853403E+01 -0.42366484795E+01  0.26637590317E+02  0.00000000000E+00 0. -1.
</event>
<event>
 7    1  0.3622165E-015  0.9000777E+02  0.7816164E-02  0.1186339E+00
        -11   -1    0    0    0    0  0.00000000000E+00  0.00000000000E+00  0.45593999997E+02  0.45594000000E+02  0.51100000000E-03 0.  1.
         11   -1    0    0    0    0 -0.00000000000E+00 -0.00000000000E+00 -0.45593999997E+02  0.45594000000E+02  0.51100000000E-03 0. -1.
    9900012    2    1    2    0    0 -0.10756749290E+01  0.97696585465E-01 -0.47574285086E+00  0.90007765940E+02  0.90000027651E+02 0.  0.
        -12    1    1    2    0    0  0.10756749290E+01 -0.97696585465E-01  0.47574285086E+00  0.11802340597E+01  0.00000000000E+00 0.  1.
         11    1    3    3    0    0 -0.83814369973E+01 -0.81613684252E+01 -0.59380022452E+01  0.13119309877E+02  0.51100000000E-03 0. -1.
        -11    1    3    3    0    0 -0.30019057160E+02  0.63928675997E+01  0.20170463525E+02  0.36726831445E+02  0.51100000000E-03 0.  1.
         12    1    3    3    0    0  0.37324819229E+02  0.18661974109E+01 -0.14708204130E+02  0.40161624618E+02  0.00000000000E+00 0. -1.
</event>
<event>
 7    1  0.3622165E-015  0.9000777E+02  0.7816164E-02  0.1186339E+00
        -11   -1    0    0    0    0  0.00000000000E+00  0.00000000000E+00  0.45593999997E+02  0.45594000000E+02  0.51100000000E-03 0.  1.
         11   -1    0    0    0    0 -0.00000000000E+00 -0.00000000000E+00 -0.45593999997E+02  0.45594000000E+02  0.51100000000E-03 0. -1.
    9900012    2    1    2    0    0 -0.97171570815E+00  0.45327620244E+00 -0.49321284882E+00  0.90007767122E+02  0.90000028848E+02 0.  0.
        -12    1    1    2    0    0  0.97171570815E+00 -0.45327620244E+00  0.49321284882E+00  0.11802328785E+01  0.00000000000E+00 0.  1.
         11    1    3    3    0    0 -0.14401342683E+02  0.33862402795E+02 -0.24244435006E+02  0.44066468239E+02  0.51100000000E-03 0. -1.
        -11    1    3    3    0    0  0.11392972687E+02 -0.96169525663E+01  0.55207244203E+01  0.15898553447E+02  0.51100000000E-03 0.  1.
        -12    1    3    3    0    0  0.20366542872E+01 -0.23792174026E+02  0.18230497737E+02  0.30042745435E+02  0.00000000000E+00 0.  1.
</event>
<event>
 7    1  0.3622165E-015  0.9000841E+02  0.7816164E-02  0.1186338E+00
        -11   -1    0    0    0    0  0.00000000000E+00  0.00000000000E+00  0.45593999997E+02  0.45594000000E+02  0.51100000000E-03 0. -1.
         11   -1    0    0    0    0 -0.00000000000E+00 -0.00000000000E+00 -0.45593999997E+02  0.45594000000E+02  0.51100000000E-03 0.  1.
    9900012    2    1    2    0    0  0.90251370523E+00 -0.75455963425E+00  0.86859284013E-01  0.90008408645E+02  0.90000678836E+02 0.  0.
        -12    1    1    2    0    0 -0.90251370523E+00  0.75455963425E+00 -0.86859284013E-01  0.11795913551E+01  0.00000000000E+00 0.  1.
         11    1    3    3    0    0  0.10214583458E+02  0.56198580146E+00 -0.26108172186E+01  0.10557931145E+02  0.51100000000E-03 0. -1.
        -11    1    3    3    0    0  0.10526329096E+02 -0.19625770568E+02  0.32398185061E+02  0.39314334157E+02  0.51100000000E-03 0.  1.
         12    1    3    3    0    0 -0.19838398849E+02  0.18309225133E+02 -0.29700508559E+02  0.40136143343E+02  0.00000000000E+00 0. -1.
</event>
<event>
 7    1  0.3622165E-015  0.9000769E+02  0.7816164E-02  0.1186339E+00
        -11   -1    0    0    0    0  0.00000000000E+00  0.00000000000E+00  0.45593999997E+02  0.45594000000E+02  0.51100000000E-03 0.  1.
         11   -1    0    0    0    0 -0.00000000000E+00 -0.00000000000E+00 -0.45593999997E+02  0.45594000000E+02  0.51100000000E-03 0. -1.
    9900012    2    1    2    0    0  0.78974331420E+00  0.83112728199E+00 -0.28047846395E+00  0.90007688503E+02  0.89999949191E+02 0.  0.
        -12    1    1    2    0    0 -0.78974331420E+00 -0.83112728199E+00  0.28047846395E+00  0.11803114970E+01  0.00000000000E+00 0.  1.
         11    1    3    3    0    0  0.19478253400E+01  0.33498654039E+01  0.72450317428E+01  0.82162100140E+01  0.51100000000E-03 0. -1.
        -11    1    3    3    0    0  0.15750222381E+02 -0.94953161079E+01  0.32748079249E+02  0.37558850193E+02  0.51100000000E-03 0.  1.
         12    1    3    3    0    0 -0.16908304406E+02  0.69765779860E+01 -0.40273589456E+02  0.44232628296E+02  0.00000000000E+00 0. -1.
</event>
<event>
 7    1  0.3622165E-015  0.9000740E+02  0.7816164E-02  0.1186340E+00
        -11   -1    0    0    0    0  0.00000000000E+00  0.00000000000E+00  0.45593999997E+02  0.45594000000E+02  0.51100000000E-03 0.  1.
         11   -1    0    0    0    0 -0.00000000000E+00 -0.00000000000E+00 -0.45593999997E+02  0.45594000000E+02  0.51100000000E-03 0. -1.
    9900012    2    1    2    0    0 -0.73343508525E+00  0.62175826016E+00  0.68505053693E+00  0.90007404982E+02  0.89999661927E+02 0.  0.
        -12    1    1    2    0    0  0.73343508525E+00 -0.62175826016E+00 -0.68505053693E+00  0.11805950180E+01  0.00000000000E+00 0.  1.
         11    1    3    3    0    0 -0.18379713582E+01 -0.64574785163E+01  0.11896342649E+02  0.13660166038E+02  0.51100000000E-03 0. -1.
        -11    1    3    3    0    0 -0.31543853271E+02 -0.95482697241E+01  0.94487670833E+01  0.34285030750E+02  0.51100000000E-03 0.  1.
         12    1    3    3    0    0  0.32648389543E+02  0.16627506501E+02 -0.20660059195E+02  0.42062208194E+02  0.00000000000E+00 0. -1.
</event>
<event>
 7    1  0.3622165E-015  0.9000760E+02  0.7816164E-02  0.1186339E+00
        -11   -1    0    0    0    0  0.00000000000E+00  0.00000000000E+00  0.45593999997E+02  0.45594000000E+02  0.51100000000E-03 0.  1.
         11   -1    0    0    0    0 -0.00000000000E+00 -0.00000000000E+00 -0.45593999997E+02  0.45594000000E+02  0.51100000000E-03 0. -1.
    9900012    2    1    2    0    0  0.38804242838E+00  0.43161197989E-01 -0.11139633870E+01  0.90007595729E+02  0.89999855193E+02 0.  0.
        -12    1    1    2    0    0 -0.38804242838E+00 -0.43161197989E-01  0.11139633870E+01  0.11804042709E+01  0.00000000000E+00 0.  1.
         11    1    3    3    0    0 -0.35272651932E+02 -0.23884859565E+02  0.22827062802E+01  0.42659784797E+02  0.51100000000E-03 0. -1.
        -11    1    3    3    0    0  0.90976011247E+01 -0.17240490325E+01 -0.47274737751E+01  0.10396523450E+02  0.51100000000E-03 0.  1.
        -12    1    3    3    0    0  0.26563093235E+02  0.25652069795E+02  0.13308041080E+01  0.36951287482E+02  0.00000000000E+00 0.  1.
</event>
<event>
 7    1  0.3622165E-015  0.9000773E+02  0.7816164E-02  0.1186339E+00
        -11   -1    0    0    0    0  0.00000000000E+00  0.00000000000E+00  0.45593999997E+02  0.45594000000E+02  0.51100000000E-03 0. -1.
         11   -1    0    0    0    0 -0.00000000000E+00 -0.00000000000E+00 -0.45593999997E+02  0.45594000000E+02  0.51100000000E-03 0.  1.
    9900012    2    1    2    0    0  0.68822950494E+00  0.95464638376E+00 -0.89549056594E-01  0.90007733673E+02  0.89999994957E+02 0.  0.
        -12    1    1    2    0    0 -0.68822950494E+00 -0.95464638376E+00  0.89549056594E-01  0.11802663272E+01  0.00000000000E+00 0.  1.
         11    1    3    3    0    0  0.63903370555E+01  0.64079276674E+01  0.25408123979E+01  0.93996634288E+01  0.51100000000E-03 0. -1.
        -11    1    3    3    0    0  0.75888190305E+01  0.35148922873E+02  0.74274504197E+01  0.36717897181E+02  0.51100000000E-03 0.  1.
         12    1    3    3    0    0 -0.13290926581E+02 -0.40602204157E+02 -0.10057811874E+02  0.43890173063E+02  0.00000000000E+00 0. -1.
</event>
<event>
 7    1  0.3622165E-015  0.9000757E+02  0.7816164E-02  0.1186339E+00
        -11   -1    0    0    0    0  0.00000000000E+00  0.00000000000E+00  0.45593999997E+02  0.45594000000E+02  0.51100000000E-03 0.  1.
         11   -1    0    0    0    0 -0.00000000000E+00 -0.00000000000E+00 -0.45593999997E+02  0.45594000000E+02  0.51100000000E-03 0. -1.
    9900012    2    1    2    0    0 -0.15847809193E-01  0.24337599042E+00 -0.11549606401E+01  0.90007569102E+02  0.89999828214E+02 0.  0.
        -12    1    1    2    0    0  0.15847809193E-01 -0.24337599042E+00  0.11549606401E+01  0.11804308984E+01  0.00000000000E+00 0.  1.
         11    1    3    3    0    0 -0.41807859882E+01 -0.27901068040E+01 -0.72956271787E+01  0.88594493988E+01  0.51100000000E-03 0. -1.
        -11    1    3    3    0    0 -0.19103046957E+02 -0.11077560724E+02  0.35062395235E+02  0.41436823171E+02  0.51100000000E-03 0.  1.
         12    1    3    3    0    0  0.23267985136E+02  0.14111043518E+02 -0.28921728696E+02  0.39711296532E+02  0.00000000000E+00 0. -1.
</event>
<event>
 7    1  0.3622165E-015  0.9000769E+02  0.7816164E-02  0.1186339E+00
        -11   -1    0    0    0    0  0.00000000000E+00  0.00000000000E+00  0.45593999997E+02  0.45594000000E+02  0.51100000000E-03 0.  1.
         11   -1    0    0    0    0 -0.00000000000E+00 -0.00000000000E+00 -0.45593999997E+02  0.45594000000E+02  0.51100000000E-03 0. -1.
    9900012    2    1    2    0    0 -0.11679001951E+01 -0.12385333688E+00  0.11746703319E+00  0.90007691134E+02  0.89999951857E+02 0.  0.
        -12    1    1    2    0    0  0.11679001951E+01  0.12385333688E+00 -0.11746703319E+00  0.11803088658E+01  0.00000000000E+00 0.  1.
         11    1    3    3    0    0 -0.69948254246E+01 -0.60618179232E+01  0.85301154537E+01  0.12587139833E+02  0.51100000000E-03 0. -1.
        -11    1    3    3    0    0 -0.14705813075E+02 -0.18408926065E+02  0.22828563249E+02  0.32806901672E+02  0.51100000000E-03 0.  1.
         12    1    3    3    0    0  0.20532738305E+02  0.24346890651E+02 -0.31241211669E+02  0.44613649629E+02  0.00000000000E+00 0. -1.
</event>
<event>
 7    1  0.3622165E-015  0.9000788E+02  0.7816164E-02  0.1186339E+00
        -11   -1    0    0    0    0  0.00000000000E+00  0.00000000000E+00  0.45593999997E+02  0.45594000000E+02  0.51100000000E-03 0. -1.
         11   -1    0    0    0    0 -0.00000000000E+00 -0.00000000000E+00 -0.45593999997E+02  0.45594000000E+02  0.51100000000E-03 0.  1.
    9900012    2    1    2    0    0  0.66833976438E+00 -0.87835784572E-01  0.96865657324E+00  0.90007877666E+02  0.90000140851E+02 0.  0.
        -12    1    1    2    0    0 -0.66833976438E+00  0.87835784572E-01 -0.96865657324E+00  0.11801223337E+01  0.00000000000E+00 0.  1.
         11    1    3    3    0    0 -0.37727722682E+01  0.15018540969E+02 -0.35625171065E+01  0.15889679413E+02  0.51100000000E-03 0. -1.
        -11    1    3    3    0    0 -0.20895910518E+02 -0.29473629947E+02 -0.14924912069E+02  0.39090752604E+02  0.51100000000E-03 0.  1.
         12    1    3    3    0    0  0.25337022551E+02  0.14367253193E+02  0.19456085749E+02  0.35027445649E+02  0.00000000000E+00 0. -1.
</event>
<event>
 7    1  0.3622165E-015  0.9000785E+02  0.7816164E-02  0.1186339E+00
        -11   -1    0    0    0    0  0.00000000000E+00  0.00000000000E+00  0.45593999997E+02  0.45594000000E+02  0.51100000000E-03 0.  1.
         11   -1    0    0    0    0 -0.00000000000E+00 -0.00000000000E+00 -0.45593999997E+02  0.45594000000E+02  0.51100000000E-03 0. -1.
    9900012    2    1    2    0    0 -0.21852536833E+00  0.75958728606E+00  0.87636976735E+00  0.90007851640E+02  0.90000114482E+02 0.  0.
        -12    1    1    2    0    0  0.21852536833E+00 -0.75958728606E+00 -0.87636976735E+00  0.11801483597E+01  0.00000000000E+00 0.  1.
         11    1    3    3    0    0 -0.25163112689E+02  0.18395088915E+02 -0.25102573788E+02  0.40021253696E+02  0.51100000000E-03 0. -1.
        -11    1    3    3    0    0  0.52620919395E+01  0.67472758527E+01 -0.10288586490E+01  0.86182302936E+01  0.51100000000E-03 0.  1.
        -12    1    3    3    0    0  0.19682495381E+02 -0.24382777482E+02  0.27007802204E+02  0.41368367650E+02  0.00000000000E+00 0.  1.
</event>
<event>
 7    1  0.3622165E-015  0.9000781E+02  0.7816164E-02  0.1186339E+00
        -11   -1    0    0    0    0  0.00000000000E+00  0.00000000000E+00  0.45593999997E+02  0.45594000000E+02  0.51100000000E-03 0.  1.
         11   -1    0    0    0    0 -0.00000000000E+00 -0.00000000000E+00 -0.45593999997E+02  0.45594000000E+02  0.51100000000E-03 0. -1.
    9900012    2    1    2    0    0  0.11044740789E+01  0.23408681720E+00  0.34378704975E+00  0.90007809691E+02  0.90000071979E+02 0.  0.
        -12    1    1    2    0    0 -0.11044740789E+01 -0.23408681720E+00 -0.34378704975E+00  0.11801903086E+01  0.00000000000E+00 0.  1.
         11    1    3    3    0    0 -0.25226363269E+02 -0.44998379006E+01 -0.24789090019E+02  0.35652726812E+02  0.51100000000E-03 0. -1.
        -11    1    3    3    0    0  0.21523105475E+01 -0.28956255761E+01 -0.10227110649E+02  0.10844855032E+02  0.51100000000E-03 0.  1.
        -12    1    3    3    0    0  0.24178526801E+02  0.76295502939E+01  0.35359987718E+02  0.43510227847E+02  0.00000000000E+00 0.  1.
</event>
<event>
 7    1  0.3622165E-015  0.9000789E+02  0.7816164E-02  0.1186339E+00
        -11   -1    0    0    0    0  0.00000000000E+00  0.00000000000E+00  0.45593999997E+02  0.45594000000E+02  0.51100000000E-03 0.  1.
         11   -1    0    0    0    0 -0.00000000000E+00 -0.00000000000E+00 -0.45593999997E+02  0.45594000000E+02  0.51100000000E-03 0. -1.
    9900012    2    1    2    0    0  0.11541929711E+01 -0.52939047058E-01  0.24018184329E+00  0.90007893532E+02  0.90000156927E+02 0.  0.
        -12    1    1    2    0    0 -0.11541929711E+01  0.52939047058E-01 -0.24018184329E+00  0.11801064676E+01  0.00000000000E+00 0.  1.
         11    1    3    3    0    0 -0.10251785925E+02  0.23292962567E+01  0.48239640258E+01  0.11566994635E+02  0.51100000000E-03 0. -1.
        -11    1    3    3    0    0 -0.20110774920E+02 -0.27770272778E+02  0.95178472425E+01  0.35583995482E+02  0.51100000000E-03 0.  1.
         12    1    3    3    0    0  0.31516753816E+02  0.25388037475E+02 -0.14101629425E+02  0.42856903415E+02  0.00000000000E+00 0. -1.
</event>
<event>
 7    1  0.3622165E-015  0.9000776E+02  0.7816164E-02  0.1186339E+00
        -11   -1    0    0    0    0  0.00000000000E+00  0.00000000000E+00  0.45593999997E+02  0.45594000000E+02  0.51100000000E-03 0.  1.
         11   -1    0    0    0    0 -0.00000000000E+00 -0.00000000000E+00 -0.45593999997E+02  0.45594000000E+02  0.51100000000E-03 0. -1.
    9900012    2    1    2    0    0  0.23341557167E+00  0.30420969209E-01 -0.11565260734E+01  0.90007762387E+02  0.90000024051E+02 0.  0.
        -12    1    1    2    0    0 -0.23341557167E+00 -0.30420969209E-01  0.11565260734E+01  0.11802376129E+01  0.00000000000E+00 0.  1.
         11    1    3    3    0    0  0.28284417251E+02 -0.23545589017E+01 -0.25497743690E+02  0.38153468262E+02  0.51100000000E-03 0. -1.
        -11    1    3    3    0    0  0.50449508296E+01  0.99973468458E+01  0.24902801764E+01  0.11471702944E+02  0.51100000000E-03 0.  1.
        -12    1    3    3    0    0 -0.33095952509E+02 -0.76123669748E+01  0.21850937440E+02  0.40382591181E+02  0.00000000000E+00 0.  1.
</event>
<event>
 7    1  0.5166384E-015  0.9000780E+02  0.7816164E-02  0.1186339E+00
        -11   -1    0    0    0    0  0.00000000000E+00  0.00000000000E+00  0.45593999997E+02  0.45594000000E+02  0.51100000000E-03 0. -1.
         11   -1    0    0    0    0 -0.00000000000E+00 -0.00000000000E+00 -0.45593999997E+02  0.45594000000E+02  0.51100000000E-03 0.  1.
    9900012    2    1    2    0    0  0.36120610593E+00 -0.41023000509E+00  0.10459951873E+01  0.90007803220E+02  0.90000065422E+02 0.  0.
        -12    1    1    2    0    0 -0.36120610593E+00  0.41023000509E+00 -0.10459951873E+01  0.11801967802E+01  0.00000000000E+00 0.  1.
         11    1    3    3    0    0 -0.22677193437E+02  0.41593870744E+01  0.33499136970E+02  0.40666297852E+02  0.51100000000E-03 0. -1.
        -11    1    3    3    0    0 -0.67866356121E+01 -0.26265819428E+01 -0.61823325881E+01  0.95487481967E+01  0.51100000000E-03 0.  1.
        -12    1    3    3    0    0  0.29825035155E+02 -0.19430351367E+01 -0.26270809194E+02  0.39792757171E+02  0.00000000000E+00 0.  1.
</event>
<event>
 7    1  0.3622165E-015  0.9000775E+02  0.7816164E-02  0.1186339E+00
        -11   -1    0    0    0    0  0.00000000000E+00  0.00000000000E+00  0.45593999997E+02  0.45594000000E+02  0.51100000000E-03 0.  1.
         11   -1    0    0    0    0 -0.00000000000E+00 -0.00000000000E+00 -0.45593999997E+02  0.45594000000E+02  0.51100000000E-03 0. -1.
    9900012    2    1    2    0    0  0.73846850687E+00  0.90098337833E+00  0.18944545267E+00  0.90007747331E+02  0.90000008796E+02 0.  0.
        -12    1    1    2    0    0 -0.73846850687E+00 -0.90098337833E+00 -0.18944545267E+00  0.11802526692E+01  0.00000000000E+00 0.  1.
         11    1    3    3    0    0  0.11310851369E+02 -0.31251505935E+01 -0.23961626734E+02  0.26680732391E+02  0.51100000000E-03 0. -1.
        -11    1    3    3    0    0 -0.23509041781E+02  0.20586732958E+01 -0.10839754905E+02  0.25969471844E+02  0.51100000000E-03 0.  1.
        -12    1    3    3    0    0  0.12936658919E+02  0.19674606760E+01  0.34990827092E+02  0.37357543095E+02  0.00000000000E+00 0.  1.
</event>
<event>
 7    1  0.3622165E-015  0.9000774E+02  0.7816164E-02  0.1186339E+00
        -11   -1    0    0    0    0  0.00000000000E+00  0.00000000000E+00  0.45593999997E+02  0.45594000000E+02  0.51100000000E-03 0.  1.
         11   -1    0    0    0    0 -0.00000000000E+00 -0.00000000000E+00 -0.45593999997E+02  0.45594000000E+02  0.51100000000E-03 0. -1.
    9900012    2    1    2    0    0  0.11715766084E+01 -0.14291709887E+00  0.48971821691E-03  0.90007738467E+02  0.89999999815E+02 0.  0.
        -12    1    1    2    0    0 -0.11715766084E+01  0.14291709887E+00 -0.48971821691E-03  0.11802615330E+01  0.00000000000E+00 0.  1.
         11    1    3    3    0    0  0.16201955967E+02  0.34054498711E+02 -0.77294411264E+01  0.38496188383E+02  0.51100000000E-03 0. -1.
        -11    1    3    3    0    0 -0.24466093214E+01  0.65771058830E+01  0.52563712212E+01  0.87677624080E+01  0.51100000000E-03 0.  1.
        -12    1    3    3    0    0 -0.12583770037E+02 -0.40774521693E+02  0.24735596234E+01  0.42743787676E+02  0.00000000000E+00 0.  1.
</event>
<event>
 7    1  0.3622165E-015  0.9000762E+02  0.7816164E-02  0.1186339E+00
        -11   -1    0    0    0    0  0.00000000000E+00  0.00000000000E+00  0.45593999997E+02  0.45594000000E+02  0.51100000000E-03 0.  1.
         11   -1    0    0    0    0 -0.00000000000E+00 -0.00000000000E+00 -0.45593999997E+02  0.45594000000E+02  0.51100000000E-03 0. -1.
    9900012    2    1    2    0    0 -0.32939517660E+00 -0.61695138049E+00 -0.95087307870E+00  0.90007623026E+02  0.89999882850E+02 0.  0.
        -12    1    1    2    0    0  0.32939517660E+00  0.61695138049E+00  0.95087307870E+00  0.11803769737E+01  0.00000000000E+00 0.  1.
         11    1    3    3    0    0  0.86408425011E+01 -0.39057555565E+01 -0.34970288098E+02  0.36233135878E+02  0.51100000000E-03 0. -1.
        -11    1    3    3    0    0  0.31575013857E+01 -0.16083888628E+01 -0.85425015386E+01  0.92483005214E+01  0.51100000000E-03 0.  1.
        -12    1    3    3    0    0 -0.12127739063E+02  0.48971930388E+01  0.42561916558E+02  0.44526186627E+02  0.00000000000E+00 0.  1.
</event>
<event>
 7    1  0.3622165E-015  0.9000754E+02  0.7816164E-02  0.1186339E+00
        -11   -1    0    0    0    0  0.00000000000E+00  0.00000000000E+00  0.45593999997E+02  0.45594000000E+02  0.51100000000E-03 0.  1.
         11   -1    0    0    0    0 -0.00000000000E+00 -0.00000000000E+00 -0.45593999997E+02  0.45594000000E+02  0.51100000000E-03 0. -1.
    9900012    2    1    2    0    0 -0.55278038790E+00 -0.67263501901E+00  0.79717749283E+00  0.90007535693E+02  0.89999794363E+02 0.  0.
        -12    1    1    2    0    0  0.55278038790E+00  0.67263501901E+00 -0.79717749283E+00  0.11804643074E+01  0.00000000000E+00 0.  1.
         11    1    3    3    0    0 -0.31879637667E+02  0.13879910240E+02 -0.95279001302E+01  0.36051963708E+02  0.51100000000E-03 0. -1.
        -11    1    3    3    0    0 -0.71906290892E+01  0.56248741555E+01  0.41809960502E+01  0.10041169464E+02  0.51100000000E-03 0.  1.
        -12    1    3    3    0    0  0.38517486369E+02 -0.20177419414E+02  0.61440815729E+01  0.43914402521E+02  0.00000000000E+00 0.  1.
</event>
<event>
 7    1  0.3622165E-015  0.9000776E+02  0.7816164E-02  0.1186339E+00
        -11   -1    0    0    0    0  0.00000000000E+00  0.00000000000E+00  0.45593999997E+02  0.45594000000E+02  0.51100000000E-03 0. -1.
         11   -1    0    0    0    0 -0.00000000000E+00 -0.00000000000E+00 -0.45593999997E+02  0.45594000000E+02  0.51100000000E-03 0.  1.
    9900012    2    1    2    0    0 -0.11607757209E+01 -0.21318907606E+00 -0.10822524255E-01  0.90007759777E+02  0.90000021406E+02 0.  0.
        -12    1    1    2    0    0  0.11607757209E+01  0.21318907606E+00  0.10822524255E-01  0.11802402228E+01  0.00000000000E+00 0.  1.
         11    1    3    3    0    0  0.11849540206E+02 -0.35572246442E+02  0.19133320647E+02  0.42093708310E+02  0.51100000000E-03 0. -1.
        -11    1    3    3    0    0 -0.92040525902E+01  0.49545780449E+01  0.20561558137E+01  0.10653178149E+02  0.51100000000E-03 0.  1.
        -12    1    3    3    0    0 -0.38062633366E+01  0.30404479321E+02 -0.21200298985E+02  0.37260873318E+02  0.00000000000E+00 0.  1.
</event>
<event>
 7    1  0.3622165E-015  0.9000775E+02  0.7816164E-02  0.1186339E+00
        -11   -1    0    0    0    0  0.00000000000E+00  0.00000000000E+00  0.45593999997E+02  0.45594000000E+02  0.51100000000E-03 0.  1.
         11   -1    0    0    0    0 -0.00000000000E+00 -0.00000000000E+00 -0.45593999997E+02  0.45594000000E+02  0.51100000000E-03 0. -1.
    9900012    2    1    2    0    0 -0.10690992867E+00  0.46176524299E+00 -0.10808919868E+01  0.90007752416E+02  0.90000013948E+02 0.  0.
        -12    1    1    2    0    0  0.10690992867E+00 -0.46176524299E+00  0.10808919868E+01  0.11802475840E+01  0.00000000000E+00 0.  1.
         11    1    3    3    0    0 -0.44592475391E+00 -0.75333217076E+01  0.53398693823E+01  0.92446736079E+01  0.51100000000E-03 0. -1.
        -11    1    3    3    0    0 -0.24809993355E+02 -0.49618335583E+01  0.26982564410E+02  0.36989381516E+02  0.51100000000E-03 0.  1.
         12    1    3    3    0    0  0.25149008180E+02  0.12956920509E+02 -0.33403325779E+02  0.43773697292E+02  0.00000000000E+00 0. -1.
</event>
<event>
 7    1  0.3622165E-015  0.9000768E+02  0.7816164E-02  0.1186339E+00
        -11   -1    0    0    0    0  0.00000000000E+00  0.00000000000E+00  0.45593999997E+02  0.45594000000E+02  0.51100000000E-03 0. -1.
         11   -1    0    0    0    0 -0.00000000000E+00 -0.00000000000E+00 -0.45593999997E+02  0.45594000000E+02  0.51100000000E-03 0.  1.
    9900012    2    1    2    0    0  0.51883360223E+00 -0.59092566907E+00  0.88020818162E+00  0.90007683137E+02  0.89999943755E+02 0.  0.
        -12    1    1    2    0    0 -0.51883360223E+00  0.59092566907E+00 -0.88020818162E+00  0.11803168626E+01  0.00000000000E+00 0.  1.
         11    1    3    3    0    0  0.77198673497E+01  0.73710283241E+01 -0.20812259102E+01  0.10874737330E+02  0.51100000000E-03 0. -1.
        -11    1    3    3    0    0 -0.24620102050E+02  0.21904246635E+02 -0.19129326307E+02  0.38103498144E+02  0.51100000000E-03 0.  1.
         12    1    3    3    0    0  0.17419068302E+02 -0.29866200629E+02  0.22090760399E+02  0.41029447663E+02  0.00000000000E+00 0. -1.
</event>
<event>
 7    1  0.3622165E-015  0.9000772E+02  0.7816164E-02  0.1186339E+00
        -11   -1    0    0    0    0  0.00000000000E+00  0.00000000000E+00  0.45593999997E+02  0.45594000000E+02  0.51100000000E-03 0.  1.
         11   -1    0    0    0    0 -0.00000000000E+00 -0.00000000000E+00 -0.45593999997E+02  0.45594000000E+02  0.51100000000E-03 0. -1.
    9900012    2    1    2    0    0  0.39237374810E+00  0.80534972144E+00  0.76844527931E+00  0.90007723134E+02  0.89999984280E+02 0.  0.
        -12    1    1    2    0    0 -0.39237374810E+00 -0.80534972144E+00 -0.76844527931E+00  0.11802768655E+01  0.00000000000E+00 0.  1.
         11    1    3    3    0    0 -0.15891963423E+02  0.11935990317E+02 -0.32641989388E+02  0.38216774298E+02  0.51100000000E-03 0. -1.
        -11    1    3    3    0    0 -0.91276536715E+01 -0.25552173587E+01  0.71904944736E+00  0.95057997910E+01  0.51100000000E-03 0.  1.
        -12    1    3    3    0    0  0.25411990842E+02 -0.85754232365E+01  0.32691385220E+02  0.42285149046E+02  0.00000000000E+00 0.  1.
</event>
<event>
 7    1  0.3622165E-015  0.9000779E+02  0.7816164E-02  0.1186339E+00
        -11   -1    0    0    0    0  0.00000000000E+00  0.00000000000E+00  0.45593999997E+02  0.45594000000E+02  0.51100000000E-03 0. -1.
         11   -1    0    0    0    0 -0.00000000000E+00 -0.00000000000E+00 -0.45593999997E+02  0.45594000000E+02  0.51100000000E-03 0.  1.
    9900012    2    1    2    0    0  0.79555841395E+00  0.50301593099E+00 -0.71201065761E+00  0.90007789259E+02  0.90000051277E+02 0.  0.
        -12    1    1    2    0    0 -0.79555841395E+00 -0.50301593099E+00  0.71201065761E+00  0.11802107411E+01  0.00000000000E+00 0.  1.
         11    1    3    3    0    0 -0.36785142248E+02  0.10262806768E+02  0.11251852669E+02  0.39813013974E+02  0.51100000000E-03 0. -1.
        -11    1    3    3    0    0  0.42833372452E+01  0.83608287257E+01  0.23332792419E+01  0.96795985050E+01  0.51100000000E-03 0.  1.
        -12    1    3    3    0    0  0.33297363417E+02 -0.18120619563E+02 -0.14297142569E+02  0.40515176780E+02  0.00000000000E+00 0.  1.
</event>
<event>
 7    1  0.3622165E-015  0.9000778E+02  0.7816164E-02  0.1186339E+00
        -11   -1    0    0    0    0  0.00000000000E+00  0.00000000000E+00  0.45593999997E+02  0.45594000000E+02  0.51100000000E-03 0.  1.
         11   -1    0    0    0    0 -0.00000000000E+00 -0.00000000000E+00 -0.45593999997E+02  0.45594000000E+02  0.51100000000E-03 0. -1.
    9900012    2    1    2    0    0  0.67229101813E+00  0.41231529607E+00 -0.87802764650E+00  0.90007783213E+02  0.90000045151E+02 0.  0.
        -12    1    1    2    0    0 -0.67229101813E+00 -0.41231529607E+00  0.87802764650E+00  0.11802167871E+01  0.00000000000E+00 0.  1.
         11    1    3    3    0    0 -0.19980933272E+02  0.27910411482E+02  0.76889954576E+01  0.35175977811E+02  0.51100000000E-03 0. -1.
        -11    1    3    3    0    0 -0.56823512460E+01  0.54181805073E+01  0.63680809422E+01  0.10109315053E+02  0.51100000000E-03 0.  1.
        -12    1    3    3    0    0  0.26335575536E+02 -0.32916276694E+02 -0.14935104046E+02  0.44722490349E+02  0.00000000000E+00 0.  1.
</event>
<event>
 7    1  0.3622165E-015  0.9000711E+02  0.7816164E-02  0.1186340E+00
        -11   -1    0    0    0    0  0.00000000000E+00  0.00000000000E+00  0.45593999997E+02  0.45594000000E+02  0.51100000000E-03 0. -1.
         11   -1    0    0    0    0 -0.00000000000E+00 -0.00000000000E+00 -0.45593999997E+02  0.45594000000E+02  0.51100000000E-03 0.  1.
    9900012    2    1    2    0    0  0.20596369902E-01 -0.84250765308E+00  0.82720386849E+00  0.90007106442E+02  0.89999359444E+02 0.  0.
        -12    1    1    2    0    0 -0.20596369902E-01  0.84250765308E+00 -0.82720386849E+00  0.11808935583E+01  0.00000000000E+00 0.  1.
         11    1    3    3    0    0  0.97892052289E+01  0.74124934860E+00  0.14472091485E+01  0.99233262665E+01  0.51100000000E-03 0. -1.
        -11    1    3    3    0    0 -0.43262796282E+02  0.70353274516E+01  0.77230915826E+01  0.44506308748E+02  0.51100000000E-03 0.  1.
         12    1    3    3    0    0  0.33494187423E+02 -0.86190844533E+01 -0.83430968626E+01  0.35577471428E+02  0.00000000000E+00 0. -1.
</event>
<event>
 7    1  0.3622165E-015  0.9000773E+02  0.7816164E-02  0.1186339E+00
        -11   -1    0    0    0    0  0.00000000000E+00  0.00000000000E+00  0.45593999997E+02  0.45594000000E+02  0.51100000000E-03 0. -1.
         11   -1    0    0    0    0 -0.00000000000E+00 -0.00000000000E+00 -0.45593999997E+02  0.45594000000E+02  0.51100000000E-03 0.  1.
    9900012    2    1    2    0    0 -0.11149823704E+01  0.36661220995E+00 -0.12428802831E+00  0.90007729814E+02  0.89999991047E+02 0.  0.
        -12    1    1    2    0    0  0.11149823704E+01 -0.36661220995E+00  0.12428802831E+00  0.11802701863E+01  0.00000000000E+00 0.  1.
         11    1    3    3    0    0  0.23594731591E+02  0.89942994734E+00  0.22908160017E+02  0.32898390974E+02  0.51100000000E-03 0. -1.
        -11    1    3    3    0    0  0.59973540252E+01 -0.56217524640E+00  0.10210125684E+02  0.11854575617E+02  0.51100000000E-03 0.  1.
        -12    1    3    3    0    0 -0.30707067986E+02  0.29357509008E-01 -0.33242573729E+02  0.45254763223E+02  0.00000000000E+00 0.  1.
</event>
<event>
 7    1  0.4726894E-015  0.9000797E+02  0.7816164E-02  0.1186339E+00
        -11   -1    0    0    0    0  0.00000000000E+00  0.00000000000E+00  0.45593999997E+02  0.45594000000E+02  0.51100000000E-03 0.  1.
         11   -1    0    0    0    0 -0.00000000000E+00 -0.00000000000E+00 -0.45593999997E+02  0.45594000000E+02  0.51100000000E-03 0. -1.
    9900012    2    1    2    0    0 -0.78453781757E+00  0.70474307629E+00 -0.52943358839E+00  0.90007973596E+02  0.90000238047E+02 0.  0.
        -12    1    1    2    0    0  0.78453781757E+00 -0.70474307629E+00  0.52943358839E+00  0.11800264045E+01  0.00000000000E+00 0.  1.
         11    1    3    3    0    0 -0.12049841597E+01  0.41184785239E+02 -0.27998053095E+01  0.41297426457E+02  0.51100000000E-03 0. -1.
        -11    1    3    3    0    0 -0.33864635479E+01 -0.31856141619E+01 -0.85150550691E+01  0.97016718168E+01  0.51100000000E-03 0.  1.
        -12    1    3    3    0    0  0.38069098901E+01 -0.37294428000E+02  0.10785426790E+02  0.39008875321E+02  0.00000000000E+00 0.  1.
</event>
<event>
 7    1  0.3622165E-015  0.9000770E+02  0.7816164E-02  0.1186339E+00
        -11   -1    0    0    0    0  0.00000000000E+00  0.00000000000E+00  0.45593999997E+02  0.45594000000E+02  0.51100000000E-03 0.  1.
         11   -1    0    0    0    0 -0.00000000000E+00 -0.00000000000E+00 -0.45593999997E+02  0.45594000000E+02  0.51100000000E-03 0. -1.
    9900012    2    1    2    0    0  0.22334813174E+00  0.10169022010E+01  0.55599285146E+00  0.90007702357E+02  0.89999963228E+02 0.  0.
        -12    1    1    2    0    0 -0.22334813174E+00 -0.10169022010E+01 -0.55599285146E+00  0.11802976427E+01  0.00000000000E+00 0.  1.
         11    1    3    3    0    0  0.36349470761E+02  0.33020169325E+01  0.63836785528E+01  0.37053187347E+02  0.51100000000E-03 0. -1.
        -11    1    3    3    0    0  0.74542004746E+01  0.24200336229E+01 -0.46339552944E+01  0.91046806304E+01  0.51100000000E-03 0.  1.
        -12    1    3    3    0    0 -0.43580323104E+02 -0.47051483544E+01 -0.11937304070E+01  0.43849834380E+02  0.00000000000E+00 0.  1.
</event>
<event>
 7    1  0.3622165E-015  0.9000759E+02  0.7816164E-02  0.1186339E+00
        -11   -1    0    0    0    0  0.00000000000E+00  0.00000000000E+00  0.45593999997E+02  0.45594000000E+02  0.51100000000E-03 0.  1.
         11   -1    0    0    0    0 -0.00000000000E+00 -0.00000000000E+00 -0.45593999997E+02  0.45594000000E+02  0.51100000000E-03 0. -1.
    9900012    2    1    2    0    0  0.46007754154E+00 -0.71581816438E+00 -0.81810319354E+00  0.90007593365E+02  0.89999852797E+02 0.  0.
        -12    1    1    2    0    0 -0.46007754154E+00  0.71581816438E+00  0.81810319354E+00  0.11804066350E+01  0.00000000000E+00 0.  1.
         11    1    3    3    0    0 -0.13405318525E+00 -0.93106902218E+01 -0.26315897211E+01  0.96763726357E+01  0.51100000000E-03 0. -1.
        -11    1    3    3    0    0  0.54980924025E+01  0.26137544879E+02  0.34067186377E+02  0.43289415106E+02  0.51100000000E-03 0.  1.
         12    1    3    3    0    0 -0.49039616757E+01 -0.17542672821E+02 -0.32253699849E+02  0.37041805623E+02  0.00000000000E+00 0. -1.
</event>
<event>
 7    1  0.3622165E-015  0.9000786E+02  0.7816164E-02  0.1186339E+00
        -11   -1    0    0    0    0  0.00000000000E+00  0.00000000000E+00  0.45593999997E+02  0.45594000000E+02  0.51100000000E-03 0.  1.
         11   -1    0    0    0    0 -0.00000000000E+00 -0.00000000000E+00 -0.45593999997E+02  0.45594000000E+02  0.51100000000E-03 0. -1.
    9900012    2    1    2    0    0 -0.90321722244E+00 -0.31087814960E+00 -0.69302649844E+00  0.90007859202E+02  0.90000122144E+02 0.  0.
        -12    1    1    2    0    0  0.90321722244E+00  0.31087814960E+00  0.69302649844E+00  0.11801407977E+01  0.00000000000E+00 0.  1.
         11    1    3    3    0    0  0.11713547114E+02 -0.74683884302E+01  0.93094425173E+01  0.16722730997E+02  0.51100000000E-03 0. -1.
        -11    1    3    3    0    0  0.25849661323E+02  0.19236950707E+02 -0.59082763596E+01  0.32759319175E+02  0.51100000000E-03 0.  1.
         12    1    3    3    0    0 -0.38466425660E+02 -0.12079440427E+02 -0.40941926561E+01  0.40525809030E+02  0.00000000000E+00 0. -1.
</event>
<event>
 7    1  0.3622165E-015  0.9000782E+02  0.7816164E-02  0.1186339E+00
        -11   -1    0    0    0    0  0.00000000000E+00  0.00000000000E+00  0.45593999997E+02  0.45594000000E+02  0.51100000000E-03 0.  1.
         11   -1    0    0    0    0 -0.00000000000E+00 -0.00000000000E+00 -0.45593999997E+02  0.45594000000E+02  0.51100000000E-03 0. -1.
    9900012    2    1    2    0    0 -0.55562313269E+00  0.88821650392E+00  0.54329325859E+00  0.90007824933E+02  0.90000087422E+02 0.  0.
        -12    1    1    2    0    0  0.55562313269E+00 -0.88821650392E+00 -0.54329325859E+00  0.11801750668E+01  0.00000000000E+00 0.  1.
         11    1    3    3    0    0  0.73683240903E+00 -0.18938690854E+01  0.91915660674E+01  0.94135301107E+01  0.51100000000E-03 0. -1.
        -11    1    3    3    0    0 -0.64471832720E+01  0.24472837372E+01  0.35490508966E+02  0.36154274944E+02  0.51100000000E-03 0.  1.
         12    1    3    3    0    0  0.51547277303E+01  0.33480185207E+00 -0.44138781775E+02  0.44440019878E+02  0.00000000000E+00 0. -1.
</event>
<event>
 7    1  0.3622165E-015  0.9000773E+02  0.7816164E-02  0.1186339E+00
        -11   -1    0    0    0    0  0.00000000000E+00  0.00000000000E+00  0.45593999997E+02  0.45594000000E+02  0.51100000000E-03 0.  1.
         11   -1    0    0    0    0 -0.00000000000E+00 -0.00000000000E+00 -0.45593999997E+02  0.45594000000E+02  0.51100000000E-03 0. -1.
    9900012    2    1    2    0    0  0.18292378764E+00 -0.32477995838E+00 -0.11198630516E+01  0.90007730375E+02  0.89999991616E+02 0.  0.
        -12    1    1    2    0    0 -0.18292378764E+00  0.32477995838E+00  0.11198630516E+01  0.11802696250E+01  0.00000000000E+00 0.  1.
         11    1    3    3    0    0  0.40454818963E+01 -0.60036727078E+01 -0.67268088462E+01  0.98823057669E+01  0.51100000000E-03 0. -1.
        -11    1    3    3    0    0 -0.84308555741E+01 -0.14585982750E+02  0.38043562676E+02  0.41607005177E+02  0.51100000000E-03 0.  1.
         12    1    3    3    0    0  0.45682974655E+01  0.20264875499E+02 -0.32436616881E+02  0.38518419431E+02  0.00000000000E+00 0. -1.
</event>
<event>
 7    1  0.3622165E-015  0.9000724E+02  0.7816164E-02  0.1186340E+00
        -11   -1    0    0    0    0  0.00000000000E+00  0.00000000000E+00  0.45593999997E+02  0.45594000000E+02  0.51100000000E-03 0.  1.
         11   -1    0    0    0    0 -0.00000000000E+00 -0.00000000000E+00 -0.45593999997E+02  0.45594000000E+02  0.51100000000E-03 0. -1.
    9900012    2    1    2    0    0  0.11011020535E+01  0.10609662918E+00 -0.41294203198E+00  0.90007236116E+02  0.89999490832E+02 0.  0.
        -12    1    1    2    0    0 -0.11011020535E+01 -0.10609662918E+00  0.41294203198E+00  0.11807638836E+01  0.00000000000E+00 0.  1.
         11    1    3    3    0    0  0.30036693962E+02 -0.30060654802E+02  0.44545819918E+01  0.42728085052E+02  0.51100000000E-03 0. -1.
        -11    1    3    3    0    0 -0.25972739625E+01  0.41838829005E+01  0.68805049085E+01  0.84612089100E+01  0.51100000000E-03 0.  1.
        -12    1    3    3    0    0 -0.26338317946E+02  0.25982868530E+02 -0.11748028932E+02  0.38817942154E+02  0.00000000000E+00 0.  1.
</event>
<event>
 7    1  0.3622165E-015  0.9000777E+02  0.7816164E-02  0.1186339E+00
        -11   -1    0    0    0    0  0.00000000000E+00  0.00000000000E+00  0.45593999997E+02  0.45594000000E+02  0.51100000000E-03 0.  1.
         11   -1    0    0    0    0 -0.00000000000E+00 -0.00000000000E+00 -0.45593999997E+02  0.45594000000E+02  0.51100000000E-03 0. -1.
    9900012    2    1    2    0    0  0.82988515979E+00 -0.71507295419E+00 -0.43920229905E+00  0.90007772324E+02  0.90000034118E+02 0.  0.
        -12    1    1    2    0    0 -0.82988515979E+00  0.71507295419E+00  0.43920229905E+00  0.11802276762E+01  0.00000000000E+00 0.  1.
         11    1    3    3    0    0 -0.95630191988E+01 -0.25338548832E+01  0.17148200254E+01  0.10040536079E+02  0.51100000000E-03 0. -1.
        -11    1    3    3    0    0  0.92624634688E+01 -0.26661739310E+02  0.27096297831E+02  0.39126090132E+02  0.51100000000E-03 0.  1.
         12    1    3    3    0    0  0.11304408897E+01  0.28480521239E+02 -0.29250320156E+02  0.40841146114E+02  0.00000000000E+00 0. -1.
</event>
<event>
 7    1  0.3622165E-015  0.9000789E+02  0.7816164E-02  0.1186339E+00
        -11   -1    0    0    0    0  0.00000000000E+00  0.00000000000E+00  0.45593999997E+02  0.45594000000E+02  0.51100000000E-03 0. -1.
         11   -1    0    0    0    0 -0.00000000000E+00 -0.00000000000E+00 -0.45593999997E+02  0.45594000000E+02  0.51100000000E-03 0.  1.
    9900012    2    1    2    0    0 -0.98071406060E+00 -0.65498122151E+00  0.43227256503E-01  0.90007885995E+02  0.90000149290E+02 0.  0.
        -12    1    1    2    0    0  0.98071406060E+00  0.65498122151E+00 -0.43227256503E-01  0.11801140050E+01  0.00000000000E+00 0.  1.
         11    1    3    3    0    0 -0.80520248019E+01  0.49472494791E+01  0.55848232640E+01  0.10977277986E+02  0.51100000000E-03 0. -1.
        -11    1    3    3    0    0 -0.30603198170E+02  0.15542415595E+02  0.46632820686E+01  0.34639119802E+02  0.51100000000E-03 0.  1.
         12    1    3    3    0    0  0.37674508911E+02 -0.21144646296E+02 -0.10204878076E+02  0.44391488207E+02  0.00000000000E+00 0. -1.
</event>
<event>
 7    1  0.3622165E-015  0.9000771E+02  0.7816164E-02  0.1186339E+00
        -11   -1    0    0    0    0  0.00000000000E+00  0.00000000000E+00  0.45593999997E+02  0.45594000000E+02  0.51100000000E-03 0. -1.
         11   -1    0    0    0    0 -0.00000000000E+00 -0.00000000000E+00 -0.45593999997E+02  0.45594000000E+02  0.51100000000E-03 0.  1.
    9900012    2    1    2    0    0 -0.20485863725E+00 -0.79551601892E+00  0.84750562290E+00  0.90007712502E+02  0.89999973507E+02 0.  0.
        -12    1    1    2    0    0  0.20485863725E+00  0.79551601892E+00 -0.84750562290E+00  0.11802874982E+01  0.00000000000E+00 0.  1.
         11    1    3    3    0    0 -0.23887996000E+02  0.89719776600E+01  0.31397265693E+02  0.40458880722E+02  0.51100000000E-03 0. -1.
        -11    1    3    3    0    0 -0.69058829951E+01 -0.63628941591E+00 -0.72082162271E+01  0.10002722909E+02  0.51100000000E-03 0.  1.
        -12    1    3    3    0    0  0.30589020358E+02 -0.91312042630E+01 -0.23341543843E+02  0.39546108870E+02  0.00000000000E+00 0.  1.
</event>
<event>
 7    1  0.3622165E-015  0.9000764E+02  0.7816164E-02  0.1186339E+00
        -11   -1    0    0    0    0  0.00000000000E+00  0.00000000000E+00  0.45593999997E+02  0.45594000000E+02  0.51100000000E-03 0.  1.
         11   -1    0    0    0    0 -0.00000000000E+00 -0.00000000000E+00 -0.45593999997E+02  0.45594000000E+02  0.51100000000E-03 0. -1.
    9900012    2    1    2    0    0  0.74642347032E-01  0.52287802014E+00 -0.10555967103E+01  0.90007636785E+02  0.89999896791E+02 0.  0.
        -12    1    1    2    0    0 -0.74642347032E-01 -0.52287802014E+00  0.10555967103E+01  0.11803632148E+01  0.00000000000E+00 0.  1.
         11    1    3    3    0    0 -0.12319556213E+01  0.40123283065E+02 -0.25950216491E+01  0.40225982850E+02  0.51100000000E-03 0. -1.
        -11    1    3    3    0    0  0.94091174173E+01 -0.49866533635E+00 -0.21962363284E+01  0.96748959664E+01  0.51100000000E-03 0.  1.
        -12    1    3    3    0    0 -0.81025194489E+01 -0.39101739709E+02  0.37356612673E+01  0.40106757969E+02  0.00000000000E+00 0.  1.
</event>
<event>
 7    1  0.3622165E-015  0.9000767E+02  0.7816164E-02  0.1186339E+00
        -11   -1    0    0    0    0  0.00000000000E+00  0.00000000000E+00  0.45593999997E+02  0.45594000000E+02  0.51100000000E-03 0.  1.
         11   -1    0    0    0    0 -0.00000000000E+00 -0.00000000000E+00 -0.45593999997E+02  0.45594000000E+02  0.51100000000E-03 0. -1.
    9900012    2    1    2    0    0  0.97259498312E+00 -0.50398640617E+00  0.43957394428E+00  0.90007674388E+02  0.89999934889E+02 0.  0.
        -12    1    1    2    0    0 -0.97259498312E+00  0.50398640617E+00 -0.43957394428E+00  0.11803256124E+01  0.00000000000E+00 0.  1.
         11    1    3    3    0    0  0.27955219796E+01 -0.39509936713E+02 -0.11484704035E+02  0.41240131780E+02  0.51100000000E-03 0. -1.
        -11    1    3    3    0    0  0.35972978581E+01  0.34380922853E+01 -0.66275354886E+01  0.82876569280E+01  0.51100000000E-03 0.  1.
        -12    1    3    3    0    0 -0.54202248546E+01  0.35567858021E+02  0.18551813468E+02  0.40479885680E+02  0.00000000000E+00 0.  1.
</event>
<event>
 7    1  0.3622165E-015  0.9000771E+02  0.7816164E-02  0.1186339E+00
        -11   -1    0    0    0    0  0.00000000000E+00  0.00000000000E+00  0.45593999997E+02  0.45594000000E+02  0.51100000000E-03 0.  1.
         11   -1    0    0    0    0 -0.00000000000E+00 -0.00000000000E+00 -0.45593999997E+02  0.45594000000E+02  0.51100000000E-03 0. -1.
    9900012    2    1    2    0    0 -0.39782532735E+00  0.70622162712E+00 -0.85794590148E+00  0.90007709719E+02  0.89999970687E+02 0.  0.
        -12    1    1    2    0    0  0.39782532735E+00 -0.70622162712E+00  0.85794590148E+00  0.11802902811E+01  0.00000000000E+00 0.  1.
         11    1    3    3    0    0 -0.13057172727E+02 -0.62912888295E+01 -0.21603462333E+01  0.14653913159E+02  0.51100000000E-03 0. -1.
        -11    1    3    3    0    0 -0.29046916762E+02 -0.93750384774E+01 -0.21883453771E+00  0.30523148734E+02  0.51100000000E-03 0.  1.
         12    1    3    3    0    0  0.41706264162E+02  0.16372548934E+02  0.15212348695E+01  0.44830647826E+02  0.00000000000E+00 0. -1.
</event>
<event>
 7    1  0.3622165E-015  0.9000767E+02  0.7816164E-02  0.1186339E+00
        -11   -1    0    0    0    0  0.00000000000E+00  0.00000000000E+00  0.45593999997E+02  0.45594000000E+02  0.51100000000E-03 0.  1.
         11   -1    0    0    0    0 -0.00000000000E+00 -0.00000000000E+00 -0.45593999997E+02  0.45594000000E+02  0.51100000000E-03 0. -1.
    9900012    2    1    2    0    0 -0.10983924308E+01  0.40894638841E+00 -0.13952376341E+00  0.90007673790E+02  0.89999934284E+02 0.  0.
        -12    1    1    2    0    0  0.10983924308E+01 -0.40894638841E+00  0.13952376341E+00  0.11803262097E+01  0.00000000000E+00 0.  1.
         11    1    3    3    0    0 -0.10052116610E+02 -0.31702349163E+02 -0.21118277602E+02  0.39396264289E+02  0.51100000000E-03 0. -1.
        -11    1    3    3    0    0  0.61461038762E+01  0.44070455909E+01 -0.75914580601E+01  0.10715730467E+02  0.51100000000E-03 0.  1.
        -12    1    3    3    0    0  0.28076203028E+01  0.27704249961E+02  0.28570211899E+02  0.39895679034E+02  0.00000000000E+00 0.  1.
</event>
<event>
 7    1  0.3622165E-015  0.9000773E+02  0.7816164E-02  0.1186339E+00
        -11   -1    0    0    0    0  0.00000000000E+00  0.00000000000E+00  0.45593999997E+02  0.45594000000E+02  0.51100000000E-03 0. -1.
         11   -1    0    0    0    0 -0.00000000000E+00 -0.00000000000E+00 -0.45593999997E+02  0.45594000000E+02  0.51100000000E-03 0.  1.
    9900012    2    1    2    0    0 -0.11210891912E+01  0.19171118792E-01  0.36854624291E+00  0.90007731031E+02  0.89999992280E+02 0.  0.
        -12    1    1    2    0    0  0.11210891912E+01 -0.19171118792E-01 -0.36854624291E+00  0.11802689692E+01  0.00000000000E+00 0.  1.
         11    1    3    3    0    0  0.53132156264E+01 -0.37485937972E+02  0.11515711309E+02  0.39573190585E+02  0.51100000000E-03 0. -1.
        -11    1    3    3    0    0 -0.55986627987E+01 -0.57848693352E+00 -0.10983218688E+02  0.12341424767E+02  0.51100000000E-03 0.  1.
        -12    1    3    3    0    0 -0.83564201888E+00  0.38083596024E+02 -0.16394637787E+00  0.38093115679E+02  0.00000000000E+00 0.  1.
</event>
<event>
 7    1  0.3622165E-015  0.9000773E+02  0.7816164E-02  0.1186339E+00
        -11   -1    0    0    0    0  0.00000000000E+00  0.00000000000E+00  0.45593999997E+02  0.45594000000E+02  0.51100000000E-03 0.  1.
         11   -1    0    0    0    0 -0.00000000000E+00 -0.00000000000E+00 -0.45593999997E+02  0.45594000000E+02  0.51100000000E-03 0. -1.
    9900012    2    1    2    0    0 -0.40650037110E-01  0.49066775855E+00 -0.10726775163E+01  0.90007727011E+02  0.89999988207E+02 0.  0.
        -12    1    1    2    0    0  0.40650037110E-01 -0.49066775855E+00  0.10726775163E+01  0.11802729891E+01  0.00000000000E+00 0.  1.
         11    1    3    3    0    0 -0.84669769133E+01  0.32671653126E+01  0.31405209318E+01  0.96034857845E+01  0.51100000000E-03 0. -1.
        -11    1    3    3    0    0 -0.17969092032E+02 -0.27716601493E+02  0.18216115470E+02  0.37721679838E+02  0.51100000000E-03 0.  1.
         12    1    3    3    0    0  0.26395418908E+02  0.24940103939E+02 -0.22429313918E+02  0.42682561388E+02  0.00000000000E+00 0. -1.
</event>
<event>
 7    1  0.3622165E-015  0.9000760E+02  0.7816164E-02  0.1186339E+00
        -11   -1    0    0    0    0  0.00000000000E+00  0.00000000000E+00  0.45593999997E+02  0.45594000000E+02  0.51100000000E-03 0. -1.
         11   -1    0    0    0    0 -0.00000000000E+00 -0.00000000000E+00 -0.45593999997E+02  0.45594000000E+02  0.51100000000E-03 0.  1.
    9900012    2    1    2    0    0  0.67800195950E+00  0.95789100664E+00  0.12689147168E+00  0.90007600371E+02  0.89999859896E+02 0.  0.
        -12    1    1    2    0    0 -0.67800195950E+00 -0.95789100664E+00 -0.12689147168E+00  0.11803996286E+01  0.00000000000E+00 0.  1.
         11    1    3    3    0    0  0.17892503685E+02  0.27974226508E+02  0.29815413090E+02  0.44627994519E+02  0.51100000000E-03 0. -1.
        -11    1    3    3    0    0  0.33481399848E+00 -0.85017985770E+01 -0.49462672269E+01  0.98416583561E+01  0.51100000000E-03 0.  1.
        -12    1    3    3    0    0 -0.17549315724E+02 -0.18514536924E+02 -0.24742254391E+02  0.35537947496E+02  0.00000000000E+00 0.  1.
</event>
<event>
 7    1  0.3622165E-015  0.9000757E+02  0.7816164E-02  0.1186339E+00
        -11   -1    0    0    0    0  0.00000000000E+00  0.00000000000E+00  0.45593999997E+02  0.45594000000E+02  0.51100000000E-03 0. -1.
         11   -1    0    0    0    0 -0.00000000000E+00 -0.00000000000E+00 -0.45593999997E+02  0.45594000000E+02  0.51100000000E-03 0.  1.
    9900012    2    1    2    0    0 -0.11233362041E+01 -0.36128516760E+00 -0.31831205008E-01  0.90007566001E+02  0.89999825072E+02 0.  0.
        -12    1    1    2    0    0  0.11233362041E+01  0.36128516760E+00  0.31831205008E-01  0.11804339987E+01  0.00000000000E+00 0.  1.
         11    1    3    3    0    0  0.91210201109E+01 -0.52710815212E+01  0.68342574395E+01  0.12557244255E+02  0.51100000000E-03 0. -1.
        -11    1    3    3    0    0  0.11716277073E+02 -0.31775046119E+02 -0.75135986563E+01  0.34689751647E+02  0.51100000000E-03 0.  1.
         12    1    3    3    0    0 -0.21960633388E+02  0.36684842472E+02  0.64751001181E+00  0.42760570099E+02  0.00000000000E+00 0. -1.
</event>
<event>
 7    1  0.3622165E-015  0.9000788E+02  0.7816164E-02  0.1186339E+00
        -11   -1    0    0    0    0  0.00000000000E+00  0.00000000000E+00  0.45593999997E+02  0.45594000000E+02  0.51100000000E-03 0.  1.
         11   -1    0    0    0    0 -0.00000000000E+00 -0.00000000000E+00 -0.45593999997E+02  0.45594000000E+02  0.51100000000E-03 0. -1.
    9900012    2    1    2    0    0 -0.67959894575E+00 -0.95839610000E+00 -0.11090937414E+00  0.90007881912E+02  0.90000145153E+02 0.  0.
        -12    1    1    2    0    0  0.67959894575E+00  0.95839610000E+00  0.11090937414E+00  0.11801180877E+01  0.00000000000E+00 0.  1.
         11    1    3    3    0    0  0.15269541368E+01 -0.78435239610E+01  0.42014099248E+01  0.90279733429E+01  0.51100000000E-03 0. -1.
        -11    1    3    3    0    0  0.21363004860E+02 -0.29921311441E+02  0.20042186116E+01  0.36819556591E+02  0.51100000000E-03 0.  1.
         12    1    3    3    0    0 -0.23569557943E+02  0.36806439302E+02 -0.63165379105E+01  0.44160351979E+02  0.00000000000E+00 0. -1.
</event>
<event>
 7    1  0.3622165E-015  0.9000765E+02  0.7816164E-02  0.1186339E+00
        -11   -1    0    0    0    0  0.00000000000E+00  0.00000000000E+00  0.45593999997E+02  0.45594000000E+02  0.51100000000E-03 0. -1.
         11   -1    0    0    0    0 -0.00000000000E+00 -0.00000000000E+00 -0.45593999997E+02  0.45594000000E+02  0.51100000000E-03 0.  1.
    9900012    2    1    2    0    0 -0.23150683463E+00  0.61388766746E-01  0.11557970496E+01  0.90007648012E+02  0.89999908166E+02 0.  0.
        -12    1    1    2    0    0  0.23150683463E+00 -0.61388766746E-01 -0.11557970496E+01  0.11803519878E+01  0.00000000000E+00 0.  1.
         11    1    3    3    0    0 -0.98055062375E+01  0.33883271023E+00 -0.70477298685E+01  0.12080283802E+02  0.51100000000E-03 0. -1.
        -11    1    3    3    0    0 -0.11831401571E+01 -0.37336395304E+02  0.11792242546E+02  0.39172225102E+02  0.51100000000E-03 0.  1.
         12    1    3    3    0    0  0.10757139560E+02  0.37058951360E+02 -0.35887156275E+01  0.38755139108E+02  0.00000000000E+00 0. -1.
</event>
<event>
 7    1  0.3622165E-015  0.9000774E+02  0.7816164E-02  0.1186339E+00
        -11   -1    0    0    0    0  0.00000000000E+00  0.00000000000E+00  0.45593999997E+02  0.45594000000E+02  0.51100000000E-03 0. -1.
         11   -1    0    0    0    0 -0.00000000000E+00 -0.00000000000E+00 -0.45593999997E+02  0.45594000000E+02  0.51100000000E-03 0.  1.
    9900012    2    1    2    0    0 -0.11655474155E+01 -0.16182079689E+00  0.91195785635E-01  0.90007744342E+02  0.90000005767E+02 0.  0.
        -12    1    1    2    0    0  0.11655474155E+01  0.16182079689E+00 -0.91195785635E-01  0.11802556585E+01  0.00000000000E+00 0.  1.
         11    1    3    3    0    0  0.27487761818E+02 -0.10402444794E+02  0.29538150929E+02  0.41668816494E+02  0.51100000000E-03 0. -1.
        -11    1    3    3    0    0 -0.56002894936E+01 -0.66085349371E+01 -0.23528741102E+01  0.89761903537E+01  0.51100000000E-03 0.  1.
        -12    1    3    3    0    0 -0.23053019740E+02  0.16849158934E+02 -0.27094081033E+02  0.39362737493E+02  0.00000000000E+00 0.  1.
</event>
<event>
 7    1  0.3622165E-015  0.9000741E+02  0.7816164E-02  0.1186340E+00
        -11   -1    0    0    0    0  0.00000000000E+00  0.00000000000E+00  0.45593999997E+02  0.45594000000E+02  0.51100000000E-03 0. -1.
         11   -1    0    0    0    0 -0.00000000000E+00 -0.00000000000E+00 -0.45593999997E+02  0.45594000000E+02  0.51100000000E-03 0.  1.
    9900012    2    1    2    0    0  0.29645733634E+00  0.68858335272E+00 -0.91200790749E+00  0.90007410144E+02  0.89999667157E+02 0.  0.
        -12    1    1    2    0    0 -0.29645733634E+00 -0.68858335272E+00  0.91200790749E+00  0.11805898565E+01  0.00000000000E+00 0.  1.
         11    1    3    3    0    0  0.13925416502E+01 -0.13689202918E+02  0.29718123192E+02  0.32749050293E+02  0.51100000000E-03 0. -1.
        -11    1    3    3    0    0  0.26833309963E+01 -0.71391848063E+01  0.91271324575E+01  0.11894232724E+02  0.51100000000E-03 0.  1.
        -12    1    3    3    0    0 -0.37794153102E+01  0.21516971077E+02 -0.39757263557E+02  0.45364127127E+02  0.00000000000E+00 0.  1.
</event>
<event>
 7    1  0.3622165E-015  0.9000777E+02  0.7816164E-02  0.1186339E+00
        -11   -1    0    0    0    0  0.00000000000E+00  0.00000000000E+00  0.45593999997E+02  0.45594000000E+02  0.51100000000E-03 0.  1.
         11   -1    0    0    0    0 -0.00000000000E+00 -0.00000000000E+00 -0.45593999997E+02  0.45594000000E+02  0.51100000000E-03 0. -1.
    9900012    2    1    2    0    0 -0.54983608825E+00 -0.85034782902E+00 -0.60625074326E+00  0.90007766499E+02  0.90000028216E+02 0.  0.
        -12    1    1    2    0    0  0.54983608825E+00  0.85034782902E+00  0.60625074326E+00  0.11802335015E+01  0.00000000000E+00 0.  1.
         11    1    3    3    0    0  0.41936874997E+01  0.28924929190E+01  0.89480404775E+01  0.10296647939E+02  0.51100000000E-03 0. -1.
        -11    1    3    3    0    0 -0.33278470407E+02  0.22582681588E+02 -0.29044690724E+01  0.40322078830E+02  0.51100000000E-03 0.  1.
         12    1    3    3    0    0  0.28534946819E+02 -0.26325522336E+02 -0.66498221483E+01  0.39389039730E+02  0.00000000000E+00 0. -1.
</event>
<event>
 7    1  0.3622165E-015  0.9000693E+02  0.7816164E-02  0.1186341E+00
        -11   -1    0    0    0    0  0.00000000000E+00  0.00000000000E+00  0.45593999997E+02  0.45594000000E+02  0.51100000000E-03 0.  1.
         11   -1    0    0    0    0 -0.00000000000E+00 -0.00000000000E+00 -0.45593999997E+02  0.45594000000E+02  0.51100000000E-03 0. -1.
    9900012    2    1    2    0    0 -0.42788016257E+00 -0.10936307211E+01 -0.12573575793E+00  0.90006933080E+02  0.89999183793E+02 0.  0.
        -12    1    1    2    0    0  0.42788016257E+00  0.10936307211E+01  0.12573575793E+00  0.11810669196E+01  0.00000000000E+00 0.  1.
         11    1    3    3    0    0  0.25575756548E+02  0.31587729829E+02 -0.21307797537E+01  0.40699437605E+02  0.51100000000E-03 0. -1.
        -11    1    3    3    0    0  0.32028946093E+01 -0.76294307879E+01 -0.57223451532E+01  0.10060416609E+02  0.51100000000E-03 0.  1.
        -12    1    3    3    0    0 -0.29206531320E+02 -0.25051929762E+02  0.77273891489E+01  0.39247078867E+02  0.00000000000E+00 0.  1.
</event>
<event>
 7    1  0.3622165E-015  0.9000780E+02  0.7816164E-02  0.1186339E+00
        -11   -1    0    0    0    0  0.00000000000E+00  0.00000000000E+00  0.45593999997E+02  0.45594000000E+02  0.51100000000E-03 0.  1.
         11   -1    0    0    0    0 -0.00000000000E+00 -0.00000000000E+00 -0.45593999997E+02  0.45594000000E+02  0.51100000000E-03 0. -1.
    9900012    2    1    2    0    0  0.53547724397E+00 -0.31288767888E+00 -0.10041066244E+01  0.90007803113E+02  0.90000065314E+02 0.  0.
        -12    1    1    2    0    0 -0.53547724397E+00  0.31288767888E+00  0.10041066244E+01  0.11801968868E+01  0.00000000000E+00 0.  1.
         11    1    3    3    0    0 -0.12301114473E+01  0.89487497621E+01  0.13024834268E+02  0.15850539563E+02  0.51100000000E-03 0. -1.
        -11    1    3    3    0    0 -0.19381159599E+02 -0.10372634016E+02  0.22802082835E+02  0.31672635913E+02  0.51100000000E-03 0.  1.
         12    1    3    3    0    0  0.21146748291E+02  0.11109965750E+01 -0.36831023727E+02  0.42484627637E+02  0.00000000000E+00 0. -1.
</event>
<event>
 7    1  0.3622165E-015  0.9000754E+02  0.7816164E-02  0.1186339E+00
        -11   -1    0    0    0    0  0.00000000000E+00  0.00000000000E+00  0.45593999997E+02  0.45594000000E+02  0.51100000000E-03 0. -1.
         11   -1    0    0    0    0 -0.00000000000E+00 -0.00000000000E+00 -0.45593999997E+02  0.45594000000E+02  0.51100000000E-03 0.  1.
    9900012    2    1    2    0    0  0.10508700174E+01  0.15698053904E+00  0.51430546533E+00  0.90007542125E+02  0.89999800881E+02 0.  0.
        -12    1    1    2    0    0 -0.10508700174E+01 -0.15698053904E+00 -0.51430546533E+00  0.11804578751E+01  0.00000000000E+00 0.  1.
         11    1    3    3    0    0  0.27542282071E+02 -0.21857843657E+02 -0.87248369426E+01  0.36227964488E+02  0.51100000000E-03 0. -1.
        -11    1    3    3    0    0  0.84742232151E+01  0.14820729984E+01 -0.59711532205E+01  0.10472042328E+02  0.51100000000E-03 0.  1.
        -12    1    3    3    0    0 -0.34965635268E+02  0.20532751198E+02  0.15210295628E+02  0.43307535309E+02  0.00000000000E+00 0.  1.
</event>
<event>
 7    1  0.3622165E-015  0.9000677E+02  0.7816164E-02  0.1186341E+00
        -11   -1    0    0    0    0  0.00000000000E+00  0.00000000000E+00  0.45593999997E+02  0.45594000000E+02  0.51100000000E-03 0. -1.
         11   -1    0    0    0    0 -0.00000000000E+00 -0.00000000000E+00 -0.45593999997E+02  0.45594000000E+02  0.51100000000E-03 0.  1.
    9900012    2    1    2    0    0  0.11777190472E+01 -0.71978352839E-01 -0.55731019412E-01  0.90006768023E+02  0.89999016555E+02 0.  0.
        -12    1    1    2    0    0 -0.11777190472E+01  0.71978352839E-01  0.55731019412E-01  0.11812319772E+01  0.00000000000E+00 0.  1.
         11    1    3    3    0    0 -0.68991634454E+00 -0.33687551638E+02  0.25688922018E+02  0.42370365052E+02  0.51100000000E-03 0. -1.
        -11    1    3    3    0    0 -0.82808921008E+01  0.51067395025E+01 -0.76644525993E+01  0.12385305658E+02  0.51100000000E-03 0.  1.
        -12    1    3    3    0    0  0.10148527493E+02  0.28508833783E+02 -0.18080200438E+02  0.35251097313E+02  0.00000000000E+00 0.  1.
</event>
<event>
 7    1  0.3622165E-015  0.9000774E+02  0.7816164E-02  0.1186339E+00
        -11   -1    0    0    0    0  0.00000000000E+00  0.00000000000E+00  0.45593999997E+02  0.45594000000E+02  0.51100000000E-03 0.  1.
         11   -1    0    0    0    0 -0.00000000000E+00 -0.00000000000E+00 -0.45593999997E+02  0.45594000000E+02  0.51100000000E-03 0. -1.
    9900012    2    1    2    0    0  0.59835464577E+00 -0.33243836950E-01 -0.10168023496E+01  0.90007737125E+02  0.89999998456E+02 0.  0.
        -12    1    1    2    0    0 -0.59835464577E+00  0.33243836950E-01  0.10168023496E+01  0.11802628745E+01  0.00000000000E+00 0.  1.
         11    1    3    3    0    0 -0.57194004896E+01  0.12414679326E+02 -0.37893564520E+02  0.40283471015E+02  0.51100000000E-03 0. -1.
        -11    1    3    3    0    0  0.42511293908E+01 -0.73019334592E+01 -0.33705176096E+01  0.90967424146E+01  0.51100000000E-03 0.  1.
        -12    1    3    3    0    0  0.20666257447E+01 -0.51459897039E+01  0.40247279780E+02  0.40627523696E+02  0.00000000000E+00 0.  1.
</event>
<event>
 7    1  0.3622165E-015  0.9000766E+02  0.7816164E-02  0.1186339E+00
        -11   -1    0    0    0    0  0.00000000000E+00  0.00000000000E+00  0.45593999997E+02  0.45594000000E+02  0.51100000000E-03 0.  1.
         11   -1    0    0    0    0 -0.00000000000E+00 -0.00000000000E+00 -0.45593999997E+02  0.45594000000E+02  0.51100000000E-03 0. -1.
    9900012    2    1    2    0    0  0.92762243416E+00  0.72474732319E+00 -0.86308153853E-01  0.90007664810E+02  0.89999925186E+02 0.  0.
        -12    1    1    2    0    0 -0.92762243416E+00 -0.72474732319E+00  0.86308153853E-01  0.11803351898E+01  0.00000000000E+00 0.  1.
         11    1    3    3    0    0 -0.10836460483E+02  0.23294824221E+01 -0.97279648567E+00  0.11126621114E+02  0.51100000000E-03 0. -1.
        -11    1    3    3    0    0 -0.10905697203E+02  0.12572617375E+02  0.33080659706E+02  0.37031540422E+02  0.51100000000E-03 0.  1.
         12    1    3    3    0    0  0.22669780120E+02 -0.14177352474E+02 -0.32194171374E+02  0.41849503275E+02  0.00000000000E+00 0. -1.
</event>
<event>
 7    1  0.3622165E-015  0.9000776E+02  0.7816164E-02  0.1186339E+00
        -11   -1    0    0    0    0  0.00000000000E+00  0.00000000000E+00  0.45593999997E+02  0.45594000000E+02  0.51100000000E-03 0.  1.
         11   -1    0    0    0    0 -0.00000000000E+00 -0.00000000000E+00 -0.45593999997E+02  0.45594000000E+02  0.51100000000E-03 0. -1.
    9900012    2    1    2    0    0 -0.80122084347E+00  0.76072906917E+00 -0.41510411113E+00  0.90007756390E+02  0.90000017974E+02 0.  0.
        -12    1    1    2    0    0  0.80122084347E+00 -0.76072906917E+00  0.41510411113E+00  0.11802436103E+01  0.00000000000E+00 0.  1.
         11    1    3    3    0    0 -0.27923205426E+02 -0.22791408321E+02 -0.14229055651E+02  0.38750738309E+02  0.51100000000E-03 0. -1.
        -11    1    3    3    0    0  0.73891855547E+01 -0.85538678535E+01  0.58965600841E+01  0.12749044651E+02  0.51100000000E-03 0.  1.
        -12    1    3    3    0    0  0.19732799028E+02  0.32106005244E+02  0.79173914555E+01  0.38507973430E+02  0.00000000000E+00 0.  1.
</event>
<event>
 7    1  0.3622165E-015  0.9000771E+02  0.7816164E-02  0.1186339E+00
        -11   -1    0    0    0    0  0.00000000000E+00  0.00000000000E+00  0.45593999997E+02  0.45594000000E+02  0.51100000000E-03 0. -1.
         11   -1    0    0    0    0 -0.00000000000E+00 -0.00000000000E+00 -0.45593999997E+02  0.45594000000E+02  0.51100000000E-03 0.  1.
    9900012    2    1    2    0    0  0.74241387077E+00  0.82515942317E+00 -0.40127963259E+00  0.90007706912E+02  0.89999967844E+02 0.  0.
        -12    1    1    2    0    0 -0.74241387077E+00 -0.82515942317E+00  0.40127963259E+00  0.11802930876E+01  0.00000000000E+00 0.  1.
         11    1    3    3    0    0  0.26590619784E+02  0.14291500329E+02  0.24561440204E+02  0.38917507465E+02  0.51100000000E-03 0. -1.
        -11    1    3    3    0    0  0.43461978427E+01 -0.50198449877E+01  0.45358348149E+01  0.80412733517E+01  0.51100000000E-03 0.  1.
        -12    1    3    3    0    0 -0.30194403755E+02 -0.84464959182E+01 -0.29498554652E+02  0.43048926096E+02  0.00000000000E+00 0.  1.
</event>
<event>
 7    1  0.3622165E-015  0.9000771E+02  0.7816164E-02  0.1186339E+00
        -11   -1    0    0    0    0  0.00000000000E+00  0.00000000000E+00  0.45593999997E+02  0.45594000000E+02  0.51100000000E-03 0.  1.
         11   -1    0    0    0    0 -0.00000000000E+00 -0.00000000000E+00 -0.45593999997E+02  0.45594000000E+02  0.51100000000E-03 0. -1.
    9900012    2    1    2    0    0  0.11211862839E+00  0.68464729276E+00 -0.95486717412E+00  0.90007710280E+02  0.89999971256E+02 0.  0.
        -12    1    1    2    0    0 -0.11211862839E+00 -0.68464729276E+00  0.95486717412E+00  0.11802897197E+01  0.00000000000E+00 0.  1.
         11    1    3    3    0    0  0.35116788871E+02 -0.96490374956E+00 -0.20110938749E+02  0.40479250951E+02  0.51100000000E-03 0. -1.
        -11    1    3    3    0    0 -0.22887418035E+01  0.65893072263E+01 -0.49826185144E+01  0.85722690279E+01  0.51100000000E-03 0.  1.
        -12    1    3    3    0    0 -0.32715928440E+02 -0.49397561839E+01  0.24138690089E+02  0.40956190302E+02  0.00000000000E+00 0.  1.
</event>
<event>
 7    1  0.3622165E-015  0.9000773E+02  0.7816164E-02  0.1186339E+00
        -11   -1    0    0    0    0  0.00000000000E+00  0.00000000000E+00  0.45593999997E+02  0.45594000000E+02  0.51100000000E-03 0.  1.
         11   -1    0    0    0    0 -0.00000000000E+00 -0.00000000000E+00 -0.45593999997E+02  0.45594000000E+02  0.51100000000E-03 0. -1.
    9900012    2    1    2    0    0 -0.11659511889E+01 -0.94142729969E-01  0.15725637906E+00  0.90007731133E+02  0.89999992384E+02 0.  0.
        -12    1    1    2    0    0  0.11659511889E+01  0.94142729969E-01 -0.15725637906E+00  0.11802688665E+01  0.00000000000E+00 0.  1.
         11    1    3    3    0    0  0.27416144425E+02 -0.12258243697E+02  0.50090940277E+01  0.30446683512E+02  0.51100000000E-03 0. -1.
        -11    1    3    3    0    0 -0.12275247698E+02  0.21024626301E+02  0.17886878679E+02  0.30210214271E+02  0.51100000000E-03 0.  1.
        -12    1    3    3    0    0 -0.16306847915E+02 -0.88605253340E+01 -0.22738716328E+02  0.29350833350E+02  0.00000000000E+00 0.  1.
</event>
<event>
 7    1  0.3622165E-015  0.9000773E+02  0.7816164E-02  0.1186339E+00
        -11   -1    0    0    0    0  0.00000000000E+00  0.00000000000E+00  0.45593999997E+02  0.45594000000E+02  0.51100000000E-03 0.  1.
         11   -1    0    0    0    0 -0.00000000000E+00 -0.00000000000E+00 -0.45593999997E+02  0.45594000000E+02  0.51100000000E-03 0. -1.
    9900012    2    1    2    0    0 -0.10936048392E+01  0.34169307656E+00 -0.28340047013E+00  0.90007728197E+02  0.89999989409E+02 0.  0.
        -12    1    1    2    0    0  0.10936048392E+01 -0.34169307656E+00  0.28340047013E+00  0.11802718032E+01  0.00000000000E+00 0.  1.
         11    1    3    3    0    0  0.33239758969E+02  0.25105143155E+01 -0.14524881591E+02  0.36361469221E+02  0.51100000000E-03 0. -1.
        -11    1    3    3    0    0  0.78543545886E+01 -0.35942241382E+01 -0.11543349669E+01  0.87144605476E+01  0.51100000000E-03 0.  1.
        -12    1    3    3    0    0 -0.42187718397E+02  0.14254028992E+01  0.15395816088E+02  0.44931798428E+02  0.00000000000E+00 0.  1.
</event>
<event>
 7    1  0.3622165E-015  0.9000773E+02  0.7816164E-02  0.1186339E+00
        -11   -1    0    0    0    0  0.00000000000E+00  0.00000000000E+00  0.45593999997E+02  0.45594000000E+02  0.51100000000E-03 0. -1.
         11   -1    0    0    0    0 -0.00000000000E+00 -0.00000000000E+00 -0.45593999997E+02  0.45594000000E+02  0.51100000000E-03 0.  1.
    9900012    2    1    2    0    0  0.22240021969E+00  0.88242391074E+00  0.75159553866E+00  0.90007733221E+02  0.89999994499E+02 0.  0.
        -12    1    1    2    0    0 -0.22240021969E+00 -0.88242391074E+00 -0.75159553866E+00  0.11802667790E+01  0.00000000000E+00 0.  1.
         11    1    3    3    0    0  0.65426257439E+01 -0.38600314412E+01  0.22022937654E+01  0.79092283090E+01  0.51100000000E-03 0. -1.
        -11    1    3    3    0    0  0.34192707278E+02  0.18777696011E+02 -0.35584705837E+01  0.39171492334E+02  0.51100000000E-03 0.  1.
         12    1    3    3    0    0 -0.40512932802E+02 -0.14035240659E+02  0.21077723570E+01  0.42927012578E+02  0.00000000000E+00 0. -1.
</event>
<event>
 7    1  0.3622165E-015  0.9000781E+02  0.7816164E-02  0.1186339E+00
        -11   -1    0    0    0    0  0.00000000000E+00  0.00000000000E+00  0.45593999997E+02  0.45594000000E+02  0.51100000000E-03 0.  1.
         11   -1    0    0    0    0 -0.00000000000E+00 -0.00000000000E+00 -0.45593999997E+02  0.45594000000E+02  0.51100000000E-03 0. -1.
    9900012    2    1    2    0    0 -0.12773364429E+00 -0.32120514761E+00 -0.11284359291E+01  0.90007806678E+02  0.90000068926E+02 0.  0.
        -12    1    1    2    0    0  0.12773364429E+00  0.32120514761E+00  0.11284359291E+01  0.11801933218E+01  0.00000000000E+00 0.  1.
         11    1    3    3    0    0 -0.12216487297E+02 -0.45665137374E+01 -0.37630947420E+02  0.39826923226E+02  0.51100000000E-03 0. -1.
        -11    1    3    3    0    0  0.81065590556E+00 -0.10695169318E+02  0.19760744804E+01  0.10906359629E+02  0.51100000000E-03 0.  1.
        -12    1    3    3    0    0  0.11278097747E+02  0.14940477908E+02  0.34526437011E+02  0.39274523824E+02  0.00000000000E+00 0.  1.
</event>
<event>
 7    1  0.3622165E-015  0.9000792E+02  0.7816164E-02  0.1186339E+00
        -11   -1    0    0    0    0  0.00000000000E+00  0.00000000000E+00  0.45593999997E+02  0.45594000000E+02  0.51100000000E-03 0. -1.
         11   -1    0    0    0    0 -0.00000000000E+00 -0.00000000000E+00 -0.45593999997E+02  0.45594000000E+02  0.51100000000E-03 0.  1.
    9900012    2    1    2    0    0 -0.80902723987E+00  0.84113020277E+00  0.17485604078E+00  0.90007915373E+02  0.90000179055E+02 0.  0.
        -12    1    1    2    0    0  0.80902723987E+00 -0.84113020277E+00 -0.17485604078E+00  0.11800846274E+01  0.00000000000E+00 0.  1.
         11    1    3    3    0    0  0.57993013474E+01  0.48846309038E+01 -0.68025405193E+01  0.10186563354E+02  0.51100000000E-03 0. -1.
        -11    1    3    3    0    0 -0.60877435661E+01 -0.17494691227E+02 -0.32887325283E+02  0.37745211714E+02  0.51100000000E-03 0.  1.
         12    1    3    3    0    0 -0.52058502114E+00  0.13451190526E+02  0.39864721843E+02  0.42076140304E+02  0.00000000000E+00 0. -1.
</event>
<event>
 7    1  0.4204165E-015  0.9000773E+02  0.7816164E-02  0.1186339E+00
        -11   -1    0    0    0    0  0.00000000000E+00  0.00000000000E+00  0.45593999997E+02  0.45594000000E+02  0.51100000000E-03 0. -1.
         11   -1    0    0    0    0 -0.00000000000E+00 -0.00000000000E+00 -0.45593999997E+02  0.45594000000E+02  0.51100000000E-03 0.  1.
    9900012    2    1    2    0    0  0.62356815411E+00  0.10020324136E+01  0.11480636126E-01  0.90007729690E+02  0.89999990921E+02 0.  0.
        -12    1    1    2    0    0 -0.62356815411E+00 -0.10020324136E+01 -0.11480636126E-01  0.11802703104E+01  0.00000000000E+00 0.  1.
         11    1    3    3    0    0 -0.35274197431E+02  0.59673229471E+01  0.15222565315E+02  0.38879357538E+02  0.51100000000E-03 0. -1.
        -11    1    3    3    0    0  0.17104503553E+01 -0.28229886425E+01  0.87323998691E+01  0.93354010642E+01  0.51100000000E-03 0.  1.
        -12    1    3    3    0    0  0.34187315230E+02 -0.21423018911E+01 -0.23943484548E+02  0.41792971087E+02  0.00000000000E+00 0.  1.
</event>
<event>
 7    1  0.3622165E-015  0.9000773E+02  0.7816164E-02  0.1186339E+00
        -11   -1    0    0    0    0  0.00000000000E+00  0.00000000000E+00  0.45593999997E+02  0.45594000000E+02  0.51100000000E-03 0.  1.
         11   -1    0    0    0    0 -0.00000000000E+00 -0.00000000000E+00 -0.45593999997E+02  0.45594000000E+02  0.51100000000E-03 0. -1.
    9900012    2    1    2    0    0  0.37228957529E-01  0.33606452984E+00 -0.11308021928E+01  0.90007729284E+02  0.89999990511E+02 0.  0.
        -12    1    1    2    0    0 -0.37228957529E-01 -0.33606452984E+00  0.11308021928E+01  0.11802707159E+01  0.00000000000E+00 0.  1.
         11    1    3    3    0    0 -0.30765153355E+01 -0.43143019697E+01 -0.75761817780E+01  0.92453598464E+01  0.51100000000E-03 0. -1.
        -11    1    3    3    0    0 -0.17191843217E+02 -0.23071054557E+02  0.28041686609E+02  0.40176724850E+02  0.51100000000E-03 0.  1.
         12    1    3    3    0    0  0.20305587510E+02  0.27721421056E+02 -0.21596307024E+02  0.40585644587E+02  0.00000000000E+00 0. -1.
</event>
<event>
 7    1  0.3622165E-015  0.9000777E+02  0.7816164E-02  0.1186339E+00
        -11   -1    0    0    0    0  0.00000000000E+00  0.00000000000E+00  0.45593999997E+02  0.45594000000E+02  0.51100000000E-03 0. -1.
         11   -1    0    0    0    0 -0.00000000000E+00 -0.00000000000E+00 -0.45593999997E+02  0.45594000000E+02  0.51100000000E-03 0.  1.
    9900012    2    1    2    0    0  0.26279770262E+00 -0.56617735105E+00  0.10016555873E+01  0.90007774030E+02  0.90000035847E+02 0.  0.
        -12    1    1    2    0    0 -0.26279770262E+00  0.56617735105E+00 -0.10016555873E+01  0.11802259703E+01  0.00000000000E+00 0.  1.
         11    1    3    3    0    0 -0.75067630123E+01 -0.21904555027E+02  0.36481553677E+02  0.43209545020E+02  0.51100000000E-03 0. -1.
        -11    1    3    3    0    0 -0.16080708847E+01 -0.35169253430E+01 -0.57391266861E+01  0.69204213180E+01  0.51100000000E-03 0.  1.
        -12    1    3    3    0    0  0.93776315997E+01  0.24855303019E+02 -0.29740771404E+02  0.39877807692E+02  0.00000000000E+00 0.  1.
</event>
<event>
 7    1  0.3622165E-015  0.9000777E+02  0.7816164E-02  0.1186339E+00
        -11   -1    0    0    0    0  0.00000000000E+00  0.00000000000E+00  0.45593999997E+02  0.45594000000E+02  0.51100000000E-03 0. -1.
         11   -1    0    0    0    0 -0.00000000000E+00 -0.00000000000E+00 -0.45593999997E+02  0.45594000000E+02  0.51100000000E-03 0.  1.
    9900012    2    1    2    0    0 -0.31039892119E-01 -0.11648039377E+01 -0.18767682349E+00  0.90007765160E+02  0.90000026860E+02 0.  0.
        -12    1    1    2    0    0  0.31039892119E-01  0.11648039377E+01  0.18767682349E+00  0.11802348403E+01  0.00000000000E+00 0.  1.
         11    1    3    3    0    0 -0.27760866632E+02  0.14718515988E+02  0.16855105297E+02  0.35656626367E+02  0.51100000000E-03 0. -1.
        -11    1    3    3    0    0 -0.71746255377E+01  0.18572111661E+01  0.54471234032E+01  0.91975887358E+01  0.51100000000E-03 0.  1.
        -12    1    3    3    0    0  0.34904452278E+02 -0.17740531091E+02 -0.22489905524E+02  0.45153550057E+02  0.00000000000E+00 0.  1.
</event>
<event>
 7    1  0.3622165E-015  0.9000758E+02  0.7816164E-02  0.1186339E+00
        -11   -1    0    0    0    0  0.00000000000E+00  0.00000000000E+00  0.45593999997E+02  0.45594000000E+02  0.51100000000E-03 0.  1.
         11   -1    0    0    0    0 -0.00000000000E+00 -0.00000000000E+00 -0.45593999997E+02  0.45594000000E+02  0.51100000000E-03 0. -1.
    9900012    2    1    2    0    0 -0.48021990471E+00 -0.72482130540E+00 -0.79838788633E+00  0.90007576221E+02  0.89999835427E+02 0.  0.
        -12    1    1    2    0    0  0.48021990471E+00  0.72482130540E+00  0.79838788633E+00  0.11804237793E+01  0.00000000000E+00 0.  1.
         11    1    3    3    0    0  0.19538115603E+01  0.83625959048E+01  0.37519284299E+01  0.93716251037E+01  0.51100000000E-03 0. -1.
        -11    1    3    3    0    0 -0.32948022318E+02 -0.24097960142E+02  0.12369418883E+02  0.42653093456E+02  0.51100000000E-03 0.  1.
         12    1    3    3    0    0  0.30513990853E+02  0.15010542931E+02 -0.16919735199E+02  0.37982857661E+02  0.00000000000E+00 0. -1.
</event>
<event>
 7    1  0.3622165E-015  0.9000770E+02  0.7816164E-02  0.1186339E+00
        -11   -1    0    0    0    0  0.00000000000E+00  0.00000000000E+00  0.45593999997E+02  0.45594000000E+02  0.51100000000E-03 0.  1.
         11   -1    0    0    0    0 -0.00000000000E+00 -0.00000000000E+00 -0.45593999997E+02  0.45594000000E+02  0.51100000000E-03 0. -1.
    9900012    2    1    2    0    0 -0.11314831213E+01 -0.32457277528E+00 -0.86649766026E-01  0.90007699309E+02  0.89999960139E+02 0.  0.
        -12    1    1    2    0    0  0.11314831213E+01  0.32457277528E+00  0.86649766026E-01  0.11803006915E+01  0.00000000000E+00 0.  1.
         11    1    3    3    0    0  0.65489622908E+01 -0.44381045550E+01  0.96460361749E-01  0.79116991847E+01  0.51100000000E-03 0. -1.
        -11    1    3    3    0    0  0.15966339969E+02 -0.10380778224E+02  0.33456434416E+02  0.38496981345E+02  0.51100000000E-03 0.  1.
         12    1    3    3    0    0 -0.23646785382E+02  0.14494310004E+02 -0.33639544544E+02  0.43599018779E+02  0.00000000000E+00 0. -1.
</event>
<event>
 7    1  0.3622165E-015  0.9000770E+02  0.7816164E-02  0.1186339E+00
        -11   -1    0    0    0    0  0.00000000000E+00  0.00000000000E+00  0.45593999997E+02  0.45594000000E+02  0.51100000000E-03 0. -1.
         11   -1    0    0    0    0 -0.00000000000E+00 -0.00000000000E+00 -0.45593999997E+02  0.45594000000E+02  0.51100000000E-03 0.  1.
    9900012    2    1    2    0    0 -0.36023589078E+00  0.72941151112E+00  0.85516181264E+00  0.90007698015E+02  0.89999958829E+02 0.  0.
        -12    1    1    2    0    0  0.36023589078E+00 -0.72941151112E+00 -0.85516181264E+00  0.11803019848E+01  0.00000000000E+00 0.  1.
         11    1    3    3    0    0 -0.23904724068E+02 -0.29963033152E+02  0.10546504948E+02  0.39754848199E+02  0.51100000000E-03 0. -1.
        -11    1    3    3    0    0 -0.18869913983E+01  0.20762572106E+00  0.69511403850E+01  0.72057059259E+01  0.51100000000E-03 0.  1.
        -12    1    3    3    0    0  0.25431479576E+02  0.30484818943E+02 -0.16642483520E+02  0.43047143890E+02  0.00000000000E+00 0.  1.
</event>
<event>
 7    1  0.3622165E-015  0.9000775E+02  0.7816164E-02  0.1186339E+00
        -11   -1    0    0    0    0  0.00000000000E+00  0.00000000000E+00  0.45593999997E+02  0.45594000000E+02  0.51100000000E-03 0.  1.
         11   -1    0    0    0    0 -0.00000000000E+00 -0.00000000000E+00 -0.45593999997E+02  0.45594000000E+02  0.51100000000E-03 0. -1.
    9900012    2    1    2    0    0 -0.10307831989E+01  0.26905592697E-01  0.57423334919E+00  0.90007753478E+02  0.90000015024E+02 0.  0.
        -12    1    1    2    0    0  0.10307831989E+01 -0.26905592697E-01 -0.57423334919E+00  0.11802465223E+01  0.00000000000E+00 0.  1.
         11    1    3    3    0    0  0.74997470170E+01 -0.89643614636E+01  0.44283799116E+00  0.11696242453E+02  0.51100000000E-03 0. -1.
        -11    1    3    3    0    0  0.14058240313E+02  0.24646376185E+02  0.27508267180E+02  0.39519397051E+02  0.51100000000E-03 0.  1.
         12    1    3    3    0    0 -0.22588770529E+02 -0.15655109129E+02 -0.27376871822E+02  0.38792113974E+02  0.00000000000E+00 0. -1.
</event>
<event>
 7    1  0.3622165E-015  0.9000769E+02  0.7816164E-02  0.1186339E+00
        -11   -1    0    0    0    0  0.00000000000E+00  0.00000000000E+00  0.45593999997E+02  0.45594000000E+02  0.51100000000E-03 0.  1.
         11   -1    0    0    0    0 -0.00000000000E+00 -0.00000000000E+00 -0.45593999997E+02  0.45594000000E+02  0.51100000000E-03 0. -1.
    9900012    2    1    2    0    0 -0.98647787079E+00  0.25518980225E+00 -0.59570944179E+00  0.90007690649E+02  0.89999951366E+02 0.  0.
        -12    1    1    2    0    0  0.98647787079E+00 -0.25518980225E+00  0.59570944179E+00  0.11803093509E+01  0.00000000000E+00 0.  1.
         11    1    3    3    0    0  0.63412111610E+01  0.52813988700E+01  0.20987035596E+01  0.85152034565E+01  0.51100000000E-03 0. -1.
        -11    1    3    3    0    0 -0.17756414146E+02  0.15438325188E+02  0.32100399096E+02  0.39800348621E+02  0.51100000000E-03 0.  1.
         12    1    3    3    0    0  0.10428725114E+02 -0.20464534256E+02 -0.34794812097E+02  0.41692138572E+02  0.00000000000E+00 0. -1.
</event>
<event>
 7    1  0.3622165E-015  0.9000775E+02  0.7816164E-02  0.1186339E+00
        -11   -1    0    0    0    0  0.00000000000E+00  0.00000000000E+00  0.45593999997E+02  0.45594000000E+02  0.51100000000E-03 0.  1.
         11   -1    0    0    0    0 -0.00000000000E+00 -0.00000000000E+00 -0.45593999997E+02  0.45594000000E+02  0.51100000000E-03 0. -1.
    9900012    2    1    2    0    0 -0.55436955433E+00  0.40006849520E+00 -0.96208133370E+00  0.90007753883E+02  0.90000015434E+02 0.  0.
        -12    1    1    2    0    0  0.55436955433E+00 -0.40006849520E+00  0.96208133370E+00  0.11802461168E+01  0.00000000000E+00 0.  1.
         11    1    3    3    0    0 -0.57997443597E+01 -0.62804993647E+01 -0.36391635563E+02  0.37382253091E+02  0.51100000000E-03 0. -1.
        -11    1    3    3    0    0  0.86742616361E+01  0.50769263283E+01 -0.55433580070E+01  0.11478101504E+02  0.51100000000E-03 0.  1.
        -12    1    3    3    0    0 -0.34288868307E+01  0.16036415316E+01  0.40972912237E+02  0.41147399289E+02  0.00000000000E+00 0.  1.
</event>
<event>
 7    1  0.3622165E-015  0.9000802E+02  0.7816164E-02  0.1186338E+00
        -11   -1    0    0    0    0  0.00000000000E+00  0.00000000000E+00  0.45593999997E+02  0.45594000000E+02  0.51100000000E-03 0. -1.
         11   -1    0    0    0    0 -0.00000000000E+00 -0.00000000000E+00 -0.45593999997E+02  0.45594000000E+02  0.51100000000E-03 0.  1.
    9900012    2    1    2    0    0 -0.98585808037E+00  0.21188373220E+00  0.61282431644E+00  0.90008015037E+02  0.90000280035E+02 0.  0.
        -12    1    1    2    0    0  0.98585808037E+00 -0.21188373220E+00 -0.61282431644E+00  0.11799849632E+01  0.00000000000E+00 0.  1.
         11    1    3    3    0    0  0.29759953188E+02 -0.22755646647E+02  0.22833959327E+01  0.37532494792E+02  0.51100000000E-03 0. -1.
        -11    1    3    3    0    0  0.81194573304E+01  0.39874644593E+01  0.12160269571E+01  0.91271124665E+01  0.51100000000E-03 0.  1.
        -12    1    3    3    0    0 -0.38865268599E+02  0.18980065920E+02 -0.28865985734E+01  0.43348407778E+02  0.00000000000E+00 0.  1.
</event>
<event>
 7    1  0.3622165E-015  0.9000787E+02  0.7816164E-02  0.1186339E+00
        -11   -1    0    0    0    0  0.00000000000E+00  0.00000000000E+00  0.45593999997E+02  0.45594000000E+02  0.51100000000E-03 0.  1.
         11   -1    0    0    0    0 -0.00000000000E+00 -0.00000000000E+00 -0.45593999997E+02  0.45594000000E+02  0.51100000000E-03 0. -1.
    9900012    2    1    2    0    0  0.11344165843E+01 -0.19817576078E+00 -0.25791762745E+00  0.90007874532E+02  0.90000137675E+02 0.  0.
        -12    1    1    2    0    0 -0.11344165843E+01  0.19817576078E+00  0.25791762745E+00  0.11801254685E+01  0.00000000000E+00 0.  1.
         11    1    3    3    0    0 -0.28560960164E+02  0.11692894959E+02  0.12783475330E+02  0.33404632610E+02  0.51100000000E-03 0. -1.
        -11    1    3    3    0    0 -0.11351686575E+02  0.19117028120E+01 -0.51807239693E+00  0.11523185107E+02  0.51100000000E-03 0.  1.
        -12    1    3    3    0    0  0.41047063323E+02 -0.13802773531E+02 -0.12523320561E+02  0.45080056815E+02  0.00000000000E+00 0.  1.
</event>
<event>
 7    1  0.3622165E-015  0.9000772E+02  0.7816164E-02  0.1186339E+00
        -11   -1    0    0    0    0  0.00000000000E+00  0.00000000000E+00  0.45593999997E+02  0.45594000000E+02  0.51100000000E-03 0. -1.
         11   -1    0    0    0    0 -0.00000000000E+00 -0.00000000000E+00 -0.45593999997E+02  0.45594000000E+02  0.51100000000E-03 0.  1.
    9900012    2    1    2    0    0 -0.11536433495E+01  0.76474563974E-02  0.24921005909E+00  0.90007721594E+02  0.89999982719E+02 0.  0.
        -12    1    1    2    0    0  0.11536433495E+01 -0.76474563974E-02 -0.24921005909E+00  0.11802784057E+01  0.00000000000E+00 0.  1.
         11    1    3    3    0    0  0.98171404841E+01 -0.11712965840E+02 -0.30915560651E+01  0.15592547425E+02  0.51100000000E-03 0. -1.
        -11    1    3    3    0    0 -0.32034339609E+02 -0.13474810290E+02  0.17192598179E+02  0.38773120315E+02  0.51100000000E-03 0.  1.
         12    1    3    3    0    0  0.21063555776E+02  0.25195423586E+02 -0.13851832055E+02  0.35642053854E+02  0.00000000000E+00 0. -1.
</event>
<event>
 7    1  0.3622165E-015  0.9000773E+02  0.7816164E-02  0.1186339E+00
        -11   -1    0    0    0    0  0.00000000000E+00  0.00000000000E+00  0.45593999997E+02  0.45594000000E+02  0.51100000000E-03 0. -1.
         11   -1    0    0    0    0 -0.00000000000E+00 -0.00000000000E+00 -0.45593999997E+02  0.45594000000E+02  0.51100000000E-03 0.  1.
    9900012    2    1    2    0    0  0.93070734663E+00 -0.66968791494E+00 -0.27987676271E+00  0.90007733475E+02  0.89999994757E+02 0.  0.
        -12    1    1    2    0    0 -0.93070734663E+00  0.66968791494E+00  0.27987676271E+00  0.11802665253E+01  0.00000000000E+00 0.  1.
         11    1    3    3    0    0 -0.22865245179E+02 -0.38471539785E+01  0.13315512328E+02  0.26738042180E+02  0.51100000000E-03 0. -1.
        -11    1    3    3    0    0  0.10251287732E+02 -0.25895709064E+02  0.13529489404E+01  0.27883814645E+02  0.51100000000E-03 0.  1.
        -12    1    3    3    0    0  0.13544664793E+02  0.29073175127E+02 -0.14948338031E+02  0.35385876649E+02  0.00000000000E+00 0.  1.
</event>
<event>
 7    1  0.3622165E-015  0.9000804E+02  0.7816164E-02  0.1186338E+00
        -11   -1    0    0    0    0  0.00000000000E+00  0.00000000000E+00  0.45593999997E+02  0.45594000000E+02  0.51100000000E-03 0.  1.
         11   -1    0    0    0    0 -0.00000000000E+00 -0.00000000000E+00 -0.45593999997E+02  0.45594000000E+02  0.51100000000E-03 0. -1.
    9900012    2    1    2    0    0 -0.98446945144E+00 -0.64548251029E+00  0.80423271953E-01  0.90008044207E+02  0.90000309590E+02 0.  0.
        -12    1    1    2    0    0  0.98446945144E+00  0.64548251029E+00 -0.80423271953E-01  0.11799557935E+01  0.00000000000E+00 0.  1.
         11    1    3    3    0    0  0.43558830069E+01 -0.21755451649E+01 -0.12798619294E+02  0.13693479092E+02  0.51100000000E-03 0. -1.
        -11    1    3    3    0    0  0.26413782007E+02 -0.14520384406E+02 -0.12478853305E+02  0.32622863505E+02  0.51100000000E-03 0.  1.
         12    1    3    3    0    0 -0.31754134465E+02  0.16050447061E+02  0.25357895871E+02  0.43691701609E+02  0.00000000000E+00 0. -1.
</event>
<event>
 7    1  0.3622165E-015  0.9000841E+02  0.7816164E-02  0.1186338E+00
        -11   -1    0    0    0    0  0.00000000000E+00  0.00000000000E+00  0.45593999997E+02  0.45594000000E+02  0.51100000000E-03 0. -1.
         11   -1    0    0    0    0 -0.00000000000E+00 -0.00000000000E+00 -0.45593999997E+02  0.45594000000E+02  0.51100000000E-03 0.  1.
    9900012    2    1    2    0    0 -0.10474299548E+01  0.50314352002E+00 -0.20288219518E+00  0.90008413591E+02  0.90000683847E+02 0.  0.
        -12    1    1    2    0    0  0.10474299548E+01 -0.50314352002E+00  0.20288219518E+00  0.11795864093E+01  0.00000000000E+00 0.  1.
         11    1    3    3    0    0  0.10171888606E+02  0.68126999217E+01  0.39010714326E+02  0.40886624103E+02  0.51100000000E-03 0. -1.
        -11    1    3    3    0    0 -0.87732055389E+01 -0.49982806863E+01 -0.29198214118E+00  0.10101346399E+02  0.51100000000E-03 0.  1.
        -12    1    3    3    0    0 -0.24461130224E+01 -0.13112757153E+01 -0.38921614380E+02  0.39020443089E+02  0.00000000000E+00 0.  1.
</event>
<event>
 7    1  0.3622165E-015  0.9000773E+02  0.7816164E-02  0.1186339E+00
        -11   -1    0    0    0    0  0.00000000000E+00  0.00000000000E+00  0.45593999997E+02  0.45594000000E+02  0.51100000000E-03 0.  1.
         11   -1    0    0    0    0 -0.00000000000E+00 -0.00000000000E+00 -0.45593999997E+02  0.45594000000E+02  0.51100000000E-03 0. -1.
    9900012    2    1    2    0    0  0.16177871346E-01 -0.11381208082E+01 -0.31218616906E+00  0.90007728463E+02  0.89999989678E+02 0.  0.
        -12    1    1    2    0    0 -0.16177871346E-01  0.11381208082E+01  0.31218616906E+00  0.11802715373E+01  0.00000000000E+00 0.  1.
         11    1    3    3    0    0  0.21235462288E+02 -0.11232470187E+02 -0.29177845917E+02  0.37794972387E+02  0.51100000000E-03 0. -1.
        -11    1    3    3    0    0 -0.70211955186E+01  0.10078935577E+01 -0.85892027050E+01  0.11139454174E+02  0.51100000000E-03 0.  1.
        -12    1    3    3    0    0 -0.14198088898E+02  0.90864558211E+01  0.37454862453E+02  0.41073301902E+02  0.00000000000E+00 0.  1.
</event>
<event>
 7    1  0.3622165E-015  0.9000770E+02  0.7816164E-02  0.1186339E+00
        -11   -1    0    0    0    0  0.00000000000E+00  0.00000000000E+00  0.45593999997E+02  0.45594000000E+02  0.51100000000E-03 0. -1.
         11   -1    0    0    0    0 -0.00000000000E+00 -0.00000000000E+00 -0.45593999997E+02  0.45594000000E+02  0.51100000000E-03 0.  1.
    9900012    2    1    2    0    0  0.35109004177E+00  0.94582218642E+00  0.61258576724E+00  0.90007701246E+02  0.89999962103E+02 0.  0.
        -12    1    1    2    0    0 -0.35109004177E+00 -0.94582218642E+00 -0.61258576724E+00  0.11802987537E+01  0.00000000000E+00 0.  1.
         11    1    3    3    0    0 -0.20206256512E+02 -0.87410315553E+01  0.22755380371E+02  0.31662371531E+02  0.51100000000E-03 0. -1.
        -11    1    3    3    0    0 -0.13659110315E+02 -0.70544952630E+01 -0.28109617218E+01  0.15628138215E+02  0.51100000000E-03 0.  1.
        -12    1    3    3    0    0  0.34216456868E+02  0.16741349005E+02 -0.19331832882E+02  0.42717191500E+02  0.00000000000E+00 0.  1.
</event>
<event>
 7    1  0.3622165E-015  0.9000778E+02  0.7816164E-02  0.1186339E+00
        -11   -1    0    0    0    0  0.00000000000E+00  0.00000000000E+00  0.45593999997E+02  0.45594000000E+02  0.51100000000E-03 0.  1.
         11   -1    0    0    0    0 -0.00000000000E+00 -0.00000000000E+00 -0.45593999997E+02  0.45594000000E+02  0.51100000000E-03 0. -1.
    9900012    2    1    2    0    0 -0.63698854729E-01 -0.44237967686E+00 -0.10923176411E+01  0.90007781736E+02  0.90000043654E+02 0.  0.
        -12    1    1    2    0    0  0.63698854729E-01  0.44237967686E+00  0.10923176411E+01  0.11802182644E+01  0.00000000000E+00 0.  1.
         11    1    3    3    0    0 -0.83896583661E+01 -0.16596433847E+01 -0.48654768937E+01  0.98393927317E+01  0.51100000000E-03 0. -1.
        -11    1    3    3    0    0  0.20511198863E+02  0.34180648942E+02 -0.12025620276E+02  0.41637021798E+02  0.51100000000E-03 0.  1.
         12    1    3    3    0    0 -0.12185239352E+02 -0.32963385234E+02  0.15798779529E+02  0.38531367206E+02  0.00000000000E+00 0. -1.
</event>
<event>
 7    1  0.3622165E-015  0.9000771E+02  0.7816164E-02  0.1186339E+00
        -11   -1    0    0    0    0  0.00000000000E+00  0.00000000000E+00  0.45593999997E+02  0.45594000000E+02  0.51100000000E-03 0. -1.
         11   -1    0    0    0    0 -0.00000000000E+00 -0.00000000000E+00 -0.45593999997E+02  0.45594000000E+02  0.51100000000E-03 0.  1.
    9900012    2    1    2    0    0  0.10932311667E+01  0.38569398046E+00  0.22172255100E+00  0.90007713967E+02  0.89999974991E+02 0.  0.
        -12    1    1    2    0    0 -0.10932311667E+01 -0.38569398046E+00 -0.22172255100E+00  0.11802860332E+01  0.00000000000E+00 0.  1.
         11    1    3    3    0    0 -0.32930159294E+02 -0.27944303938E+02  0.27003221695E+01  0.43273216356E+02  0.51100000000E-03 0. -1.
        -11    1    3    3    0    0  0.98153360173E+01  0.57235805453E+00 -0.22201680215E+00  0.98345160835E+01  0.51100000000E-03 0.  1.
        -12    1    3    3    0    0  0.24208054443E+02  0.27757639864E+02 -0.22565828164E+01  0.36899981528E+02  0.00000000000E+00 0.  1.
</event>
<event>
 7    1  0.3622165E-015  0.9000780E+02  0.7816164E-02  0.1186339E+00
        -11   -1    0    0    0    0  0.00000000000E+00  0.00000000000E+00  0.45593999997E+02  0.45594000000E+02  0.51100000000E-03 0. -1.
         11   -1    0    0    0    0 -0.00000000000E+00 -0.00000000000E+00 -0.45593999997E+02  0.45594000000E+02  0.51100000000E-03 0.  1.
    9900012    2    1    2    0    0 -0.78015035831E+00  0.85628355557E+00  0.22588771461E+00  0.90007796048E+02  0.90000058156E+02 0.  0.
        -12    1    1    2    0    0  0.78015035831E+00 -0.85628355557E+00 -0.22588771461E+00  0.11802039522E+01  0.00000000000E+00 0.  1.
         11    1    3    3    0    0  0.71862220666E+01  0.28258191041E+01 -0.17074041958E+01  0.79083671227E+01  0.51100000000E-03 0. -1.
        -11    1    3    3    0    0 -0.21391102294E+02  0.35955272768E+02  0.15791018594E+01  0.41867104750E+02  0.51100000000E-03 0.  1.
         12    1    3    3    0    0  0.13424729870E+02 -0.37924808317E+02  0.35419005104E+00  0.40232324175E+02  0.00000000000E+00 0. -1.
</event>
<event>
 7    1  0.3622165E-015  0.9000777E+02  0.7816164E-02  0.1186339E+00
        -11   -1    0    0    0    0  0.00000000000E+00  0.00000000000E+00  0.45593999997E+02  0.45594000000E+02  0.51100000000E-03 0. -1.
         11   -1    0    0    0    0 -0.00000000000E+00 -0.00000000000E+00 -0.45593999997E+02  0.45594000000E+02  0.51100000000E-03 0.  1.
    9900012    2    1    2    0    0  0.14438597327E+00  0.55139360181E+00  0.10334673034E+01  0.90007772530E+02  0.90000034328E+02 0.  0.
        -12    1    1    2    0    0 -0.14438597327E+00 -0.55139360181E+00 -0.10334673034E+01  0.11802274699E+01  0.00000000000E+00 0.  1.
         11    1    3    3    0    0  0.33516870789E+02  0.24074954547E+01  0.23486940294E+02  0.40997719771E+02  0.51100000000E-03 0. -1.
        -11    1    3    3    0    0  0.10948755732E+01  0.75362571951E+01 -0.21219595709E+01  0.79054814979E+01  0.51100000000E-03 0.  1.
        -12    1    3    3    0    0 -0.34467360389E+02 -0.93923590480E+01 -0.20331513419E+02  0.41104571261E+02  0.00000000000E+00 0.  1.
</event>
<event>
 7    1  0.3622165E-015  0.9000773E+02  0.7816164E-02  0.1186339E+00
        -11   -1    0    0    0    0  0.00000000000E+00  0.00000000000E+00  0.45593999997E+02  0.45594000000E+02  0.51100000000E-03 0.  1.
         11   -1    0    0    0    0 -0.00000000000E+00 -0.00000000000E+00 -0.45593999997E+02  0.45594000000E+02  0.51100000000E-03 0. -1.
    9900012    2    1    2    0    0 -0.32506506948E-02  0.11726577609E+01 -0.13381086122E+00  0.90007727939E+02  0.89999989148E+02 0.  0.
        -12    1    1    2    0    0  0.32506506948E-02 -0.11726577609E+01  0.13381086122E+00  0.11802720608E+01  0.00000000000E+00 0.  1.
         11    1    3    3    0    0  0.53753895190E+00 -0.36580438405E+01  0.96830378302E+01  0.10364914604E+02  0.51100000000E-03 0. -1.
        -11    1    3    3    0    0  0.20270761077E+02  0.14311140866E+02  0.26767015088E+02  0.36499117859E+02  0.51100000000E-03 0.  1.
         12    1    3    3    0    0 -0.20811550679E+02 -0.94804392647E+01 -0.36583863779E+02  0.43143695476E+02  0.00000000000E+00 0. -1.
</event>
<event>
 7    1  0.3622165E-015  0.9000790E+02  0.7816164E-02  0.1186339E+00
        -11   -1    0    0    0    0  0.00000000000E+00  0.00000000000E+00  0.45593999997E+02  0.45594000000E+02  0.51100000000E-03 0. -1.
         11   -1    0    0    0    0 -0.00000000000E+00 -0.00000000000E+00 -0.45593999997E+02  0.45594000000E+02  0.51100000000E-03 0.  1.
    9900012    2    1    2    0    0 -0.81574184467E+00  0.40588755615E+00  0.74997295879E+00  0.90007898774E+02  0.90000162237E+02 0.  0.
        -12    1    1    2    0    0  0.81574184467E+00 -0.40588755615E+00 -0.74997295879E+00  0.11801012263E+01  0.00000000000E+00 0.  1.
         11    1    3    3    0    0  0.26828520109E+01  0.68135211578E+01 -0.16254729452E+02  0.17828011535E+02  0.51100000000E-03 0. -1.
        -11    1    3    3    0    0 -0.26374767949E+01  0.12694006881E+02 -0.23808408072E+02  0.27109673360E+02  0.51100000000E-03 0.  1.
         12    1    3    3    0    0 -0.86111706064E+00 -0.19101640482E+02  0.40813110483E+02  0.45070213878E+02  0.00000000000E+00 0. -1.
</event>
<event>
 7    1  0.3622165E-015  0.9000763E+02  0.7816164E-02  0.1186339E+00
        -11   -1    0    0    0    0  0.00000000000E+00  0.00000000000E+00  0.45593999997E+02  0.45594000000E+02  0.51100000000E-03 0.  1.
         11   -1    0    0    0    0 -0.00000000000E+00 -0.00000000000E+00 -0.45593999997E+02  0.45594000000E+02  0.51100000000E-03 0. -1.
    9900012    2    1    2    0    0  0.94253546940E+00 -0.85066151522E-01 -0.70545939403E+00  0.90007626196E+02  0.89999886061E+02 0.  0.
        -12    1    1    2    0    0 -0.94253546940E+00  0.85066151522E-01  0.70545939403E+00  0.11803738043E+01  0.00000000000E+00 0.  1.
         11    1    3    3    0    0  0.55306100232E+01  0.77897832356E+00  0.10025671865E+02  0.11476434597E+02  0.51100000000E-03 0. -1.
        -11    1    3    3    0    0  0.84281991967E+01  0.17252390889E+02  0.27931446694E+02  0.33894619747E+02  0.51100000000E-03 0.  1.
         12    1    3    3    0    0 -0.13016273750E+02 -0.18116435364E+02 -0.38662577953E+02  0.44636571852E+02  0.00000000000E+00 0. -1.
</event>
<event>
 7    1  0.3622165E-015  0.9000770E+02  0.7816164E-02  0.1186339E+00
        -11   -1    0    0    0    0  0.00000000000E+00  0.00000000000E+00  0.45593999997E+02  0.45594000000E+02  0.51100000000E-03 0.  1.
         11   -1    0    0    0    0 -0.00000000000E+00 -0.00000000000E+00 -0.45593999997E+02  0.45594000000E+02  0.51100000000E-03 0. -1.
    9900012    2    1    2    0    0 -0.41318847933E+00 -0.93681916973E+00 -0.58716101064E+00  0.90007697950E+02  0.89999958763E+02 0.  0.
        -12    1    1    2    0    0  0.41318847933E+00  0.93681916973E+00  0.58716101064E+00  0.11803020497E+01  0.00000000000E+00 0.  1.
         11    1    3    3    0    0 -0.14248762391E+02 -0.12728603371E+02 -0.32980671449E+02  0.38115210388E+02  0.51100000000E-03 0. -1.
        -11    1    3    3    0    0  0.38299743803E+01 -0.16630179610E+01 -0.75192473629E+01  0.86007798285E+01  0.51100000000E-03 0.  1.
        -12    1    3    3    0    0  0.10005599531E+02  0.13454802163E+02  0.39912757801E+02  0.43291707734E+02  0.00000000000E+00 0.  1.
</event>
<event>
 7    1  0.3622165E-015  0.9000774E+02  0.7816164E-02  0.1186339E+00
        -11   -1    0    0    0    0  0.00000000000E+00  0.00000000000E+00  0.45593999997E+02  0.45594000000E+02  0.51100000000E-03 0. -1.
         11   -1    0    0    0    0 -0.00000000000E+00 -0.00000000000E+00 -0.45593999997E+02  0.45594000000E+02  0.51100000000E-03 0.  1.
    9900012    2    1    2    0    0 -0.48748624061E+00 -0.75556730158E+00  0.76451838361E+00  0.90007740223E+02  0.90000001594E+02 0.  0.
        -12    1    1    2    0    0  0.48748624061E+00  0.75556730158E+00 -0.76451838361E+00  0.11802597769E+01  0.00000000000E+00 0.  1.
         11    1    3    3    0    0 -0.89833594944E+01 -0.31969182837E+02  0.27271530412E+02  0.42970522109E+02  0.51100000000E-03 0. -1.
        -11    1    3    3    0    0  0.91405595485E+01  0.16589031305E+01 -0.60015282168E+01  0.11059843112E+02  0.51100000000E-03 0.  1.
        -12    1    3    3    0    0 -0.64468629469E+00  0.29554712405E+02 -0.20505483811E+02  0.35977375003E+02  0.00000000000E+00 0.  1.
</event>
<event>
 7    1  0.3622165E-015  0.9000779E+02  0.7816164E-02  0.1186339E+00
        -11   -1    0    0    0    0  0.00000000000E+00  0.00000000000E+00  0.45593999997E+02  0.45594000000E+02  0.51100000000E-03 0. -1.
         11   -1    0    0    0    0 -0.00000000000E+00 -0.00000000000E+00 -0.45593999997E+02  0.45594000000E+02  0.51100000000E-03 0.  1.
    9900012    2    1    2    0    0  0.12432788502E-01  0.62584644188E+00  0.10005236654E+01  0.90007794108E+02  0.90000056190E+02 0.  0.
        -12    1    1    2    0    0 -0.12432788502E-01 -0.62584644188E+00 -0.10005236654E+01  0.11802058923E+01  0.00000000000E+00 0.  1.
         11    1    3    3    0    0  0.44052957986E+01 -0.88123789648E+01  0.55123584382E+00  0.98675485967E+01  0.51100000000E-03 0. -1.
        -11    1    3    3    0    0 -0.29967628774E+02 -0.23680636921E+02 -0.17871124682E+01  0.38236436949E+02  0.51100000000E-03 0.  1.
         12    1    3    3    0    0  0.25574765764E+02  0.33118862327E+02  0.22364002898E+01  0.41903808562E+02  0.00000000000E+00 0. -1.
</event>
<event>
 7    1  0.3622165E-015  0.9000775E+02  0.7816164E-02  0.1186339E+00
        -11   -1    0    0    0    0  0.00000000000E+00  0.00000000000E+00  0.45593999997E+02  0.45594000000E+02  0.51100000000E-03 0. -1.
         11   -1    0    0    0    0 -0.00000000000E+00 -0.00000000000E+00 -0.45593999997E+02  0.45594000000E+02  0.51100000000E-03 0.  1.
    9900012    2    1    2    0    0 -0.78675348670E+00  0.12230257377E+00  0.87123724217E+00  0.90007748628E+02  0.90000010110E+02 0.  0.
        -12    1    1    2    0    0  0.78675348670E+00 -0.12230257377E+00 -0.87123724217E+00  0.11802513718E+01  0.00000000000E+00 0.  1.
         11    1    3    3    0    0  0.34387799740E+02  0.32897506971E+01 -0.13160507429E+02  0.36966771385E+02  0.51100000000E-03 0. -1.
        -11    1    3    3    0    0  0.40072269447E+00  0.72124928201E+01 -0.73094613713E+01  0.10276617009E+02  0.51100000000E-03 0.  1.
        -12    1    3    3    0    0 -0.35575275921E+02 -0.10379940943E+02  0.21341206042E+02  0.42764360234E+02  0.00000000000E+00 0.  1.
</event>
<event>
 7    1  0.3622165E-015  0.9000783E+02  0.7816164E-02  0.1186339E+00
        -11   -1    0    0    0    0  0.00000000000E+00  0.00000000000E+00  0.45593999997E+02  0.45594000000E+02  0.51100000000E-03 0.  1.
         11   -1    0    0    0    0 -0.00000000000E+00 -0.00000000000E+00 -0.45593999997E+02  0.45594000000E+02  0.51100000000E-03 0. -1.
    9900012    2    1    2    0    0 -0.50582174900E+00 -0.93951165974E+00  0.50424483541E+00  0.90007830243E+02  0.90000092802E+02 0.  0.
        -12    1    1    2    0    0  0.50582174900E+00  0.93951165974E+00 -0.50424483541E+00  0.11801697567E+01  0.00000000000E+00 0.  1.
         11    1    3    3    0    0  0.32533151533E+02 -0.12764013067E+02 -0.46232269171E+01  0.35251953217E+02  0.51100000000E-03 0. -1.
        -11    1    3    3    0    0  0.98712322588E+01 -0.37989680580E+00  0.29581636573E+00  0.98829679486E+01  0.51100000000E-03 0.  1.
        -12    1    3    3    0    0 -0.42910205541E+02  0.12204398213E+02  0.48316553868E+01  0.44872909077E+02  0.00000000000E+00 0.  1.
</event>
<event>
 7    1  0.3622165E-015  0.9000774E+02  0.7816164E-02  0.1186339E+00
        -11   -1    0    0    0    0  0.00000000000E+00  0.00000000000E+00  0.45593999997E+02  0.45594000000E+02  0.51100000000E-03 0.  1.
         11   -1    0    0    0    0 -0.00000000000E+00 -0.00000000000E+00 -0.45593999997E+02  0.45594000000E+02  0.51100000000E-03 0. -1.
    9900012    2    1    2    0    0 -0.44805771114E+00  0.10788848793E+01 -0.16811384387E+00  0.90007741317E+02  0.90000002702E+02 0.  0.
        -12    1    1    2    0    0  0.44805771114E+00 -0.10788848793E+01  0.16811384387E+00  0.11802586834E+01  0.00000000000E+00 0.  1.
         11    1    3    3    0    0  0.15284186180E+02 -0.51672581168E+01  0.91763416628E+01  0.18561038501E+02  0.51100000000E-03 0. -1.
        -11    1    3    3    0    0  0.19359830101E+02  0.23568012086E+02  0.23826424592E+01  0.30592992671E+02  0.51100000000E-03 0.  1.
        -12    1    3    3    0    0 -0.35092073993E+02 -0.17321869090E+02 -0.11727097966E+02  0.40853710145E+02  0.00000000000E+00 0.  1.
</event>
<event>
 7    1  0.3622165E-015  0.9000780E+02  0.7816164E-02  0.1186339E+00
        -11   -1    0    0    0    0  0.00000000000E+00  0.00000000000E+00  0.45593999997E+02  0.45594000000E+02  0.51100000000E-03 0.  1.
         11   -1    0    0    0    0 -0.00000000000E+00 -0.00000000000E+00 -0.45593999997E+02  0.45594000000E+02  0.51100000000E-03 0. -1.
    9900012    2    1    2    0    0  0.18734628872E+00 -0.88613067015E+00 -0.75666458330E+00  0.90007801928E+02  0.90000064114E+02 0.  0.
        -12    1    1    2    0    0 -0.18734628872E+00  0.88613067015E+00  0.75666458330E+00  0.11801980716E+01  0.00000000000E+00 0.  1.
         11    1    3    3    0    0  0.64162542452E+01 -0.72385698774E+01 -0.90004308993E+01  0.13212606444E+02  0.51100000000E-03 0. -1.
        -11    1    3    3    0    0  0.22962376876E+02  0.29560671657E+02 -0.37561059966E+01  0.37619308780E+02  0.51100000000E-03 0.  1.
         12    1    3    3    0    0 -0.29191284832E+02 -0.23208232449E+02  0.11999872313E+02  0.39175886705E+02  0.00000000000E+00 0. -1.
</event>
<event>
 7    1  0.3622165E-015  0.9000777E+02  0.7816164E-02  0.1186339E+00
        -11   -1    0    0    0    0  0.00000000000E+00  0.00000000000E+00  0.45593999997E+02  0.45594000000E+02  0.51100000000E-03 0.  1.
         11   -1    0    0    0    0 -0.00000000000E+00 -0.00000000000E+00 -0.45593999997E+02  0.45594000000E+02  0.51100000000E-03 0. -1.
    9900012    2    1    2    0    0  0.42234514936E+00 -0.48672387433E+00 -0.98877047906E+00  0.90007770101E+02  0.90000031866E+02 0.  0.
        -12    1    1    2    0    0 -0.42234514936E+00  0.48672387433E+00  0.98877047906E+00  0.11802298993E+01  0.00000000000E+00 0.  1.
         11    1    3    3    0    0  0.25301157283E+02 -0.25819504791E+02 -0.10254997326E+02  0.37576060969E+02  0.51100000000E-03 0. -1.
        -11    1    3    3    0    0  0.72380019456E+01  0.24995927890E+01 -0.64452596473E+01  0.10008896466E+02  0.51100000000E-03 0.  1.
        -12    1    3    3    0    0 -0.32116814079E+02  0.22833188128E+02  0.15711486495E+02  0.42422812666E+02  0.00000000000E+00 0.  1.
</event>
<event>
 7    1  0.3622165E-015  0.9000800E+02  0.7816164E-02  0.1186339E+00
        -11   -1    0    0    0    0  0.00000000000E+00  0.00000000000E+00  0.45593999997E+02  0.45594000000E+02  0.51100000000E-03 0. -1.
         11   -1    0    0    0    0 -0.00000000000E+00 -0.00000000000E+00 -0.45593999997E+02  0.45594000000E+02  0.51100000000E-03 0.  1.
    9900012    2    1    2    0    0 -0.11726641548E+01 -0.99380616133E-01 -0.85926413972E-01  0.90007999544E+02  0.90000264338E+02 0.  0.
        -12    1    1    2    0    0  0.11726641548E+01  0.99380616133E-01  0.85926413972E-01  0.11800004557E+01  0.00000000000E+00 0.  1.
         11    1    3    3    0    0  0.69009798102E+01 -0.25132249059E+02  0.23114202277E+02  0.34835611266E+02  0.51100000000E-03 0. -1.
        -11    1    3    3    0    0  0.10705857565E+02 -0.67909547486E+01 -0.28758951774E+01  0.13000124073E+02  0.51100000000E-03 0.  1.
        -12    1    3    3    0    0 -0.18779501530E+02  0.31823823192E+02 -0.20324233513E+02  0.42172264205E+02  0.00000000000E+00 0.  1.
</event>
<event>
 7    1  0.3622165E-015  0.9000781E+02  0.7816164E-02  0.1186339E+00
        -11   -1    0    0    0    0  0.00000000000E+00  0.00000000000E+00  0.45593999997E+02  0.45594000000E+02  0.51100000000E-03 0.  1.
         11   -1    0    0    0    0 -0.00000000000E+00 -0.00000000000E+00 -0.45593999997E+02  0.45594000000E+02  0.51100000000E-03 0. -1.
    9900012    2    1    2    0    0  0.11652433433E+01 -0.24649408111E-01 -0.18558631326E+00  0.90007812760E+02  0.90000075088E+02 0.  0.
        -12    1    1    2    0    0 -0.11652433433E+01  0.24649408111E-01  0.18558631326E+00  0.11801872403E+01  0.00000000000E+00 0.  1.
         11    1    3    3    0    0 -0.12595796092E+01  0.65835006535E+00  0.89544461302E+01  0.90665357971E+01  0.51100000000E-03 0. -1.
        -11    1    3    3    0    0 -0.13666568234E+01  0.38892575544E+02  0.38733916640E+01  0.39108865320E+02  0.51100000000E-03 0.  1.
         12    1    3    3    0    0  0.37914797759E+01 -0.39575575018E+02 -0.13013424108E+02  0.41832411643E+02  0.00000000000E+00 0. -1.
</event>
<event>
 7    1  0.3622165E-015  0.9000768E+02  0.7816164E-02  0.1186339E+00
        -11   -1    0    0    0    0  0.00000000000E+00  0.00000000000E+00  0.45593999997E+02  0.45594000000E+02  0.51100000000E-03 0. -1.
         11   -1    0    0    0    0 -0.00000000000E+00 -0.00000000000E+00 -0.45593999997E+02  0.45594000000E+02  0.51100000000E-03 0.  1.
    9900012    2    1    2    0    0 -0.10134001578E+01 -0.35783999049E+00  0.48798403880E+00  0.90007678959E+02  0.89999939521E+02 0.  0.
        -12    1    1    2    0    0  0.10134001578E+01  0.35783999049E+00 -0.48798403880E+00  0.11803210414E+01  0.00000000000E+00 0.  1.
         11    1    3    3    0    0 -0.36096290976E+02  0.93621745339E+00  0.48047043840E-01  0.36108462085E+02  0.51100000000E-03 0. -1.
        -11    1    3    3    0    0 -0.90924075820E+01 -0.21638680489E+01  0.24750590792E+01  0.96685116888E+01  0.51100000000E-03 0.  1.
        -12    1    3    3    0    0  0.44175298400E+02  0.86981060502E+00 -0.20351220842E+01  0.44230705185E+02  0.00000000000E+00 0.  1.
</event>
<event>
 7    1  0.3622165E-015  0.9000767E+02  0.7816164E-02  0.1186339E+00
        -11   -1    0    0    0    0  0.00000000000E+00  0.00000000000E+00  0.45593999997E+02  0.45594000000E+02  0.51100000000E-03 0. -1.
         11   -1    0    0    0    0 -0.00000000000E+00 -0.00000000000E+00 -0.45593999997E+02  0.45594000000E+02  0.51100000000E-03 0.  1.
    9900012    2    1    2    0    0 -0.28455883714E+00 -0.34416887222E+00  0.10925946648E+01  0.90007665706E+02  0.89999926093E+02 0.  0.
        -12    1    1    2    0    0  0.28455883714E+00  0.34416887222E+00 -0.10925946648E+01  0.11803342941E+01  0.00000000000E+00 0.  1.
         11    1    3    3    0    0 -0.38484584735E+02  0.15115430701E+02 -0.13749331534E+02  0.43572739476E+02  0.51100000000E-03 0. -1.
        -11    1    3    3    0    0  0.11188830654E+02 -0.48393514319E+00 -0.18137807105E+01  0.11345215968E+02  0.51100000000E-03 0.  1.
        -12    1    3    3    0    0  0.27011195244E+02 -0.14975664430E+02  0.16655706910E+02  0.35089710262E+02  0.00000000000E+00 0.  1.
</event>
<event>
 7    1  0.3622165E-015  0.9000778E+02  0.7816164E-02  0.1186339E+00
        -11   -1    0    0    0    0  0.00000000000E+00  0.00000000000E+00  0.45593999997E+02  0.45594000000E+02  0.51100000000E-03 0.  1.
         11   -1    0    0    0    0 -0.00000000000E+00 -0.00000000000E+00 -0.45593999997E+02  0.45594000000E+02  0.51100000000E-03 0. -1.
    9900012    2    1    2    0    0 -0.20913619724E-01  0.11623895023E+01 -0.20330780549E+00  0.90007779343E+02  0.90000041231E+02 0.  0.
        -12    1    1    2    0    0  0.20913619724E-01 -0.11623895023E+01  0.20330780549E+00  0.11802206566E+01  0.00000000000E+00 0.  1.
         11    1    3    3    0    0  0.73343346346E+01  0.43358016411E+01 -0.45036959296E+01  0.96371633633E+01  0.51100000000E-03 0. -1.
        -11    1    3    3    0    0 -0.12212532198E+02 -0.37108167925E+02  0.18549727644E+02  0.43246438759E+02  0.51100000000E-03 0.  1.
         12    1    3    3    0    0  0.48572839435E+01  0.33934755786E+02 -0.14249339520E+02  0.37124177221E+02  0.00000000000E+00 0. -1.
</event>
<event>
 7    1  0.3622165E-015  0.9000772E+02  0.7816164E-02  0.1186339E+00
        -11   -1    0    0    0    0  0.00000000000E+00  0.00000000000E+00  0.45593999997E+02  0.45594000000E+02  0.51100000000E-03 0.  1.
         11   -1    0    0    0    0 -0.00000000000E+00 -0.00000000000E+00 -0.45593999997E+02  0.45594000000E+02  0.51100000000E-03 0. -1.
    9900012    2    1    2    0    0  0.22510539180E+00 -0.86667543471E-01 -0.11553642092E+01  0.90007724542E+02  0.89999985706E+02 0.  0.
        -12    1    1    2    0    0 -0.22510539180E+00  0.86667543471E-01  0.11553642092E+01  0.11802754578E+01  0.00000000000E+00 0.  1.
         11    1    3    3    0    0  0.94743668355E+01 -0.11539049302E-02  0.41110749459E+01  0.10327853879E+02  0.51100000000E-03 0. -1.
        -11    1    3    3    0    0  0.34467426173E+02 -0.10923833749E+01  0.47742422231E+01  0.34813649011E+02  0.51100000000E-03 0.  1.
         12    1    3    3    0    0 -0.43716687616E+02  0.10068697363E+01 -0.10040681378E+02  0.44866221652E+02  0.00000000000E+00 0. -1.
</event>
<event>
 7    1  0.3622165E-015  0.9000766E+02  0.7816164E-02  0.1186339E+00
        -11   -1    0    0    0    0  0.00000000000E+00  0.00000000000E+00  0.45593999997E+02  0.45594000000E+02  0.51100000000E-03 0. -1.
         11   -1    0    0    0    0 -0.00000000000E+00 -0.00000000000E+00 -0.45593999997E+02  0.45594000000E+02  0.51100000000E-03 0.  1.
    9900012    2    1    2    0    0  0.16652697868E+00 -0.11660095554E+01  0.76841295095E-01  0.90007655092E+02  0.89999915339E+02 0.  0.
        -12    1    1    2    0    0 -0.16652697868E+00  0.11660095554E+01 -0.76841295095E-01  0.11803449083E+01  0.00000000000E+00 0.  1.
         11    1    3    3    0    0  0.25489646245E+01 -0.10615085174E+02  0.57485238661E+01  0.12337859653E+02  0.51100000000E-03 0. -1.
        -11    1    3    3    0    0  0.73300501316E+01 -0.29684420931E+02 -0.18031878445E+02  0.35497086098E+02  0.51100000000E-03 0.  1.
         12    1    3    3    0    0 -0.97124877774E+01  0.39133496550E+02  0.12360195874E+02  0.42172709340E+02  0.00000000000E+00 0. -1.
</event>
<event>
 7    1  0.3622165E-015  0.9000773E+02  0.7816164E-02  0.1186339E+00
        -11   -1    0    0    0    0  0.00000000000E+00  0.00000000000E+00  0.45593999997E+02  0.45594000000E+02  0.51100000000E-03 0.  1.
         11   -1    0    0    0    0 -0.00000000000E+00 -0.00000000000E+00 -0.45593999997E+02  0.45594000000E+02  0.51100000000E-03 0. -1.
    9900012    2    1    2    0    0 -0.43881297391E+00  0.13702889168E+00 -0.10870606335E+01  0.90007731148E+02  0.89999992399E+02 0.  0.
        -12    1    1    2    0    0  0.43881297391E+00 -0.13702889168E+00  0.10870606335E+01  0.11802688524E+01  0.00000000000E+00 0.  1.
         11    1    3    3    0    0 -0.51303674332E+00  0.13188088902E+00  0.97260456364E+01  0.97404601149E+01  0.51100000000E-03 0. -1.
        -11    1    3    3    0    0 -0.32554618144E+02 -0.10087549314E+02  0.15217121670E+02  0.37324557677E+02  0.51100000000E-03 0.  1.
         12    1    3    3    0    0  0.32628841913E+02  0.10092697317E+02 -0.26030227940E+02  0.42942713355E+02  0.00000000000E+00 0. -1.
</event>
<event>
 7    1  0.3622165E-015  0.9000775E+02  0.7816164E-02  0.1186339E+00
        -11   -1    0    0    0    0  0.00000000000E+00  0.00000000000E+00  0.45593999997E+02  0.45594000000E+02  0.51100000000E-03 0.  1.
         11   -1    0    0    0    0 -0.00000000000E+00 -0.00000000000E+00 -0.45593999997E+02  0.45594000000E+02  0.51100000000E-03 0. -1.
    9900012    2    1    2    0    0  0.11001025934E+01 -0.39298430495E+00 -0.16828078113E+00  0.90007753923E+02  0.90000015475E+02 0.  0.
        -12    1    1    2    0    0 -0.11001025934E+01  0.39298430495E+00  0.16828078113E+00  0.11802460766E+01  0.00000000000E+00 0.  1.
         11    1    3    3    0    0  0.14038363407E+01  0.11488358016E+02  0.34052720831E+02  0.35965829932E+02  0.51100000000E-03 0. -1.
        -11    1    3    3    0    0 -0.74994199114E+01 -0.33888909511E+01  0.73331668896E+01  0.11022759082E+02  0.51100000000E-03 0.  1.
        -12    1    3    3    0    0  0.71956861641E+01 -0.84924513699E+01 -0.41554168502E+02  0.43019164910E+02  0.00000000000E+00 0.  1.
</event>
<event>
 7    1  0.3622165E-015  0.9000777E+02  0.7816164E-02  0.1186339E+00
        -11   -1    0    0    0    0  0.00000000000E+00  0.00000000000E+00  0.45593999997E+02  0.45594000000E+02  0.51100000000E-03 0.  1.
         11   -1    0    0    0    0 -0.00000000000E+00 -0.00000000000E+00 -0.45593999997E+02  0.45594000000E+02  0.51100000000E-03 0. -1.
    9900012    2    1    2    0    0 -0.11207166748E+01 -0.31490320599E+00 -0.19435287582E+00  0.90007769965E+02  0.90000031729E+02 0.  0.
        -12    1    1    2    0    0  0.11207166748E+01  0.31490320599E+00  0.19435287582E+00  0.11802300346E+01  0.00000000000E+00 0.  1.
         11    1    3    3    0    0 -0.20390674213E+01 -0.30211186132E+01 -0.43159503806E+02  0.43313135683E+02  0.51100000000E-03 0. -1.
        -11    1    3    3    0    0  0.55073431937E+01 -0.36690951148E+01  0.60942725008E+01  0.89962906572E+01  0.51100000000E-03 0.  1.
        -12    1    3    3    0    0 -0.45889924471E+01  0.63753105220E+01  0.36870878430E+02  0.37698343625E+02  0.00000000000E+00 0.  1.
</event>
<event>
 7    1  0.3622165E-015  0.9000767E+02  0.7816164E-02  0.1186339E+00
        -11   -1    0    0    0    0  0.00000000000E+00  0.00000000000E+00  0.45593999997E+02  0.45594000000E+02  0.51100000000E-03 0.  1.
         11   -1    0    0    0    0 -0.00000000000E+00 -0.00000000000E+00 -0.45593999997E+02  0.45594000000E+02  0.51100000000E-03 0. -1.
    9900012    2    1    2    0    0  0.55374872649E+00 -0.53651892604E+00 -0.89369154694E+00  0.90007671744E+02  0.89999932211E+02 0.  0.
        -12    1    1    2    0    0 -0.55374872649E+00  0.53651892604E+00  0.89369154694E+00  0.11803282557E+01  0.00000000000E+00 0.  1.
         11    1    3    3    0    0 -0.13535128685E+02 -0.37768213976E+02  0.45277886771E+01  0.40374974502E+02  0.51100000000E-03 0. -1.
        -11    1    3    3    0    0 -0.42522183642E+01  0.15188610048E+01 -0.82300363445E+01  0.93873211441E+01  0.51100000000E-03 0.  1.
        -12    1    3    3    0    0  0.18341095775E+02  0.35712834045E+02  0.28085561205E+01  0.40245376098E+02  0.00000000000E+00 0.  1.
</event>
<event>
 7    1  0.3622165E-015  0.9000776E+02  0.7816164E-02  0.1186339E+00
        -11   -1    0    0    0    0  0.00000000000E+00  0.00000000000E+00  0.45593999997E+02  0.45594000000E+02  0.51100000000E-03 0.  1.
         11   -1    0    0    0    0 -0.00000000000E+00 -0.00000000000E+00 -0.45593999997E+02  0.45594000000E+02  0.51100000000E-03 0. -1.
    9900012    2    1    2    0    0 -0.90373750552E+00 -0.46139079785E+00  0.60277783082E+00  0.90007761015E+02  0.90000022661E+02 0.  0.
        -12    1    1    2    0    0  0.90373750552E+00  0.46139079785E+00 -0.60277783082E+00  0.11802389845E+01  0.00000000000E+00 0.  1.
         11    1    3    3    0    0 -0.29943178597E+02 -0.22640874075E+02  0.17359855685E+02  0.41359010059E+02  0.51100000000E-03 0. -1.
        -11    1    3    3    0    0 -0.48657140669E+01  0.59052201154E+01 -0.53912976722E+01  0.93601756844E+01  0.51100000000E-03 0.  1.
        -12    1    3    3    0    0  0.33905155159E+02  0.16274263162E+02 -0.11365780181E+02  0.39288575272E+02  0.00000000000E+00 0.  1.
</event>
<event>
 7    1  0.3622165E-015  0.9000760E+02  0.7816164E-02  0.1186339E+00
        -11   -1    0    0    0    0  0.00000000000E+00  0.00000000000E+00  0.45593999997E+02  0.45594000000E+02  0.51100000000E-03 0.  1.
         11   -1    0    0    0    0 -0.00000000000E+00 -0.00000000000E+00 -0.45593999997E+02  0.45594000000E+02  0.51100000000E-03 0. -1.
    9900012    2    1    2    0    0  0.10957956127E+01  0.42558702497E+00 -0.10706072104E+00  0.90007595689E+02  0.89999855151E+02 0.  0.
        -12    1    1    2    0    0 -0.10957956127E+01 -0.42558702497E+00  0.10706072104E+00  0.11804043115E+01  0.00000000000E+00 0.  1.
         11    1    3    3    0    0 -0.99722863257E+01  0.31338027935E+02 -0.17335479678E+02  0.37175762875E+02  0.51100000000E-03 0. -1.
        -11    1    3    3    0    0  0.90026690992E+01 -0.80120566626E+00 -0.90666071365E+01  0.12802083684E+02  0.51100000000E-03 0.  1.
        -12    1    3    3    0    0  0.20654128391E+01 -0.30111235244E+02  0.26295026093E+02  0.40029749129E+02  0.00000000000E+00 0.  1.
</event>
<event>
 7    1  0.3622165E-015  0.9000788E+02  0.7816164E-02  0.1186339E+00
        -11   -1    0    0    0    0  0.00000000000E+00  0.00000000000E+00  0.45593999997E+02  0.45594000000E+02  0.51100000000E-03 0.  1.
         11   -1    0    0    0    0 -0.00000000000E+00 -0.00000000000E+00 -0.45593999997E+02  0.45594000000E+02  0.51100000000E-03 0. -1.
    9900012    2    1    2    0    0  0.75301878442E+00 -0.35194345342E+00 -0.83772351025E+00  0.90007880445E+02  0.90000143667E+02 0.  0.
        -12    1    1    2    0    0 -0.75301878442E+00  0.35194345342E+00  0.83772351025E+00  0.11801195548E+01  0.00000000000E+00 0.  1.
         11    1    3    3    0    0  0.21210125583E+02 -0.23406966167E+02 -0.27549137779E+02  0.41913130222E+02  0.51100000000E-03 0. -1.
        -11    1    3    3    0    0 -0.40463399244E+01 -0.52318769029E+01  0.81345184263E+01  0.10484073302E+02  0.51100000000E-03 0.  1.
        -12    1    3    3    0    0 -0.16410766874E+02  0.28286899616E+02  0.18576895843E+02  0.37610676921E+02  0.00000000000E+00 0.  1.
</event>
<event>
 7    1  0.3622165E-015  0.9000785E+02  0.7816164E-02  0.1186339E+00
        -11   -1    0    0    0    0  0.00000000000E+00  0.00000000000E+00  0.45593999997E+02  0.45594000000E+02  0.51100000000E-03 0. -1.
         11   -1    0    0    0    0 -0.00000000000E+00 -0.00000000000E+00 -0.45593999997E+02  0.45594000000E+02  0.51100000000E-03 0.  1.
    9900012    2    1    2    0    0  0.92926054869E+00 -0.49334547677E+00  0.53463220190E+00  0.90007853179E+02  0.90000116041E+02 0.  0.
        -12    1    1    2    0    0 -0.92926054869E+00  0.49334547677E+00 -0.53463220190E+00  0.11801468206E+01  0.00000000000E+00 0.  1.
         11    1    3    3    0    0  0.28494391805E+02 -0.22549733375E+02  0.17343966504E+02  0.40264550339E+02  0.51100000000E-03 0. -1.
        -11    1    3    3    0    0  0.29963242686E+01  0.39073989303E+00  0.54034205539E+01  0.61909280992E+01  0.51100000000E-03 0.  1.
        -12    1    3    3    0    0 -0.30561455525E+02  0.21665648005E+02 -0.22212754856E+02  0.43552374741E+02  0.00000000000E+00 0.  1.
</event>
<event>
 7    1  0.3622165E-015  0.9000768E+02  0.7816164E-02  0.1186339E+00
        -11   -1    0    0    0    0  0.00000000000E+00  0.00000000000E+00  0.45593999997E+02  0.45594000000E+02  0.51100000000E-03 0. -1.
         11   -1    0    0    0    0 -0.00000000000E+00 -0.00000000000E+00 -0.45593999997E+02  0.45594000000E+02  0.51100000000E-03 0.  1.
    9900012    2    1    2    0    0 -0.65533714708E+00 -0.41558207493E+00  0.88937620021E+00  0.90007675781E+02  0.89999936301E+02 0.  0.
        -12    1    1    2    0    0  0.65533714708E+00  0.41558207493E+00 -0.88937620021E+00  0.11803242194E+01  0.00000000000E+00 0.  1.
         11    1    3    3    0    0 -0.20803439912E+01 -0.21015689432E+01 -0.73041925161E+01  0.78800794234E+01  0.51100000000E-03 0. -1.
        -11    1    3    3    0    0 -0.22171817168E+02 -0.19529000951E+02 -0.23142977670E+02  0.37530904204E+02  0.51100000000E-03 0.  1.
         12    1    3    3    0    0  0.23596824012E+02  0.21214987819E+02  0.31336546386E+02  0.44596692154E+02  0.00000000000E+00 0. -1.
</event>
<event>
 7    1  0.3622165E-015  0.9000774E+02  0.7816164E-02  0.1186339E+00
        -11   -1    0    0    0    0  0.00000000000E+00  0.00000000000E+00  0.45593999997E+02  0.45594000000E+02  0.51100000000E-03 0.  1.
         11   -1    0    0    0    0 -0.00000000000E+00 -0.00000000000E+00 -0.45593999997E+02  0.45594000000E+02  0.51100000000E-03 0. -1.
    9900012    2    1    2    0    0  0.17371825304E+00  0.11673901040E+01  0.60247911962E-02  0.90007739866E+02  0.90000001232E+02 0.  0.
        -12    1    1    2    0    0 -0.17371825304E+00 -0.11673901040E+01 -0.60247911962E-02  0.11802601342E+01  0.00000000000E+00 0.  1.
         11    1    3    3    0    0 -0.78602551663E+01 -0.81713986759E+01  0.27212085264E+01  0.11660203416E+02  0.51100000000E-03 0. -1.
        -11    1    3    3    0    0 -0.21366828063E+02  0.54307323677E+01  0.28008100508E+02  0.35643903965E+02  0.51100000000E-03 0.  1.
         12    1    3    3    0    0  0.29400801483E+02  0.39080564121E+01 -0.30723284243E+02  0.42703632485E+02  0.00000000000E+00 0. -1.
</event>
<event>
 7    1  0.3622165E-015  0.9000769E+02  0.7816164E-02  0.1186339E+00
        -11   -1    0    0    0    0  0.00000000000E+00  0.00000000000E+00  0.45593999997E+02  0.45594000000E+02  0.51100000000E-03 0.  1.
         11   -1    0    0    0    0 -0.00000000000E+00 -0.00000000000E+00 -0.45593999997E+02  0.45594000000E+02  0.51100000000E-03 0. -1.
    9900012    2    1    2    0    0  0.72293367909E+00 -0.42374282909E+00 -0.83122391730E+00  0.90007693137E+02  0.89999953887E+02 0.  0.
        -12    1    1    2    0    0 -0.72293367909E+00  0.42374282909E+00  0.83122391730E+00  0.11803068628E+01  0.00000000000E+00 0.  1.
         11    1    3    3    0    0 -0.39774595030E+01  0.84062300768E+01 -0.39405099954E+01  0.10100124132E+02  0.51100000000E-03 0. -1.
        -11    1    3    3    0    0 -0.19971586594E+02 -0.20779579167E+02  0.29933669044E+02  0.41553335896E+02  0.51100000000E-03 0.  1.
         12    1    3    3    0    0  0.24671979776E+02  0.11949606261E+02 -0.26824382966E+02  0.38354233109E+02  0.00000000000E+00 0. -1.
</event>
<event>
 7    1  0.3622165E-015  0.9000783E+02  0.7816164E-02  0.1186339E+00
        -11   -1    0    0    0    0  0.00000000000E+00  0.00000000000E+00  0.45593999997E+02  0.45594000000E+02  0.51100000000E-03 0.  1.
         11   -1    0    0    0    0 -0.00000000000E+00 -0.00000000000E+00 -0.45593999997E+02  0.45594000000E+02  0.51100000000E-03 0. -1.
    9900012    2    1    2    0    0  0.11150322458E+01  0.70340534501E-01  0.38020093930E+00  0.90007831599E+02  0.90000094176E+02 0.  0.
        -12    1    1    2    0    0 -0.11150322458E+01 -0.70340534501E-01 -0.38020093930E+00  0.11801684008E+01  0.00000000000E+00 0.  1.
         11    1    3    3    0    0 -0.61124591474E+01 -0.58828063690E+01  0.44460621744E+01  0.95779453289E+01  0.51100000000E-03 0. -1.
        -11    1    3    3    0    0 -0.31117429256E+02 -0.13763295725E+02  0.93274893237E+01  0.35280657166E+02  0.51100000000E-03 0.  1.
         12    1    3    3    0    0  0.38344920649E+02  0.19716442628E+02 -0.13393350559E+02  0.45149229104E+02  0.00000000000E+00 0. -1.
</event>
<event>
 7    1  0.3622165E-015  0.9000774E+02  0.7816164E-02  0.1186339E+00
        -11   -1    0    0    0    0  0.00000000000E+00  0.00000000000E+00  0.45593999997E+02  0.45594000000E+02  0.51100000000E-03 0. -1.
         11   -1    0    0    0    0 -0.00000000000E+00 -0.00000000000E+00 -0.45593999997E+02  0.45594000000E+02  0.51100000000E-03 0.  1.
    9900012    2    1    2    0    0  0.17988922597E+00  0.31782642598E-01  0.11660381433E+01  0.90007739342E+02  0.90000000701E+02 0.  0.
        -12    1    1    2    0    0 -0.17988922597E+00 -0.31782642598E-01 -0.11660381433E+01  0.11802606583E+01  0.00000000000E+00 0.  1.
         11    1    3    3    0    0  0.10479349681E+02  0.24782005992E+02  0.33028445421E+02  0.42600971795E+02  0.51100000000E-03 0. -1.
        -11    1    3    3    0    0  0.59479316397E+01 -0.58051341100E+01 -0.21146807029E+01  0.85760916251E+01  0.51100000000E-03 0.  1.
        -12    1    3    3    0    0 -0.16247392094E+02 -0.18945089240E+02 -0.29747726574E+02  0.38830675921E+02  0.00000000000E+00 0.  1.
</event>
<event>
 7    1  0.3622165E-015  0.9000776E+02  0.7816164E-02  0.1186339E+00
        -11   -1    0    0    0    0  0.00000000000E+00  0.00000000000E+00  0.45593999997E+02  0.45594000000E+02  0.51100000000E-03 0. -1.
         11   -1    0    0    0    0 -0.00000000000E+00 -0.00000000000E+00 -0.45593999997E+02  0.45594000000E+02  0.51100000000E-03 0.  1.
    9900012    2    1    2    0    0  0.37872446731E+00  0.99072860733E+00 -0.51767905579E+00  0.90007759770E+02  0.90000021399E+02 0.  0.
        -12    1    1    2    0    0 -0.37872446731E+00 -0.99072860733E+00  0.51767905579E+00  0.11802402299E+01  0.00000000000E+00 0.  1.
         11    1    3    3    0    0 -0.58393609366E+01  0.61397055666E+01 -0.21535712114E+01  0.87425390943E+01  0.51100000000E-03 0. -1.
        -11    1    3    3    0    0 -0.84733468810E+01  0.34520794572E+02 -0.10838970528E+02  0.37161352876E+02  0.51100000000E-03 0.  1.
         12    1    3    3    0    0  0.14691432285E+02 -0.39669771531E+02  0.12474862683E+02  0.44103867799E+02  0.00000000000E+00 0. -1.
</event>
<event>
 7    1  0.3622165E-015  0.9000770E+02  0.7816164E-02  0.1186339E+00
        -11   -1    0    0    0    0  0.00000000000E+00  0.00000000000E+00  0.45593999997E+02  0.45594000000E+02  0.51100000000E-03 0.  1.
         11   -1    0    0    0    0 -0.00000000000E+00 -0.00000000000E+00 -0.45593999997E+02  0.45594000000E+02  0.51100000000E-03 0. -1.
    9900012    2    1    2    0    0 -0.35613470969E+00  0.98275880353E+00 -0.54814085474E+00  0.90007701227E+02  0.89999962083E+02 0.  0.
        -12    1    1    2    0    0  0.35613470969E+00 -0.98275880353E+00  0.54814085474E+00  0.11802987732E+01  0.00000000000E+00 0.  1.
         11    1    3    3    0    0  0.23432463758E+01 -0.50466175918E+01  0.78812095337E+01  0.96474150254E+01  0.51100000000E-03 0. -1.
        -11    1    3    3    0    0  0.35002494866E+02  0.67005611374E+01  0.11835573332E+02  0.37552003445E+02  0.51100000000E-03 0.  1.
         12    1    3    3    0    0 -0.37701875951E+02 -0.67118474205E+00 -0.20264923720E+02  0.42808282757E+02  0.00000000000E+00 0. -1.
</event>
<event>
 7    1  0.3622165E-015  0.9000787E+02  0.7816164E-02  0.1186339E+00
        -11   -1    0    0    0    0  0.00000000000E+00  0.00000000000E+00  0.45593999997E+02  0.45594000000E+02  0.51100000000E-03 0. -1.
         11   -1    0    0    0    0 -0.00000000000E+00 -0.00000000000E+00 -0.45593999997E+02  0.45594000000E+02  0.51100000000E-03 0.  1.
    9900012    2    1    2    0    0 -0.13973922078E+00  0.59094605185E+00  0.10119106254E+01  0.90007869753E+02  0.90000132834E+02 0.  0.
        -12    1    1    2    0    0  0.13973922078E+00 -0.59094605185E+00 -0.10119106254E+01  0.11801302470E+01  0.00000000000E+00 0.  1.
         11    1    3    3    0    0  0.35120492530E+02 -0.24550186416E+01  0.25401539642E+02  0.43413296679E+02  0.51100000000E-03 0. -1.
        -11    1    3    3    0    0 -0.79517102575E+01 -0.41642430515E+01  0.44158958108E+00  0.89869693351E+01  0.51100000000E-03 0.  1.
        -12    1    3    3    0    0 -0.27308521494E+02  0.72102077449E+01 -0.24831218598E+02  0.37607603739E+02  0.00000000000E+00 0.  1.
</event>
<event>
 7    1  0.3622165E-015  0.9000777E+02  0.7816164E-02  0.1186339E+00
        -11   -1    0    0    0    0  0.00000000000E+00  0.00000000000E+00  0.45593999997E+02  0.45594000000E+02  0.51100000000E-03 0. -1.
         11   -1    0    0    0    0 -0.00000000000E+00 -0.00000000000E+00 -0.45593999997E+02  0.45594000000E+02  0.51100000000E-03 0.  1.
    9900012    2    1    2    0    0  0.73614398384E+00 -0.78743114841E+00 -0.48060508923E+00  0.90007772467E+02  0.90000034263E+02 0.  0.
        -12    1    1    2    0    0 -0.73614398384E+00  0.78743114841E+00  0.48060508923E+00  0.11802275332E+01  0.00000000000E+00 0.  1.
         11    1    3    3    0    0  0.30182527771E+02 -0.28313631949E+02 -0.85766516715E+01  0.42263526722E+02  0.51100000000E-03 0. -1.
        -11    1    3    3    0    0  0.56335439278E+00  0.48665291870E+01 -0.58565251095E+01  0.76354018309E+01  0.51100000000E-03 0.  1.
        -12    1    3    3    0    0 -0.30009738180E+02  0.22659671614E+02  0.13952571692E+02  0.40108843914E+02  0.00000000000E+00 0.  1.
</event>
<event>
 7    1  0.3622165E-015  0.9000790E+02  0.7816164E-02  0.1186339E+00
        -11   -1    0    0    0    0  0.00000000000E+00  0.00000000000E+00  0.45593999997E+02  0.45594000000E+02  0.51100000000E-03 0. -1.
         11   -1    0    0    0    0 -0.00000000000E+00 -0.00000000000E+00 -0.45593999997E+02  0.45594000000E+02  0.51100000000E-03 0.  1.
    9900012    2    1    2    0    0 -0.38961245929E+00  0.10920242184E+01  0.21980085992E+00  0.90007903741E+02  0.90000167270E+02 0.  0.
        -12    1    1    2    0    0  0.38961245929E+00 -0.10920242184E+01 -0.21980085992E+00  0.11800962588E+01  0.00000000000E+00 0.  1.
         11    1    3    3    0    0  0.81632098658E+01 -0.13137368938E+01 -0.35894854969E+01  0.90137842404E+01  0.51100000000E-03 0. -1.
        -11    1    3    3    0    0  0.24019811310E+02  0.43910079184E+01 -0.26797522049E+02  0.36253820132E+02  0.51100000000E-03 0.  1.
         12    1    3    3    0    0 -0.32572633635E+02 -0.19852468062E+01  0.30606808406E+02  0.44740299369E+02  0.00000000000E+00 0. -1.
</event>
<event>
 7    1  0.3622165E-015  0.9000772E+02  0.7816164E-02  0.1186339E+00
        -11   -1    0    0    0    0  0.00000000000E+00  0.00000000000E+00  0.45593999997E+02  0.45594000000E+02  0.51100000000E-03 0. -1.
         11   -1    0    0    0    0 -0.00000000000E+00 -0.00000000000E+00 -0.45593999997E+02  0.45594000000E+02  0.51100000000E-03 0.  1.
    9900012    2    1    2    0    0  0.11681795733E+01 -0.10414237812E+00  0.13257289004E+00  0.90007718372E+02  0.89999979454E+02 0.  0.
        -12    1    1    2    0    0 -0.11681795733E+01  0.10414237812E+00 -0.13257289004E+00  0.11802816281E+01  0.00000000000E+00 0.  1.
         11    1    3    3    0    0 -0.99025432348E+01  0.27625597248E+02  0.28905886594E+02  0.41192041293E+02  0.51100000000E-03 0. -1.
        -11    1    3    3    0    0 -0.30880374579E+01 -0.92200248498E+01  0.22833302505E+01  0.99879142400E+01  0.51100000000E-03 0.  1.
        -12    1    3    3    0    0  0.14158760266E+02 -0.18509714777E+02 -0.31056643954E+02  0.38827762839E+02  0.00000000000E+00 0.  1.
</event>
<event>
 7    1  0.3622165E-015  0.9000760E+02  0.7816164E-02  0.1186339E+00
        -11   -1    0    0    0    0  0.00000000000E+00  0.00000000000E+00  0.45593999997E+02  0.45594000000E+02  0.51100000000E-03 0.  1.
         11   -1    0    0    0    0 -0.00000000000E+00 -0.00000000000E+00 -0.45593999997E+02  0.45594000000E+02  0.51100000000E-03 0. -1.
    9900012    2    1    2    0    0 -0.52371437025E+00  0.48275290762E+00 -0.94128251944E+00  0.90007601808E+02  0.89999861351E+02 0.  0.
        -12    1    1    2    0    0  0.52371437025E+00 -0.48275290762E+00  0.94128251944E+00  0.11803981925E+01  0.00000000000E+00 0.  1.
         11    1    3    3    0    0 -0.50806480666E+01  0.62913351784E+01 -0.45944696811E+01  0.93007007809E+01  0.51100000000E-03 0. -1.
        -11    1    3    3    0    0 -0.23913410256E+02  0.48919165696E+01  0.31239941014E+02  0.39644872968E+02  0.51100000000E-03 0.  1.
         12    1    3    3    0    0  0.28470343953E+02 -0.10700498840E+02 -0.27586753852E+02  0.41062028059E+02  0.00000000000E+00 0. -1.
</event>
<event>
 7    1  0.3622165E-015  0.9000774E+02  0.7816164E-02  0.1186339E+00
        -11   -1    0    0    0    0  0.00000000000E+00  0.00000000000E+00  0.45593999997E+02  0.45594000000E+02  0.51100000000E-03 0.  1.
         11   -1    0    0    0    0 -0.00000000000E+00 -0.00000000000E+00 -0.45593999997E+02  0.45594000000E+02  0.51100000000E-03 0. -1.
    9900012    2    1    2    0    0 -0.39653695858E+00  0.64532343129E+00 -0.90517353847E+00  0.90007736036E+02  0.89999997351E+02 0.  0.
        -12    1    1    2    0    0  0.39653695858E+00 -0.64532343129E+00  0.90517353847E+00  0.11802639642E+01  0.00000000000E+00 0.  1.
         11    1    3    3    0    0 -0.60727655672E+01  0.18497067528E+01  0.69129522061E+01  0.93855636576E+01  0.51100000000E-03 0. -1.
        -11    1    3    3    0    0  0.22374814183E+02  0.10297000116E+02  0.29330265868E+02  0.38300457142E+02  0.51100000000E-03 0.  1.
         12    1    3    3    0    0 -0.16698585575E+02 -0.11501383437E+02 -0.37148391612E+02  0.42321715237E+02  0.00000000000E+00 0. -1.
</event>
<event>
 7    1  0.3622165E-015  0.9000756E+02  0.7816164E-02  0.1186339E+00
        -11   -1    0    0    0    0  0.00000000000E+00  0.00000000000E+00  0.45593999997E+02  0.45594000000E+02  0.51100000000E-03 0.  1.
         11   -1    0    0    0    0 -0.00000000000E+00 -0.00000000000E+00 -0.45593999997E+02  0.45594000000E+02  0.51100000000E-03 0. -1.
    9900012    2    1    2    0    0  0.59899731915E-02  0.61355482327E+00 -0.10084451547E+01  0.90007556426E+02  0.89999815371E+02 0.  0.
        -12    1    1    2    0    0 -0.59899731915E-02 -0.61355482327E+00  0.10084451547E+01  0.11804435738E+01  0.00000000000E+00 0.  1.
         11    1    3    3    0    0  0.22662756842E+01 -0.18831639478E+02 -0.26910000035E+02  0.32922860645E+02  0.51100000000E-03 0. -1.
        -11    1    3    3    0    0 -0.23519178135E+02  0.44463819717E+01  0.70400093612E+01  0.24949624944E+02  0.51100000000E-03 0.  1.
         12    1    3    3    0    0  0.21258892424E+02  0.14998812329E+02  0.18861545519E+02  0.32135070838E+02  0.00000000000E+00 0. -1.
</event>
<event>
 7    1  0.3622165E-015  0.9000756E+02  0.7816164E-02  0.1186339E+00
        -11   -1    0    0    0    0  0.00000000000E+00  0.00000000000E+00  0.45593999997E+02  0.45594000000E+02  0.51100000000E-03 0.  1.
         11   -1    0    0    0    0 -0.00000000000E+00 -0.00000000000E+00 -0.45593999997E+02  0.45594000000E+02  0.51100000000E-03 0. -1.
    9900012    2    1    2    0    0 -0.10280267251E+01  0.33826035569E-01 -0.57919471430E+00  0.90007555310E+02  0.89999814240E+02 0.  0.
        -12    1    1    2    0    0  0.10280267251E+01 -0.33826035569E-01  0.57919471430E+00  0.11804446897E+01  0.00000000000E+00 0.  1.
         11    1    3    3    0    0  0.25418296754E+02 -0.25258245295E+02 -0.12707523754E+02  0.38020388288E+02  0.51100000000E-03 0. -1.
        -11    1    3    3    0    0  0.26643485730E+01  0.23867054303E+01 -0.87597163742E+01  0.94619103435E+01  0.51100000000E-03 0.  1.
        -12    1    3    3    0    0 -0.29110672053E+02  0.22905365901E+02  0.20888045414E+02  0.42525256679E+02  0.00000000000E+00 0.  1.
</event>
<event>
 7    1  0.3622165E-015  0.9000772E+02  0.7816164E-02  0.1186339E+00
        -11   -1    0    0    0    0  0.00000000000E+00  0.00000000000E+00  0.45593999997E+02  0.45594000000E+02  0.51100000000E-03 0.  1.
         11   -1    0    0    0    0 -0.00000000000E+00 -0.00000000000E+00 -0.45593999997E+02  0.45594000000E+02  0.51100000000E-03 0. -1.
    9900012    2    1    2    0    0 -0.90334225736E+00 -0.74613389147E+00  0.14256509864E+00  0.90007717057E+02  0.89999978122E+02 0.  0.
        -12    1    1    2    0    0  0.90334225736E+00  0.74613389147E+00 -0.14256509864E+00  0.11802829429E+01  0.00000000000E+00 0.  1.
         11    1    3    3    0    0 -0.65988493892E+01  0.52987373115E+01  0.14349354691E+01  0.85837328954E+01  0.51100000000E-03 0. -1.
        -11    1    3    3    0    0  0.39764172428E+02 -0.19451015154E+01  0.16111568762E+02  0.42948288406E+02  0.51100000000E-03 0.  1.
         12    1    3    3    0    0 -0.34068665296E+02 -0.40997696876E+01 -0.17403939132E+02  0.38475695756E+02  0.00000000000E+00 0. -1.
</event>
<event>
 7    1  0.3622165E-015  0.9000768E+02  0.7816164E-02  0.1186339E+00
        -11   -1    0    0    0    0  0.00000000000E+00  0.00000000000E+00  0.45593999997E+02  0.45594000000E+02  0.51100000000E-03 0. -1.
         11   -1    0    0    0    0 -0.00000000000E+00 -0.00000000000E+00 -0.45593999997E+02  0.45594000000E+02  0.51100000000E-03 0.  1.
    9900012    2    1    2    0    0  0.65929889042E+00  0.70921835528E+00  0.67490282877E+00  0.90007678209E+02  0.89999938761E+02 0.  0.
        -12    1    1    2    0    0 -0.65929889042E+00 -0.70921835528E+00 -0.67490282877E+00  0.11803217911E+01  0.00000000000E+00 0.  1.
         11    1    3    3    0    0  0.24261136486E+02  0.26655598216E+02  0.11161479472E+02  0.37731979595E+02  0.51100000000E-03 0. -1.
        -11    1    3    3    0    0  0.75437364054E+01 -0.28222938053E+01  0.60833278947E+01  0.10093571212E+02  0.51100000000E-03 0.  1.
        -12    1    3    3    0    0 -0.31145574001E+02 -0.23124086055E+02 -0.16569904538E+02  0.42182127402E+02  0.00000000000E+00 0.  1.
</event>
<event>
 7    1  0.3622165E-015  0.9000773E+02  0.7816164E-02  0.1186339E+00
        -11   -1    0    0    0    0  0.00000000000E+00  0.00000000000E+00  0.45593999997E+02  0.45594000000E+02  0.51100000000E-03 0.  1.
         11   -1    0    0    0    0 -0.00000000000E+00 -0.00000000000E+00 -0.45593999997E+02  0.45594000000E+02  0.51100000000E-03 0. -1.
    9900012    2    1    2    0    0 -0.23140379758E+00 -0.29395193749E+00 -0.11194102745E+01  0.90007731038E+02  0.89999992288E+02 0.  0.
        -12    1    1    2    0    0  0.23140379758E+00  0.29395193749E+00  0.11194102745E+01  0.11802689616E+01  0.00000000000E+00 0.  1.
         11    1    3    3    0    0  0.10924038459E+02 -0.42251169132E+01  0.14865518482E+01  0.11806611107E+02  0.51100000000E-03 0. -1.
        -11    1    3    3    0    0 -0.23305879075E+02  0.36392089130E+02  0.18542556452E+01  0.43254900474E+02  0.51100000000E-03 0.  1.
         12    1    3    3    0    0  0.12150436819E+02 -0.32460924154E+02 -0.44602177679E+01  0.34946219458E+02  0.00000000000E+00 0. -1.
</event>
<event>
 7    1  0.3622165E-015  0.9000772E+02  0.7816164E-02  0.1186339E+00
        -11   -1    0    0    0    0  0.00000000000E+00  0.00000000000E+00  0.45593999997E+02  0.45594000000E+02  0.51100000000E-03 0.  1.
         11   -1    0    0    0    0 -0.00000000000E+00 -0.00000000000E+00 -0.45593999997E+02  0.45594000000E+02  0.51100000000E-03 0. -1.
    9900012    2    1    2    0    0 -0.70240969987E+00  0.80818371276E+00 -0.49650490554E+00  0.90007721465E+02  0.89999982588E+02 0.  0.
        -12    1    1    2    0    0  0.70240969987E+00 -0.80818371276E+00  0.49650490554E+00  0.11802785355E+01  0.00000000000E+00 0.  1.
         11    1    3    3    0    0  0.10391463652E+02 -0.37776016874E+02  0.10991353231E+02  0.40691765922E+02  0.51100000000E-03 0. -1.
        -11    1    3    3    0    0  0.76537785566E+01  0.51287568459E+01  0.22784644037E+00  0.92160939253E+01  0.51100000000E-03 0.  1.
        -12    1    3    3    0    0 -0.18747651909E+02  0.33455443741E+02 -0.11715704577E+02  0.40099861618E+02  0.00000000000E+00 0.  1.
</event>
<event>
 7    1  0.3622165E-015  0.9000790E+02  0.7816164E-02  0.1186339E+00
        -11   -1    0    0    0    0  0.00000000000E+00  0.00000000000E+00  0.45593999997E+02  0.45594000000E+02  0.51100000000E-03 0. -1.
         11   -1    0    0    0    0 -0.00000000000E+00 -0.00000000000E+00 -0.45593999997E+02  0.45594000000E+02  0.51100000000E-03 0.  1.
    9900012    2    1    2    0    0 -0.13076629883E+00 -0.60377756452E+00  0.10054819784E+01  0.90007897809E+02  0.90000161260E+02 0.  0.
        -12    1    1    2    0    0  0.13076629883E+00  0.60377756452E+00 -0.10054819784E+01  0.11801021910E+01  0.00000000000E+00 0.  1.
         11    1    3    3    0    0 -0.23100770238E+02  0.27606127549E+02  0.25668155999E+01  0.36087842918E+02  0.51100000000E-03 0. -1.
        -11    1    3    3    0    0 -0.72633345179E+01  0.51270814884E+01 -0.73397224869E-01  0.88909156065E+01  0.51100000000E-03 0.  1.
        -12    1    3    3    0    0  0.30233338458E+02 -0.33336986602E+02 -0.14879363966E+01  0.45029139285E+02  0.00000000000E+00 0.  1.
</event>
<event>
 7    1  0.3622165E-015  0.9000758E+02  0.7816164E-02  0.1186339E+00
        -11   -1    0    0    0    0  0.00000000000E+00  0.00000000000E+00  0.45593999997E+02  0.45594000000E+02  0.51100000000E-03 0.  1.
         11   -1    0    0    0    0 -0.00000000000E+00 -0.00000000000E+00 -0.45593999997E+02  0.45594000000E+02  0.51100000000E-03 0. -1.
    9900012    2    1    2    0    0 -0.33339412494E+00 -0.15344961672E+00 -0.11219097307E+01  0.90007584873E+02  0.89999844194E+02 0.  0.
        -12    1    1    2    0    0  0.33339412494E+00  0.15344961672E+00  0.11219097307E+01  0.11804151266E+01  0.00000000000E+00 0.  1.
         11    1    3    3    0    0 -0.29936163363E+02  0.20431819217E+02  0.81910415014E+01  0.37158125283E+02  0.51100000000E-03 0. -1.
        -11    1    3    3    0    0 -0.82691106106E+01 -0.92566209041E-01 -0.47775875437E+01  0.95505026984E+01  0.51100000000E-03 0.  1.
        -12    1    3    3    0    0  0.37871879849E+02 -0.20492702625E+02 -0.45353636884E+01  0.43298956892E+02  0.00000000000E+00 0.  1.
</event>
<event>
 7    1  0.3622165E-015  0.9000779E+02  0.7816164E-02  0.1186339E+00
        -11   -1    0    0    0    0  0.00000000000E+00  0.00000000000E+00  0.45593999997E+02  0.45594000000E+02  0.51100000000E-03 0.  1.
         11   -1    0    0    0    0 -0.00000000000E+00 -0.00000000000E+00 -0.45593999997E+02  0.45594000000E+02  0.51100000000E-03 0. -1.
    9900012    2    1    2    0    0  0.74401645000E+00 -0.89559606678E+00 -0.19297397504E+00  0.90007791651E+02  0.90000053700E+02 0.  0.
        -12    1    1    2    0    0 -0.74401645000E+00  0.89559606678E+00  0.19297397504E+00  0.11802083493E+01  0.00000000000E+00 0.  1.
         11    1    3    3    0    0 -0.10359021053E+02 -0.36382410295E+01 -0.36240320172E+01  0.11561994780E+02  0.51100000000E-03 0. -1.
        -11    1    3    3    0    0 -0.15796953994E+02 -0.39958714752E+01  0.33676595513E+02  0.37411546747E+02  0.51100000000E-03 0.  1.
         12    1    3    3    0    0  0.26899991497E+02  0.67385164379E+01 -0.30245537471E+02  0.41034250124E+02  0.00000000000E+00 0. -1.
</event>
<event>
 7    1  0.3622165E-015  0.9000774E+02  0.7816164E-02  0.1186339E+00
        -11   -1    0    0    0    0  0.00000000000E+00  0.00000000000E+00  0.45593999997E+02  0.45594000000E+02  0.51100000000E-03 0. -1.
         11   -1    0    0    0    0 -0.00000000000E+00 -0.00000000000E+00 -0.45593999997E+02  0.45594000000E+02  0.51100000000E-03 0.  1.
    9900012    2    1    2    0    0 -0.73500420325E+00  0.78744789455E-01  0.92010304334E+00  0.90007736669E+02  0.89999997993E+02 0.  0.
        -12    1    1    2    0    0  0.73500420325E+00 -0.78744789455E-01 -0.92010304334E+00  0.11802633312E+01  0.00000000000E+00 0.  1.
         11    1    3    3    0    0 -0.84329478562E+01 -0.86203574036E+01 -0.18013539746E+01  0.12193032753E+02  0.51100000000E-03 0. -1.
        -11    1    3    3    0    0 -0.13208638336E+02  0.16301813595E+02 -0.30990114393E+02  0.37424650213E+02  0.51100000000E-03 0.  1.
         12    1    3    3    0    0  0.20906581989E+02 -0.76027114017E+01  0.33711571411E+02  0.40390053703E+02  0.00000000000E+00 0. -1.
</event>
<event>
 7    1  0.3622165E-015  0.9000773E+02  0.7816164E-02  0.1186339E+00
        -11   -1    0    0    0    0  0.00000000000E+00  0.00000000000E+00  0.45593999997E+02  0.45594000000E+02  0.51100000000E-03 0.  1.
         11   -1    0    0    0    0 -0.00000000000E+00 -0.00000000000E+00 -0.45593999997E+02  0.45594000000E+02  0.51100000000E-03 0. -1.
    9900012    2    1    2    0    0 -0.87535083215E+00  0.62302146123E+00  0.48849884966E+00  0.90007734798E+02  0.89999996098E+02 0.  0.
        -12    1    1    2    0    0  0.87535083215E+00 -0.62302146123E+00 -0.48849884966E+00  0.11802652018E+01  0.00000000000E+00 0.  1.
         11    1    3    3    0    0  0.46423218170E+01  0.83502962795E+01  0.19778642068E+01  0.97565642974E+01  0.51100000000E-03 0. -1.
        -11    1    3    3    0    0  0.23584524434E+02  0.26333732843E+02  0.11847225041E+01  0.35370875673E+02  0.51100000000E-03 0.  1.
         12    1    3    3    0    0 -0.29102197083E+02 -0.34061007661E+02 -0.26740878612E+01  0.44880294828E+02  0.00000000000E+00 0. -1.
</event>
<event>
 7    1  0.3622165E-015  0.9000771E+02  0.7816164E-02  0.1186339E+00
        -11   -1    0    0    0    0  0.00000000000E+00  0.00000000000E+00  0.45593999997E+02  0.45594000000E+02  0.51100000000E-03 0.  1.
         11   -1    0    0    0    0 -0.00000000000E+00 -0.00000000000E+00 -0.45593999997E+02  0.45594000000E+02  0.51100000000E-03 0. -1.
    9900012    2    1    2    0    0 -0.17420339019E+00  0.11612133616E+01  0.11969070613E+00  0.90007708020E+02  0.89999968966E+02 0.  0.
        -12    1    1    2    0    0  0.17420339019E+00 -0.11612133616E+01 -0.11969070613E+00  0.11802919797E+01  0.00000000000E+00 0.  1.
         11    1    3    3    0    0 -0.20861846670E+02  0.28073781462E+02  0.73261017502E+01  0.35735495228E+02  0.51100000000E-03 0. -1.
        -11    1    3    3    0    0 -0.33895730276E+01  0.85457717883E+01 -0.67570960935E+01  0.11409547259E+02  0.51100000000E-03 0.  1.
        -12    1    3    3    0    0  0.24077216308E+02 -0.35458339888E+02 -0.44931495054E+00  0.42862665534E+02  0.00000000000E+00 0.  1.
</event>
<event>
 7    1  0.3622165E-015  0.9000777E+02  0.7816164E-02  0.1186339E+00
        -11   -1    0    0    0    0  0.00000000000E+00  0.00000000000E+00  0.45593999997E+02  0.45594000000E+02  0.51100000000E-03 0. -1.
         11   -1    0    0    0    0 -0.00000000000E+00 -0.00000000000E+00 -0.45593999997E+02  0.45594000000E+02  0.51100000000E-03 0.  1.
    9900012    2    1    2    0    0 -0.15827259906E+00  0.11685292067E+01 -0.49292045369E-01  0.90007771027E+02  0.90000032805E+02 0.  0.
        -12    1    1    2    0    0  0.15827259906E+00 -0.11685292067E+01  0.49292045369E-01  0.11802289728E+01  0.00000000000E+00 0.  1.
         11    1    3    3    0    0 -0.20319423152E+02  0.23787601846E+02  0.19044580859E+02  0.36625469542E+02  0.51100000000E-03 0. -1.
        -11    1    3    3    0    0 -0.20776208455E+01  0.50108226464E+01  0.73546368551E+01  0.91386834666E+01  0.51100000000E-03 0.  1.
        -12    1    3    3    0    0  0.22238771399E+02 -0.27629895286E+02 -0.26448509760E+02  0.44243618018E+02  0.00000000000E+00 0.  1.
</event>
<event>
 7    1  0.3622165E-015  0.9000779E+02  0.7816164E-02  0.1186339E+00
        -11   -1    0    0    0    0  0.00000000000E+00  0.00000000000E+00  0.45593999997E+02  0.45594000000E+02  0.51100000000E-03 0.  1.
         11   -1    0    0    0    0 -0.00000000000E+00 -0.00000000000E+00 -0.45593999997E+02  0.45594000000E+02  0.51100000000E-03 0. -1.
    9900012    2    1    2    0    0  0.57771527233E+00  0.78932125913E+00 -0.66037956227E+00  0.90007794869E+02  0.90000056961E+02 0.  0.
        -12    1    1    2    0    0 -0.57771527233E+00 -0.78932125913E+00  0.66037956227E+00  0.11802051314E+01  0.00000000000E+00 0.  1.
         11    1    3    3    0    0  0.34226240875E+01 -0.81097450587E+01  0.64241223884E+01  0.10897323951E+02  0.51100000000E-03 0. -1.
        -11    1    3    3    0    0  0.44727850478E+01 -0.17739582716E+02  0.28619282771E+02  0.33967071519E+02  0.51100000000E-03 0.  1.
         12    1    3    3    0    0 -0.73176938630E+01  0.26638649034E+02 -0.35703784722E+02  0.45143399399E+02  0.00000000000E+00 0. -1.
</event>
<event>
 7    1  0.3622165E-015  0.9000773E+02  0.7816164E-02  0.1186339E+00
        -11   -1    0    0    0    0  0.00000000000E+00  0.00000000000E+00  0.45593999997E+02  0.45594000000E+02  0.51100000000E-03 0. -1.
         11   -1    0    0    0    0 -0.00000000000E+00 -0.00000000000E+00 -0.45593999997E+02  0.45594000000E+02  0.51100000000E-03 0.  1.
    9900012    2    1    2    0    0  0.81211719072E+00 -0.71742698350E+00 -0.46775334543E+00  0.90007733505E+02  0.89999994787E+02 0.  0.
        -12    1    1    2    0    0 -0.81211719072E+00  0.71742698350E+00  0.46775334543E+00  0.11802664954E+01  0.00000000000E+00 0.  1.
         11    1    3    3    0    0  0.25650274869E+02  0.23812736733E+02  0.18462278954E+02  0.39570680762E+02  0.51100000000E-03 0. -1.
        -11    1    3    3    0    0  0.46209373080E+01 -0.10376330433E+02  0.21297277896E+01  0.11556687916E+02  0.51100000000E-03 0.  1.
        -12    1    3    3    0    0 -0.29459094987E+02 -0.14153833283E+02 -0.21059760089E+02  0.38880364827E+02  0.00000000000E+00 0.  1.
</event>
<event>
 7    1  0.3622165E-015  0.9000793E+02  0.7816164E-02  0.1186339E+00
        -11   -1    0    0    0    0  0.00000000000E+00  0.00000000000E+00  0.45593999997E+02  0.45594000000E+02  0.51100000000E-03 0. -1.
         11   -1    0    0    0    0 -0.00000000000E+00 -0.00000000000E+00 -0.45593999997E+02  0.45594000000E+02  0.51100000000E-03 0.  1.
    9900012    2    1    2    0    0 -0.31311549085E+00 -0.88723442559E+00  0.71227154475E+00  0.90007933481E+02  0.90000197402E+02 0.  0.
        -12    1    1    2    0    0  0.31311549085E+00  0.88723442559E+00 -0.71227154475E+00  0.11800665193E+01  0.00000000000E+00 0.  1.
         11    1    3    3    0    0 -0.35307084210E+02  0.76093884312E+01 -0.95912740165E+00  0.36130498382E+02  0.51100000000E-03 0. -1.
        -11    1    3    3    0    0 -0.78633250136E+01 -0.72463431601E+01  0.25500235544E+01  0.10992906342E+02  0.51100000000E-03 0.  1.
        -12    1    3    3    0    0  0.42857293733E+02 -0.12502796967E+01 -0.87862460799E+00  0.42884528756E+02  0.00000000000E+00 0.  1.
</event>
<event>
 7    1  0.3622165E-015  0.9000766E+02  0.7816164E-02  0.1186339E+00
        -11   -1    0    0    0    0  0.00000000000E+00  0.00000000000E+00  0.45593999997E+02  0.45594000000E+02  0.51100000000E-03 0.  1.
         11   -1    0    0    0    0 -0.00000000000E+00 -0.00000000000E+00 -0.45593999997E+02  0.45594000000E+02  0.51100000000E-03 0. -1.
    9900012    2    1    2    0    0 -0.56419019427E+00 -0.35995844871E+00 -0.97227073358E+00  0.90007664861E+02  0.89999925238E+02 0.  0.
        -12    1    1    2    0    0  0.56419019427E+00  0.35995844871E+00  0.97227073358E+00  0.11803351386E+01  0.00000000000E+00 0.  1.
         11    1    3    3    0    0 -0.69097128688E+01 -0.25166132680E+01  0.73268871453E+01  0.10380787531E+02  0.51100000000E-03 0. -1.
        -11    1    3    3    0    0 -0.30150633379E+01  0.13330915358E+02  0.33060149091E+02  0.35773976148E+02  0.51100000000E-03 0.  1.
         12    1    3    3    0    0  0.93605860124E+01 -0.11174260539E+02 -0.41359306970E+02  0.43852901183E+02  0.00000000000E+00 0. -1.
</event>
<event>
 7    1  0.3622165E-015  0.9000773E+02  0.7816164E-02  0.1186339E+00
        -11   -1    0    0    0    0  0.00000000000E+00  0.00000000000E+00  0.45593999997E+02  0.45594000000E+02  0.51100000000E-03 0.  1.
         11   -1    0    0    0    0 -0.00000000000E+00 -0.00000000000E+00 -0.45593999997E+02  0.45594000000E+02  0.51100000000E-03 0. -1.
    9900012    2    1    2    0    0 -0.10339486248E+01  0.52331426316E+00  0.22389952585E+00  0.90007729449E+02  0.89999990677E+02 0.  0.
        -12    1    1    2    0    0  0.10339486248E+01 -0.52331426316E+00 -0.22389952585E+00  0.11802705514E+01  0.00000000000E+00 0.  1.
         11    1    3    3    0    0 -0.58457491655E+01  0.23513600383E+01 -0.70717273454E+01  0.94715893726E+01  0.51100000000E-03 0. -1.
        -11    1    3    3    0    0  0.28714072769E+02 -0.26861036580E+02 -0.11740740985E+02  0.41034842028E+02  0.51100000000E-03 0.  1.
         12    1    3    3    0    0 -0.23902272228E+02  0.25032990805E+02  0.19036367856E+02  0.39501298048E+02  0.00000000000E+00 0. -1.
</event>
<event>
 7    1  0.3622165E-015  0.9000774E+02  0.7816164E-02  0.1186339E+00
        -11   -1    0    0    0    0  0.00000000000E+00  0.00000000000E+00  0.45593999997E+02  0.45594000000E+02  0.51100000000E-03 0.  1.
         11   -1    0    0    0    0 -0.00000000000E+00 -0.00000000000E+00 -0.45593999997E+02  0.45594000000E+02  0.51100000000E-03 0. -1.
    9900012    2    1    2    0    0  0.10523031175E+01 -0.14631582063E+00 -0.51407528252E+00  0.90007735806E+02  0.89999997119E+02 0.  0.
        -12    1    1    2    0    0 -0.10523031175E+01  0.14631582063E+00  0.51407528252E+00  0.11802641936E+01  0.00000000000E+00 0.  1.
         11    1    3    3    0    0  0.52433974728E+01 -0.35255286247E+01 -0.84929956714E+01  0.10585534700E+02  0.51100000000E-03 0. -1.
        -11    1    3    3    0    0  0.16613918230E+02  0.30412329320E+02 -0.15549144315E+02  0.37982995443E+02  0.51100000000E-03 0.  1.
         12    1    3    3    0    0 -0.20805012586E+02 -0.27033116516E+02  0.23528064704E+02  0.41439205663E+02  0.00000000000E+00 0. -1.
</event>
<event>
 7    1  0.3622165E-015  0.9000775E+02  0.7816164E-02  0.1186339E+00
        -11   -1    0    0    0    0  0.00000000000E+00  0.00000000000E+00  0.45593999997E+02  0.45594000000E+02  0.51100000000E-03 0.  1.
         11   -1    0    0    0    0 -0.00000000000E+00 -0.00000000000E+00 -0.45593999997E+02  0.45594000000E+02  0.51100000000E-03 0. -1.
    9900012    2    1    2    0    0 -0.19929994067E+00  0.93159916722E+00 -0.69669718428E+00  0.90007752381E+02  0.90000013913E+02 0.  0.
        -12    1    1    2    0    0  0.19929994067E+00 -0.93159916722E+00  0.69669718428E+00  0.11802476186E+01  0.00000000000E+00 0.  1.
         11    1    3    3    0    0  0.24296393008E+02 -0.16490934520E+02 -0.22534171180E+02  0.37014247332E+02  0.51100000000E-03 0. -1.
        -11    1    3    3    0    0  0.47045885943E+01 -0.66623229940E+01 -0.18206588747E+01  0.83567039266E+01  0.51100000000E-03 0.  1.
        -12    1    3    3    0    0 -0.29200281543E+02  0.24084856682E+02  0.23658132870E+02  0.44636801123E+02  0.00000000000E+00 0.  1.
</event>
<event>
 7    1  0.3622165E-015  0.9000771E+02  0.7816164E-02  0.1186339E+00
        -11   -1    0    0    0    0  0.00000000000E+00  0.00000000000E+00  0.45593999997E+02  0.45594000000E+02  0.51100000000E-03 0.  1.
         11   -1    0    0    0    0 -0.00000000000E+00 -0.00000000000E+00 -0.45593999997E+02  0.45594000000E+02  0.51100000000E-03 0. -1.
    9900012    2    1    2    0    0  0.10408941449E+01  0.38547998162E+00  0.40127921299E+00  0.90007711712E+02  0.89999972706E+02 0.  0.
        -12    1    1    2    0    0 -0.10408941449E+01 -0.38547998162E+00 -0.40127921299E+00  0.11802882884E+01  0.00000000000E+00 0.  1.
         11    1    3    3    0    0 -0.37998287410E+02  0.20977929332E+01 -0.11335522638E+02  0.39708496006E+02  0.51100000000E-03 0. -1.
        -11    1    3    3    0    0  0.45031242356E+00  0.73264078830E+01 -0.31159780599E+01  0.79742305759E+01  0.51100000000E-03 0.  1.
        -12    1    3    3    0    0  0.38588869131E+02 -0.90387208346E+01  0.14852779911E+02  0.42324985130E+02  0.00000000000E+00 0.  1.
</event>
<event>
 7    1  0.3622165E-015  0.9000782E+02  0.7816164E-02  0.1186339E+00
        -11   -1    0    0    0    0  0.00000000000E+00  0.00000000000E+00  0.45593999997E+02  0.45594000000E+02  0.51100000000E-03 0.  1.
         11   -1    0    0    0    0 -0.00000000000E+00 -0.00000000000E+00 -0.45593999997E+02  0.45594000000E+02  0.51100000000E-03 0. -1.
    9900012    2    1    2    0    0  0.59120929669E+00  0.24233090543E+00 -0.99225313857E+00  0.90007822475E+02  0.90000084931E+02 0.  0.
        -12    1    1    2    0    0 -0.59120929669E+00 -0.24233090543E+00  0.99225313857E+00  0.11801775253E+01  0.00000000000E+00 0.  1.
         11    1    3    3    0    0  0.40698964156E+01 -0.12657995864E+02  0.36789663809E+02  0.39118643632E+02  0.51100000000E-03 0. -1.
        -11    1    3    3    0    0 -0.20482229306E+01  0.79016171263E+01  0.37855202134E+01  0.89978294011E+01  0.51100000000E-03 0.  1.
        -12    1    3    3    0    0 -0.14304641883E+01  0.49987096432E+01 -0.41567437161E+02  0.41891349442E+02  0.00000000000E+00 0.  1.
</event>
<event>
 7    1  0.5792986E-015  0.9000861E+02  0.7816164E-02  0.1186337E+00
        -11   -1    0    0    0    0  0.00000000000E+00  0.00000000000E+00  0.45593999997E+02  0.45594000000E+02  0.51100000000E-03 0. -1.
         11   -1    0    0    0    0 -0.00000000000E+00 -0.00000000000E+00 -0.45593999997E+02  0.45594000000E+02  0.51100000000E-03 0.  1.
    9900012    2    1    2    0    0  0.39499654515E+00 -0.10073929510E+01 -0.46914230092E+00  0.90008611461E+02  0.90000884328E+02 0.  0.
        -12    1    1    2    0    0 -0.39499654515E+00  0.10073929510E+01  0.46914230092E+00  0.11793885394E+01  0.00000000000E+00 0.  1.
         11    1    3    3    0    0 -0.10934317856E+02  0.27556996847E+02 -0.26880328839E+02  0.40018738873E+02  0.51100000000E-03 0. -1.
        -11    1    3    3    0    0  0.92149237679E+01  0.12298900478E+01 -0.11252001537E+01  0.93644821120E+01  0.51100000000E-03 0.  1.
        -12    1    3    3    0    0  0.21143906337E+01 -0.29794279846E+02  0.27536386692E+02  0.40625390476E+02  0.00000000000E+00 0.  1.
</event>
<event>
 7    1  0.3622165E-015  0.9000764E+02  0.7816164E-02  0.1186339E+00
        -11   -1    0    0    0    0  0.00000000000E+00  0.00000000000E+00  0.45593999997E+02  0.45594000000E+02  0.51100000000E-03 0.  1.
         11   -1    0    0    0    0 -0.00000000000E+00 -0.00000000000E+00 -0.45593999997E+02  0.45594000000E+02  0.51100000000E-03 0. -1.
    9900012    2    1    2    0    0  0.82811343210E-01 -0.91199791487E+00 -0.74474369876E+00  0.90007643659E+02  0.89999903755E+02 0.  0.
        -12    1    1    2    0    0 -0.82811343210E-01  0.91199791487E+00  0.74474369876E+00  0.11803563412E+01  0.00000000000E+00 0.  1.
         11    1    3    3    0    0  0.53590531630E+01  0.35302286718E+02 -0.95527568946E+01  0.36962495355E+02  0.51100000000E-03 0. -1.
        -11    1    3    3    0    0 -0.65296780406E+01  0.65009919361E+01 -0.78666051717E+00  0.92476173417E+01  0.51100000000E-03 0.  1.
        -12    1    3    3    0    0  0.12534362208E+01 -0.42715276569E+02  0.95946737130E+01  0.43797530962E+02  0.00000000000E+00 0.  1.
</event>
<event>
 7    1  0.3774317E-015  0.9000783E+02  0.7816164E-02  0.1186339E+00
        -11   -1    0    0    0    0  0.00000000000E+00  0.00000000000E+00  0.45593999997E+02  0.45594000000E+02  0.51100000000E-03 0. -1.
         11   -1    0    0    0    0 -0.00000000000E+00 -0.00000000000E+00 -0.45593999997E+02  0.45594000000E+02  0.51100000000E-03 0.  1.
    9900012    2    1    2    0    0 -0.78501976740E+00  0.88121807164E+00 -0.82297177524E-03  0.90007829672E+02  0.90000092224E+02 0.  0.
        -12    1    1    2    0    0  0.78501976740E+00 -0.88121807164E+00  0.82297177524E-03  0.11801703277E+01  0.00000000000E+00 0.  1.
         11    1    3    3    0    0 -0.23413809221E+02 -0.28520596247E+02  0.83076296267E+01  0.37823902269E+02  0.51100000000E-03 0. -1.
        -11    1    3    3    0    0 -0.52197184063E+00 -0.66197709437E+01 -0.65516959430E+01  0.93283729524E+01  0.51100000000E-03 0.  1.
        -12    1    3    3    0    0  0.23150761295E+02  0.36021585263E+02 -0.17567566555E+01  0.42855554451E+02  0.00000000000E+00 0.  1.
</event>
<event>
 7    1  0.3622165E-015  0.9000776E+02  0.7816164E-02  0.1186339E+00
        -11   -1    0    0    0    0  0.00000000000E+00  0.00000000000E+00  0.45593999997E+02  0.45594000000E+02  0.51100000000E-03 0. -1.
         11   -1    0    0    0    0 -0.00000000000E+00 -0.00000000000E+00 -0.45593999997E+02  0.45594000000E+02  0.51100000000E-03 0.  1.
    9900012    2    1    2    0    0  0.49217284428E+00 -0.62174518822E+00  0.87416507897E+00  0.90007760290E+02  0.90000021926E+02 0.  0.
        -12    1    1    2    0    0 -0.49217284428E+00  0.62174518822E+00 -0.87416507897E+00  0.11802397100E+01  0.00000000000E+00 0.  1.
         11    1    3    3    0    0  0.46202722728E+01 -0.32529304642E+01  0.84003469033E+01  0.10123946900E+02  0.51100000000E-03 0. -1.
        -11    1    3    3    0    0 -0.28514266233E+02  0.29476029670E+02  0.54357251048E+01  0.41369636348E+02  0.51100000000E-03 0.  1.
         12    1    3    3    0    0  0.24386166805E+02 -0.26844844394E+02 -0.12961906929E+02  0.38514177042E+02  0.00000000000E+00 0. -1.
</event>
<event>
 7    1  0.3622165E-015  0.9000767E+02  0.7816164E-02  0.1186339E+00
        -11   -1    0    0    0    0  0.00000000000E+00  0.00000000000E+00  0.45593999997E+02  0.45594000000E+02  0.51100000000E-03 0.  1.
         11   -1    0    0    0    0 -0.00000000000E+00 -0.00000000000E+00 -0.45593999997E+02  0.45594000000E+02  0.51100000000E-03 0. -1.
    9900012    2    1    2    0    0  0.12540344713E+00  0.10160446235E+01 -0.58745133436E+00  0.90007673023E+02  0.89999933507E+02 0.  0.
        -12    1    1    2    0    0 -0.12540344713E+00 -0.10160446235E+01  0.58745133436E+00  0.11803269766E+01  0.00000000000E+00 0.  1.
         11    1    3    3    0    0 -0.33299754449E+02  0.24412017457E+02 -0.55801821300E+01  0.41664837400E+02  0.51100000000E-03 0. -1.
        -11    1    3    3    0    0  0.14387953247E+02  0.30305819161E+01 -0.25199102972E+01  0.14918028474E+02  0.51100000000E-03 0.  1.
        -12    1    3    3    0    0  0.19037204649E+02 -0.26426554749E+02  0.75126410928E+01  0.33424807149E+02  0.00000000000E+00 0.  1.
</event>
<event>
 7    1  0.3622165E-015  0.9000772E+02  0.7816164E-02  0.1186339E+00
        -11   -1    0    0    0    0  0.00000000000E+00  0.00000000000E+00  0.45593999997E+02  0.45594000000E+02  0.51100000000E-03 0. -1.
         11   -1    0    0    0    0 -0.00000000000E+00 -0.00000000000E+00 -0.45593999997E+02  0.45594000000E+02  0.51100000000E-03 0.  1.
    9900012    2    1    2    0    0  0.23504393056E+00  0.11372221143E+01 -0.21102731711E+00  0.90007723628E+02  0.89999984780E+02 0.  0.
        -12    1    1    2    0    0 -0.23504393056E+00 -0.11372221143E+01  0.21102731711E+00  0.11802763723E+01  0.00000000000E+00 0.  1.
         11    1    3    3    0    0 -0.11358818523E+02  0.16926863825E+02  0.34059964445E+02  0.39694113612E+02  0.51100000000E-03 0. -1.
        -11    1    3    3    0    0  0.41104983179E+01  0.59109768238E+01  0.19249735543E+01  0.74526080589E+01  0.51100000000E-03 0.  1.
        -12    1    3    3    0    0  0.74833641357E+01 -0.21700618534E+02 -0.36195965316E+02  0.42861001957E+02  0.00000000000E+00 0.  1.
</event>
<event>
 7    1  0.3622165E-015  0.9000772E+02  0.7816164E-02  0.1186339E+00
        -11   -1    0    0    0    0  0.00000000000E+00  0.00000000000E+00  0.45593999997E+02  0.45594000000E+02  0.51100000000E-03 0. -1.
         11   -1    0    0    0    0 -0.00000000000E+00 -0.00000000000E+00 -0.45593999997E+02  0.45594000000E+02  0.51100000000E-03 0.  1.
    9900012    2    1    2    0    0 -0.15075945627E+00 -0.11513327570E+01  0.21156313509E+00  0.90007722706E+02  0.89999983846E+02 0.  0.
        -12    1    1    2    0    0  0.15075945627E+00  0.11513327570E+01 -0.21156313509E+00  0.11802772941E+01  0.00000000000E+00 0.  1.
         11    1    3    3    0    0 -0.24727593630E+02  0.18931169138E+02  0.22648613389E+02  0.38507177777E+02  0.51100000000E-03 0. -1.
        -11    1    3    3    0    0  0.37514671511E+01  0.90402331802E+01 -0.11689293992E+01  0.98572672653E+01  0.51100000000E-03 0.  1.
        -12    1    3    3    0    0  0.20825367023E+02 -0.29122735075E+02 -0.21268120854E+02  0.41643277664E+02  0.00000000000E+00 0.  1.
</event>
<event>
 7    1  0.3622165E-015  0.9000785E+02  0.7816164E-02  0.1186339E+00
        -11   -1    0    0    0    0  0.00000000000E+00  0.00000000000E+00  0.45593999997E+02  0.45594000000E+02  0.51100000000E-03 0.  1.
         11   -1    0    0    0    0 -0.00000000000E+00 -0.00000000000E+00 -0.45593999997E+02  0.45594000000E+02  0.51100000000E-03 0. -1.
    9900012    2    1    2    0    0 -0.45302023834E+00 -0.51050997047E+00  0.96276561433E+00  0.90007845182E+02  0.90000107938E+02 0.  0.
        -12    1    1    2    0    0  0.45302023834E+00  0.51050997047E+00 -0.96276561433E+00  0.11801548180E+01  0.00000000000E+00 0.  1.
         11    1    3    3    0    0  0.11832510251E+01 -0.70702479572E+01 -0.88306679129E+01  0.11374057553E+02  0.51100000000E-03 0. -1.
        -11    1    3    3    0    0  0.26460028841E+02  0.14105485777E+02 -0.20740890022E+02  0.36459324931E+02  0.51100000000E-03 0.  1.
         12    1    3    3    0    0 -0.28096300105E+02 -0.75457477902E+01  0.30534323549E+02  0.42174462698E+02  0.00000000000E+00 0. -1.
</event>
<event>
 7    1  0.3622165E-015  0.9000775E+02  0.7816164E-02  0.1186339E+00
        -11   -1    0    0    0    0  0.00000000000E+00  0.00000000000E+00  0.45593999997E+02  0.45594000000E+02  0.51100000000E-03 0.  1.
         11   -1    0    0    0    0 -0.00000000000E+00 -0.00000000000E+00 -0.45593999997E+02  0.45594000000E+02  0.51100000000E-03 0. -1.
    9900012    2    1    2    0    0  0.17866537268E+00 -0.82345101396E+00  0.82643731671E+00  0.90007749380E+02  0.90000010872E+02 0.  0.
        -12    1    1    2    0    0 -0.17866537268E+00  0.82345101396E+00 -0.82643731671E+00  0.11802506201E+01  0.00000000000E+00 0.  1.
         11    1    3    3    0    0  0.25891807617E+01 -0.15648195040E+02 -0.33983496308E+02  0.37502638395E+02  0.51100000000E-03 0. -1.
        -11    1    3    3    0    0  0.48242799138E+01 -0.85886149209E+01 -0.10165559757E+00  0.98513104239E+01  0.51100000000E-03 0.  1.
        -12    1    3    3    0    0 -0.72347953028E+01  0.23413358947E+02  0.34911589222E+02  0.42653800561E+02  0.00000000000E+00 0.  1.
</event>
<event>
 7    1  0.3774064E-015  0.9000774E+02  0.7816164E-02  0.1186339E+00
        -11   -1    0    0    0    0  0.00000000000E+00  0.00000000000E+00  0.45593999997E+02  0.45594000000E+02  0.51100000000E-03 0. -1.
         11   -1    0    0    0    0 -0.00000000000E+00 -0.00000000000E+00 -0.45593999997E+02  0.45594000000E+02  0.51100000000E-03 0.  1.
    9900012    2    1    2    0    0 -0.82565192275E+00  0.13451613816E+00  0.83259639531E+00  0.90007740517E+02  0.90000001892E+02 0.  0.
        -12    1    1    2    0    0  0.82565192275E+00 -0.13451613816E+00 -0.83259639531E+00  0.11802594827E+01  0.00000000000E+00 0.  1.
         11    1    3    3    0    0  0.90616483315E+01 -0.80864698092E+00  0.27574138954E+01  0.95063511441E+01  0.51100000000E-03 0. -1.
        -11    1    3    3    0    0 -0.16923142996E+02  0.37308308531E+02 -0.10895122787E+02  0.42391111746E+02  0.51100000000E-03 0.  1.
         12    1    3    3    0    0  0.70358427417E+01 -0.36365145411E+02  0.89703052866E+01  0.38110277627E+02  0.00000000000E+00 0. -1.
</event>
<event>
 7    1  0.3622165E-015  0.9000767E+02  0.7816164E-02  0.1186339E+00
        -11   -1    0    0    0    0  0.00000000000E+00  0.00000000000E+00  0.45593999997E+02  0.45594000000E+02  0.51100000000E-03 0.  1.
         11   -1    0    0    0    0 -0.00000000000E+00 -0.00000000000E+00 -0.45593999997E+02  0.45594000000E+02  0.51100000000E-03 0. -1.
    9900012    2    1    2    0    0 -0.21380233313E+00  0.11453443471E+01  0.18880281142E+00  0.90007673091E+02  0.89999933575E+02 0.  0.
        -12    1    1    2    0    0  0.21380233313E+00 -0.11453443471E+01 -0.18880281142E+00  0.11803269093E+01  0.00000000000E+00 0.  1.
         11    1    3    3    0    0 -0.17496160766E+02  0.38032482624E+02 -0.45430457650E+01  0.42109673962E+02  0.51100000000E-03 0. -1.
        -11    1    3    3    0    0  0.26339998043E+01  0.16712188274E+01 -0.46480899193E+01  0.55978270336E+01  0.51100000000E-03 0.  1.
        -12    1    3    3    0    0  0.14648358629E+02 -0.38558357104E+02  0.93799384957E+01  0.42300172095E+02  0.00000000000E+00 0.  1.
</event>
<event>
 7    1  0.3622165E-015  0.9000772E+02  0.7816164E-02  0.1186339E+00
        -11   -1    0    0    0    0  0.00000000000E+00  0.00000000000E+00  0.45593999997E+02  0.45594000000E+02  0.51100000000E-03 0.  1.
         11   -1    0    0    0    0 -0.00000000000E+00 -0.00000000000E+00 -0.45593999997E+02  0.45594000000E+02  0.51100000000E-03 0. -1.
    9900012    2    1    2    0    0  0.19404477263E+00  0.11529768200E+01  0.16139134167E+00  0.90007722030E+02  0.89999983161E+02 0.  0.
        -12    1    1    2    0    0 -0.19404477263E+00 -0.11529768200E+01 -0.16139134167E+00  0.11802779700E+01  0.00000000000E+00 0.  1.
         11    1    3    3    0    0 -0.62160807607E+01 -0.63118421023E+01 -0.88264624523E+01  0.12505416844E+02  0.51100000000E-03 0. -1.
        -11    1    3    3    0    0 -0.27903543167E+02  0.70053096988E+00  0.26412409857E+02  0.38428034814E+02  0.51100000000E-03 0.  1.
         12    1    3    3    0    0  0.34313668700E+02  0.67642879524E+01 -0.17424556063E+02  0.39074270373E+02  0.00000000000E+00 0. -1.
</event>
<event>
 7    1  0.3622165E-015  0.9000786E+02  0.7816164E-02  0.1186339E+00
        -11   -1    0    0    0    0  0.00000000000E+00  0.00000000000E+00  0.45593999997E+02  0.45594000000E+02  0.51100000000E-03 0. -1.
         11   -1    0    0    0    0 -0.00000000000E+00 -0.00000000000E+00 -0.45593999997E+02  0.45594000000E+02  0.51100000000E-03 0.  1.
    9900012    2    1    2    0    0 -0.13692848103E+00  0.96911817447E+00  0.65938160117E+00  0.90007862914E+02  0.90000125905E+02 0.  0.
        -12    1    1    2    0    0  0.13692848103E+00 -0.96911817447E+00 -0.65938160117E+00  0.11801370857E+01  0.00000000000E+00 0.  1.
         11    1    3    3    0    0  0.24649052839E+01  0.98163123924E+01  0.16369200754E+01  0.10252573074E+02  0.51100000000E-03 0. -1.
        -11    1    3    3    0    0  0.27415663068E+01  0.34010744246E+02 -0.10157191592E+02  0.35600778802E+02  0.51100000000E-03 0.  1.
         12    1    3    3    0    0 -0.53434000718E+01 -0.42857938464E+02  0.91796531180E+01  0.44154511039E+02  0.00000000000E+00 0. -1.
</event>
<event>
 7    1  0.3622165E-015  0.9000765E+02  0.7816164E-02  0.1186339E+00
        -11   -1    0    0    0    0  0.00000000000E+00  0.00000000000E+00  0.45593999997E+02  0.45594000000E+02  0.51100000000E-03 0. -1.
         11   -1    0    0    0    0 -0.00000000000E+00 -0.00000000000E+00 -0.45593999997E+02  0.45594000000E+02  0.51100000000E-03 0.  1.
    9900012    2    1    2    0    0 -0.13387987329E+00 -0.11539949767E+01  0.20882415137E+00  0.90007645921E+02  0.89999906047E+02 0.  0.
        -12    1    1    2    0    0  0.13387987329E+00  0.11539949767E+01 -0.20882415137E+00  0.11803540795E+01  0.00000000000E+00 0.  1.
         11    1    3    3    0    0 -0.17136250084E+01  0.22379316446E+01 -0.77802758715E+01  0.82751158067E+01  0.51100000000E-03 0. -1.
        -11    1    3    3    0    0  0.26738585871E+02 -0.26932290513E+02 -0.14456789781E+02  0.40611562611E+02  0.51100000000E-03 0.  1.
         12    1    3    3    0    0 -0.25158840736E+02  0.23540363891E+02  0.22445889803E+02  0.41120967503E+02  0.00000000000E+00 0. -1.
</event>
<event>
 7    1  0.3622165E-015  0.9000772E+02  0.7816164E-02  0.1186339E+00
        -11   -1    0    0    0    0  0.00000000000E+00  0.00000000000E+00  0.45593999997E+02  0.45594000000E+02  0.51100000000E-03 0.  1.
         11   -1    0    0    0    0 -0.00000000000E+00 -0.00000000000E+00 -0.45593999997E+02  0.45594000000E+02  0.51100000000E-03 0. -1.
    9900012    2    1    2    0    0  0.36966726431E+00  0.82156613969E+00  0.76251734292E+00  0.90007721428E+02  0.89999982551E+02 0.  0.
        -12    1    1    2    0    0 -0.36966726431E+00 -0.82156613969E+00 -0.76251734292E+00  0.11802785715E+01  0.00000000000E+00 0.  1.
         11    1    3    3    0    0 -0.13775355889E+02 -0.23126066758E+00 -0.38353924443E+02  0.40753373257E+02  0.51100000000E-03 0. -1.
        -11    1    3    3    0    0 -0.77076697268E+01 -0.14336134744E+01  0.85858469924E+01  0.11626701555E+02  0.51100000000E-03 0.  1.
        -12    1    3    3    0    0  0.21852692880E+02  0.24864402817E+01  0.30530594794E+02  0.37627646616E+02  0.00000000000E+00 0.  1.
</event>
<event>
 7    1  0.3622165E-015  0.9000775E+02  0.7816164E-02  0.1186339E+00
        -11   -1    0    0    0    0  0.00000000000E+00  0.00000000000E+00  0.45593999997E+02  0.45594000000E+02  0.51100000000E-03 0.  1.
         11   -1    0    0    0    0 -0.00000000000E+00 -0.00000000000E+00 -0.45593999997E+02  0.45594000000E+02  0.51100000000E-03 0. -1.
    9900012    2    1    2    0    0  0.43682784664E-01 -0.57734089708E+00 -0.10284689799E+01  0.90007754627E+02  0.90000016188E+02 0.  0.
        -12    1    1    2    0    0 -0.43682784664E-01  0.57734089708E+00  0.10284689799E+01  0.11802453726E+01  0.00000000000E+00 0.  1.
         11    1    3    3    0    0  0.41643602090E+01  0.56203639057E+01 -0.68911627548E+01  0.98192927830E+01  0.51100000000E-03 0. -1.
        -11    1    3    3    0    0  0.15255451382E+02  0.12607079672E+02  0.35159557560E+02  0.40346768679E+02  0.51100000000E-03 0.  1.
         12    1    3    3    0    0 -0.19376128806E+02 -0.18804784474E+02 -0.29296863785E+02  0.39841693166E+02  0.00000000000E+00 0. -1.
</event>
<event>
 7    1  0.3622165E-015  0.9000776E+02  0.7816164E-02  0.1186339E+00
        -11   -1    0    0    0    0  0.00000000000E+00  0.00000000000E+00  0.45593999997E+02  0.45594000000E+02  0.51100000000E-03 0. -1.
         11   -1    0    0    0    0 -0.00000000000E+00 -0.00000000000E+00 -0.45593999997E+02  0.45594000000E+02  0.51100000000E-03 0.  1.
    9900012    2    1    2    0    0 -0.97795244753E-01  0.86508078448E+00  0.79689462705E+00  0.90007758618E+02  0.90000020232E+02 0.  0.
        -12    1    1    2    0    0  0.97795244753E-01 -0.86508078448E+00 -0.79689462705E+00  0.11802413822E+01  0.00000000000E+00 0.  1.
         11    1    3    3    0    0 -0.98236952837E+01 -0.19344426007E+01  0.25169687227E+01  0.10323865023E+02  0.51100000000E-03 0. -1.
        -11    1    3    3    0    0 -0.33056552642E+02 -0.86959085542E+01 -0.75410518653E+01  0.35003170737E+02  0.51100000000E-03 0.  1.
         12    1    3    3    0    0  0.42782452681E+02  0.11495431939E+02  0.58209777696E+01  0.44680722858E+02  0.00000000000E+00 0. -1.
</event>
<event>
 7    1  0.3622165E-015  0.9000775E+02  0.7816164E-02  0.1186339E+00
        -11   -1    0    0    0    0  0.00000000000E+00  0.00000000000E+00  0.45593999997E+02  0.45594000000E+02  0.51100000000E-03 0.  1.
         11   -1    0    0    0    0 -0.00000000000E+00 -0.00000000000E+00 -0.45593999997E+02  0.45594000000E+02  0.51100000000E-03 0. -1.
    9900012    2    1    2    0    0 -0.72455137562E+00  0.12281392727E+00 -0.92354459193E+00  0.90007748938E+02  0.90000010424E+02 0.  0.
        -12    1    1    2    0    0  0.72455137562E+00 -0.12281392727E+00  0.92354459193E+00  0.11802510622E+01  0.00000000000E+00 0.  1.
         11    1    3    3    0    0 -0.85331448544E+01  0.20877221304E+01  0.74570125608E+00  0.88164173804E+01  0.51100000000E-03 0. -1.
        -11    1    3    3    0    0 -0.78005498575E+01  0.37647851650E+02  0.16672783043E+01  0.38483621570E+02  0.51100000000E-03 0.  1.
         12    1    3    3    0    0  0.15609143336E+02 -0.39612759854E+02 -0.33365241523E+01  0.42707709987E+02  0.00000000000E+00 0. -1.
</event>
<event>
 7    1  0.3622165E-015  0.9000788E+02  0.7816164E-02  0.1186339E+00
        -11   -1    0    0    0    0  0.00000000000E+00  0.00000000000E+00  0.45593999997E+02  0.45594000000E+02  0.51100000000E-03 0.  1.
         11   -1    0    0    0    0 -0.00000000000E+00 -0.00000000000E+00 -0.45593999997E+02  0.45594000000E+02  0.51100000000E-03 0. -1.
    9900012    2    1    2    0    0 -0.37874310682E-01  0.62781534751E+00 -0.99854351405E+00  0.90007883174E+02  0.90000146432E+02 0.  0.
        -12    1    1    2    0    0  0.37874310682E-01 -0.62781534751E+00  0.99854351405E+00  0.11801168262E+01  0.00000000000E+00 0.  1.
         11    1    3    3    0    0 -0.11830780432E+02 -0.30026563194E+02 -0.14677470092E+02  0.35454054654E+02  0.51100000000E-03 0. -1.
        -11    1    3    3    0    0  0.33554377096E+00  0.13730482365E+02 -0.14350981402E+02  0.19864274542E+02  0.51100000000E-03 0.  1.
        -12    1    3    3    0    0  0.11457362351E+02  0.16923896177E+02  0.28029907980E+02  0.34689553978E+02  0.00000000000E+00 0.  1.
</event>
<event>
 7    1  0.3622165E-015  0.9000775E+02  0.7816164E-02  0.1186339E+00
        -11   -1    0    0    0    0  0.00000000000E+00  0.00000000000E+00  0.45593999997E+02  0.45594000000E+02  0.51100000000E-03 0.  1.
         11   -1    0    0    0    0 -0.00000000000E+00 -0.00000000000E+00 -0.45593999997E+02  0.45594000000E+02  0.51100000000E-03 0. -1.
    9900012    2    1    2    0    0  0.12973392589E-01 -0.96017662489E+00  0.68621698754E+00  0.90007745276E+02  0.90000006713E+02 0.  0.
        -12    1    1    2    0    0 -0.12973392589E-01  0.96017662489E+00 -0.68621698754E+00  0.11802547242E+01  0.00000000000E+00 0.  1.
         11    1    3    3    0    0  0.10858909079E+01 -0.38763357564E+02  0.45582939897E+01  0.39045551514E+02  0.51100000000E-03 0. -1.
        -11    1    3    3    0    0  0.78056373337E+01 -0.21876660940E+01  0.43213016951E+01  0.91862672357E+01  0.51100000000E-03 0.  1.
        -12    1    3    3    0    0 -0.88785548490E+01  0.39990847033E+02 -0.81933786973E+01  0.41775926526E+02  0.00000000000E+00 0.  1.
</event>
<event>
 7    1  0.3622165E-015  0.9000765E+02  0.7816164E-02  0.1186339E+00
        -11   -1    0    0    0    0  0.00000000000E+00  0.00000000000E+00  0.45593999997E+02  0.45594000000E+02  0.51100000000E-03 0. -1.
         11   -1    0    0    0    0 -0.00000000000E+00 -0.00000000000E+00 -0.45593999997E+02  0.45594000000E+02  0.51100000000E-03 0.  1.
    9900012    2    1    2    0    0  0.87262120070E+00 -0.76725099133E+00 -0.20758919126E+00  0.90007646190E+02  0.89999906320E+02 0.  0.
        -12    1    1    2    0    0 -0.87262120070E+00  0.76725099133E+00  0.20758919126E+00  0.11803538096E+01  0.00000000000E+00 0.  1.
         11    1    3    3    0    0  0.35370366829E+02  0.18799342965E+01 -0.18527703167E+01  0.35468715239E+02  0.51100000000E-03 0. -1.
        -11    1    3    3    0    0  0.95301593552E+01  0.28518172310E+01 -0.14883824670E+01  0.10058433351E+02  0.51100000000E-03 0.  1.
        -12    1    3    3    0    0 -0.44027904984E+02 -0.54990025188E+01  0.31335635925E+01  0.44480497600E+02  0.00000000000E+00 0.  1.
</event>
<event>
 7    1  0.3622165E-015  0.9000771E+02  0.7816164E-02  0.1186339E+00
        -11   -1    0    0    0    0  0.00000000000E+00  0.00000000000E+00  0.45593999997E+02  0.45594000000E+02  0.51100000000E-03 0.  1.
         11   -1    0    0    0    0 -0.00000000000E+00 -0.00000000000E+00 -0.45593999997E+02  0.45594000000E+02  0.51100000000E-03 0. -1.
    9900012    2    1    2    0    0  0.11768756994E+01  0.81952272509E-01  0.36569360914E-01  0.90007707704E+02  0.89999968645E+02 0.  0.
        -12    1    1    2    0    0 -0.11768756994E+01 -0.81952272509E-01 -0.36569360914E-01  0.11802922964E+01  0.00000000000E+00 0.  1.
         11    1    3    3    0    0  0.36037632643E+02  0.52636880588E+01 -0.71566028162E+00  0.36427044190E+02  0.51100000000E-03 0. -1.
        -11    1    3    3    0    0  0.79758544810E+01  0.51710483954E+01  0.15049647335E+00  0.95066632243E+01  0.51100000000E-03 0.  1.
        -12    1    3    3    0    0 -0.42836611425E+02 -0.10352784182E+02  0.60173316918E+00  0.44074000289E+02  0.00000000000E+00 0.  1.
</event>
<event>
 7    1  0.3998055E-015  0.9000776E+02  0.7816164E-02  0.1186339E+00
        -11   -1    0    0    0    0  0.00000000000E+00  0.00000000000E+00  0.45593999997E+02  0.45594000000E+02  0.51100000000E-03 0. -1.
         11   -1    0    0    0    0 -0.00000000000E+00 -0.00000000000E+00 -0.45593999997E+02  0.45594000000E+02  0.51100000000E-03 0.  1.
    9900012    2    1    2    0    0 -0.44801594995E+00  0.36918713629E+00  0.10275883795E+01  0.90007764722E+02  0.90000026417E+02 0.  0.
        -12    1    1    2    0    0  0.44801594995E+00 -0.36918713629E+00 -0.10275883795E+01  0.11802352777E+01  0.00000000000E+00 0.  1.
         11    1    3    3    0    0  0.26318407412E+02 -0.15557158697E+02  0.19234621706E+02  0.36120000385E+02  0.51100000000E-03 0. -1.
        -11    1    3    3    0    0  0.50813758330E+01 -0.72425471124E+01  0.27635477024E+01  0.92688761560E+01  0.51100000000E-03 0.  1.
        -12    1    3    3    0    0 -0.31847799195E+02  0.23168892945E+02 -0.20970581029E+02  0.44618888181E+02  0.00000000000E+00 0.  1.
</event>
<event>
 7    1  0.3622165E-015  0.9000723E+02  0.7816164E-02  0.1186340E+00
        -11   -1    0    0    0    0  0.00000000000E+00  0.00000000000E+00  0.45593999997E+02  0.45594000000E+02  0.51100000000E-03 0. -1.
         11   -1    0    0    0    0 -0.00000000000E+00 -0.00000000000E+00 -0.45593999997E+02  0.45594000000E+02  0.51100000000E-03 0.  1.
    9900012    2    1    2    0    0  0.82171708065E+00  0.61212311584E+00  0.58677357644E+00  0.90007230378E+02  0.89999485018E+02 0.  0.
        -12    1    1    2    0    0 -0.82171708065E+00 -0.61212311584E+00 -0.58677357644E+00  0.11807696217E+01  0.00000000000E+00 0.  1.
         11    1    3    3    0    0  0.29085167849E+02  0.28268646664E+02 -0.10635426566E+02  0.41930605427E+02  0.51100000000E-03 0. -1.
        -11    1    3    3    0    0  0.45879832681E+01 -0.27819888491E+01  0.26660131219E+01  0.59913837010E+01  0.51100000000E-03 0.  1.
        -12    1    3    3    0    0 -0.32851434036E+02 -0.24874534699E+02  0.85561870207E+01  0.42085241250E+02  0.00000000000E+00 0.  1.
</event>
<event>
 7    1  0.3622165E-015  0.9000775E+02  0.7816164E-02  0.1186339E+00
        -11   -1    0    0    0    0  0.00000000000E+00  0.00000000000E+00  0.45593999997E+02  0.45594000000E+02  0.51100000000E-03 0.  1.
         11   -1    0    0    0    0 -0.00000000000E+00 -0.00000000000E+00 -0.45593999997E+02  0.45594000000E+02  0.51100000000E-03 0. -1.
    9900012    2    1    2    0    0  0.13524376922E+00 -0.59665865110E+00 -0.10093092490E+01  0.90007746814E+02  0.90000008272E+02 0.  0.
        -12    1    1    2    0    0 -0.13524376922E+00  0.59665865110E+00  0.10093092490E+01  0.11802531860E+01  0.00000000000E+00 0.  1.
         11    1    3    3    0    0 -0.83337287924E+01  0.32391516298E+02 -0.21773588563E+01  0.33517193432E+02  0.51100000000E-03 0. -1.
        -11    1    3    3    0    0  0.12747299639E+01  0.11200149654E+02  0.30601707915E+01  0.11680450946E+02  0.51100000000E-03 0.  1.
        -12    1    3    3    0    0  0.71942425978E+01 -0.44188324604E+02 -0.18921211842E+01  0.44810102437E+02  0.00000000000E+00 0.  1.
</event>
<event>
 7    1  0.4486990E-015  0.9000780E+02  0.7816164E-02  0.1186339E+00
        -11   -1    0    0    0    0  0.00000000000E+00  0.00000000000E+00  0.45593999997E+02  0.45594000000E+02  0.51100000000E-03 0. -1.
         11   -1    0    0    0    0 -0.00000000000E+00 -0.00000000000E+00 -0.45593999997E+02  0.45594000000E+02  0.51100000000E-03 0.  1.
    9900012    2    1    2    0    0 -0.18362169278E+00 -0.34063383842E+00  0.11149536606E+01  0.90007800863E+02  0.90000063034E+02 0.  0.
        -12    1    1    2    0    0  0.18362169278E+00  0.34063383842E+00 -0.11149536606E+01  0.11801991371E+01  0.00000000000E+00 0.  1.
         11    1    3    3    0    0  0.94641203190E+01  0.18432886275E+01 -0.33483813564E+01  0.10206808725E+02  0.51100000000E-03 0. -1.
        -11    1    3    3    0    0  0.12861102793E+02 -0.47750268187E+01 -0.33157840158E+02  0.35883857239E+02  0.51100000000E-03 0.  1.
         12    1    3    3    0    0 -0.22508844805E+02  0.25911043528E+01  0.37621175175E+02  0.43917134899E+02  0.00000000000E+00 0. -1.
</event>
<event>
 7    1  0.3622165E-015  0.9000782E+02  0.7816164E-02  0.1186339E+00
        -11   -1    0    0    0    0  0.00000000000E+00  0.00000000000E+00  0.45593999997E+02  0.45594000000E+02  0.51100000000E-03 0. -1.
         11   -1    0    0    0    0 -0.00000000000E+00 -0.00000000000E+00 -0.45593999997E+02  0.45594000000E+02  0.51100000000E-03 0.  1.
    9900012    2    1    2    0    0  0.17328439379E+00 -0.61321997071E+00  0.99336315398E+00  0.90007815028E+02  0.90000077386E+02 0.  0.
        -12    1    1    2    0    0 -0.17328439379E+00  0.61321997071E+00 -0.99336315398E+00  0.11801849725E+01  0.00000000000E+00 0.  1.
         11    1    3    3    0    0  0.23758793847E+01 -0.41060376381E+00 -0.81538513652E+01  0.85028636734E+01  0.51100000000E-03 0. -1.
        -11    1    3    3    0    0  0.20417611612E+02  0.23109681125E+02 -0.20902828187E+02  0.37254052828E+02  0.51100000000E-03 0.  1.
         12    1    3    3    0    0 -0.22620206603E+02 -0.23312297332E+02  0.30050042706E+02  0.44250898526E+02  0.00000000000E+00 0. -1.
</event>
<event>
 7    1  0.3622165E-015  0.9000672E+02  0.7816164E-02  0.1186341E+00
        -11   -1    0    0    0    0  0.00000000000E+00  0.00000000000E+00  0.45593999997E+02  0.45594000000E+02  0.51100000000E-03 0.  1.
         11   -1    0    0    0    0 -0.00000000000E+00 -0.00000000000E+00 -0.45593999997E+02  0.45594000000E+02  0.51100000000E-03 0. -1.
    9900012    2    1    2    0    0  0.21844953725E+00  0.11534169648E+01 -0.13166435407E+00  0.90006718324E+02  0.89998966200E+02 0.  0.
        -12    1    1    2    0    0 -0.21844953725E+00 -0.11534169648E+01  0.13166435407E+00  0.11812816756E+01  0.00000000000E+00 0.  1.
         11    1    3    3    0    0  0.89676465548E+01  0.54504687962E+01  0.33645492510E-01  0.10494161573E+02  0.51100000000E-03 0. -1.
        -11    1    3    3    0    0 -0.51951164512E-01 -0.11283650303E+02  0.38057475348E+02  0.39695023532E+02  0.51100000000E-03 0.  1.
         12    1    3    3    0    0 -0.86972458531E+01  0.69865984715E+01 -0.38222785195E+02  0.39817533219E+02  0.00000000000E+00 0. -1.
</event>
<event>
 7    1  0.3622165E-015  0.9000779E+02  0.7816164E-02  0.1186339E+00
        -11   -1    0    0    0    0  0.00000000000E+00  0.00000000000E+00  0.45593999997E+02  0.45594000000E+02  0.51100000000E-03 0.  1.
         11   -1    0    0    0    0 -0.00000000000E+00 -0.00000000000E+00 -0.45593999997E+02  0.45594000000E+02  0.51100000000E-03 0. -1.
    9900012    2    1    2    0    0 -0.85521761044E-01  0.93435520779E+00 -0.71592812124E+00  0.90007793789E+02  0.90000055867E+02 0.  0.
        -12    1    1    2    0    0  0.85521761044E-01 -0.93435520779E+00  0.71592812124E+00  0.11802062111E+01  0.00000000000E+00 0.  1.
         11    1    3    3    0    0  0.48164784592E+01  0.18210909525E+01  0.61486769806E+01  0.80200415135E+01  0.51100000000E-03 0. -1.
        -11    1    3    3    0    0  0.19087527338E+02  0.79829745013E+01  0.30410670887E+02  0.36781387764E+02  0.51100000000E-03 0.  1.
         12    1    3    3    0    0 -0.23989527558E+02 -0.88697102460E+01 -0.37275275989E+02  0.45206364512E+02  0.00000000000E+00 0. -1.
</event>
<event>
 7    1  0.3622165E-015  0.9000774E+02  0.7816164E-02  0.1186339E+00
        -11   -1    0    0    0    0  0.00000000000E+00  0.00000000000E+00  0.45593999997E+02  0.45594000000E+02  0.51100000000E-03 0.  1.
         11   -1    0    0    0    0 -0.00000000000E+00 -0.00000000000E+00 -0.45593999997E+02  0.45594000000E+02  0.51100000000E-03 0. -1.
    9900012    2    1    2    0    0  0.89484773815E+00 -0.32237136877E+00 -0.69880521145E+00  0.90007743885E+02  0.90000005304E+02 0.  0.
        -12    1    1    2    0    0 -0.89484773815E+00  0.32237136877E+00  0.69880521145E+00  0.11802561152E+01  0.00000000000E+00 0.  1.
         11    1    3    3    0    0  0.75160700170E+01  0.84013348985E+00 -0.52178043688E+01  0.91881780279E+01  0.51100000000E-03 0. -1.
        -11    1    3    3    0    0  0.22533908706E+02 -0.31348986042E+02 -0.21492752520E-01  0.38607465983E+02  0.51100000000E-03 0.  1.
         12    1    3    3    0    0 -0.29155130985E+02  0.30186481183E+02  0.45404919099E+01  0.42212099874E+02  0.00000000000E+00 0. -1.
</event>
<event>
 7    1  0.3622165E-015  0.9000821E+02  0.7816164E-02  0.1186338E+00
        -11   -1    0    0    0    0  0.00000000000E+00  0.00000000000E+00  0.45593999997E+02  0.45594000000E+02  0.51100000000E-03 0. -1.
         11   -1    0    0    0    0 -0.00000000000E+00 -0.00000000000E+00 -0.45593999997E+02  0.45594000000E+02  0.51100000000E-03 0.  1.
    9900012    2    1    2    0    0 -0.89969690158E+00  0.66413088011E+00  0.37599667664E+00  0.90008212798E+02  0.90000480406E+02 0.  0.
        -12    1    1    2    0    0  0.89969690158E+00 -0.66413088011E+00 -0.37599667664E+00  0.11797872018E+01  0.00000000000E+00 0.  1.
         11    1    3    3    0    0 -0.25891601039E+02  0.16271067021E+02  0.25204453406E+02  0.39628109949E+02  0.51100000000E-03 0. -1.
        -11    1    3    3    0    0 -0.66565275633E+01 -0.77612890283E+00 -0.10817797789E+02  0.12725426694E+02  0.51100000000E-03 0.  1.
        -12    1    3    3    0    0  0.31648431700E+02 -0.14830807238E+02 -0.14010658941E+02  0.37654676155E+02  0.00000000000E+00 0.  1.
</event>
<event>
 7    1  0.3622165E-015  0.9000769E+02  0.7816164E-02  0.1186339E+00
        -11   -1    0    0    0    0  0.00000000000E+00  0.00000000000E+00  0.45593999997E+02  0.45594000000E+02  0.51100000000E-03 0.  1.
         11   -1    0    0    0    0 -0.00000000000E+00 -0.00000000000E+00 -0.45593999997E+02  0.45594000000E+02  0.51100000000E-03 0. -1.
    9900012    2    1    2    0    0 -0.10386952296E+01 -0.18185137499E+00  0.53026383576E+00  0.90007687568E+02  0.89999948243E+02 0.  0.
        -12    1    1    2    0    0  0.10386952296E+01  0.18185137499E+00 -0.53026383576E+00  0.11803124324E+01  0.00000000000E+00 0.  1.
         11    1    3    3    0    0 -0.13377275059E+02  0.26677667320E+02  0.25722318623E+02  0.39399074827E+02  0.51100000000E-03 0. -1.
        -11    1    3    3    0    0 -0.10416574453E+02 -0.14792902671E+02 -0.11514200883E+02  0.21445554668E+02  0.51100000000E-03 0.  1.
        -12    1    3    3    0    0  0.22755154283E+02 -0.12066616023E+02 -0.13677853905E+02  0.29163058072E+02  0.00000000000E+00 0.  1.
</event>
<event>
 7    1  0.3622165E-015  0.9000760E+02  0.7816164E-02  0.1186339E+00
        -11   -1    0    0    0    0  0.00000000000E+00  0.00000000000E+00  0.45593999997E+02  0.45594000000E+02  0.51100000000E-03 0.  1.
         11   -1    0    0    0    0 -0.00000000000E+00 -0.00000000000E+00 -0.45593999997E+02  0.45594000000E+02  0.51100000000E-03 0. -1.
    9900012    2    1    2    0    0 -0.31185023099E+00 -0.11031699310E+01  0.28126016253E+00  0.90007601024E+02  0.89999860558E+02 0.  0.
        -12    1    1    2    0    0  0.31185023099E+00  0.11031699310E+01 -0.28126016253E+00  0.11803989759E+01  0.00000000000E+00 0.  1.
         11    1    3    3    0    0 -0.21535067166E+02  0.11412029664E+02 -0.35838853652E+02  0.43340708004E+02  0.51100000000E-03 0. -1.
        -11    1    3    3    0    0  0.50867108577E+01  0.37174776848E+01  0.50400783461E+01  0.80682499764E+01  0.51100000000E-03 0.  1.
        -12    1    3    3    0    0  0.16136506077E+02 -0.16232677280E+02  0.31080035469E+02  0.38598643044E+02  0.00000000000E+00 0.  1.
</event>
<event>
 7    1  0.3622165E-015  0.9000775E+02  0.7816164E-02  0.1186339E+00
        -11   -1    0    0    0    0  0.00000000000E+00  0.00000000000E+00  0.45593999997E+02  0.45594000000E+02  0.51100000000E-03 0.  1.
         11   -1    0    0    0    0 -0.00000000000E+00 -0.00000000000E+00 -0.45593999997E+02  0.45594000000E+02  0.51100000000E-03 0. -1.
    9900012    2    1    2    0    0 -0.67463729878E+00 -0.86463608219E+00  0.43619828365E+00  0.90007745798E+02  0.90000007242E+02 0.  0.
        -12    1    1    2    0    0  0.67463729878E+00  0.86463608219E+00 -0.43619828365E+00  0.11802542024E+01  0.00000000000E+00 0.  1.
         11    1    3    3    0    0 -0.42745882505E+01 -0.81385439523E+01 -0.48622863459E+00  0.92056733007E+01  0.51100000000E-03 0. -1.
        -11    1    3    3    0    0  0.18701114684E+02 -0.27862302690E+02  0.18933230027E+02  0.38529297958E+02  0.51100000000E-03 0.  1.
         12    1    3    3    0    0 -0.15101163733E+02  0.35136210560E+02 -0.18010803109E+02  0.42272774539E+02  0.00000000000E+00 0. -1.
</event>
<event>
 7    1  0.3622165E-015  0.9000825E+02  0.7816164E-02  0.1186338E+00
        -11   -1    0    0    0    0  0.00000000000E+00  0.00000000000E+00  0.45593999997E+02  0.45594000000E+02  0.51100000000E-03 0.  1.
         11   -1    0    0    0    0 -0.00000000000E+00 -0.00000000000E+00 -0.45593999997E+02  0.45594000000E+02  0.51100000000E-03 0. -1.
    9900012    2    1    2    0    0  0.84474700249E+00 -0.78237277566E+00 -0.25708923469E+00  0.90008254463E+02  0.90000522620E+02 0.  0.
        -12    1    1    2    0    0 -0.84474700249E+00  0.78237277566E+00  0.25708923469E+00  0.11797455373E+01  0.00000000000E+00 0.  1.
         11    1    3    3    0    0 -0.39665114057E+01 -0.68735540361E+01  0.58925144036E+01  0.98843656385E+01  0.51100000000E-03 0. -1.
        -11    1    3    3    0    0 -0.22370852367E+02 -0.27143354381E+02  0.55840073214E+01  0.35614573713E+02  0.51100000000E-03 0.  1.
         12    1    3    3    0    0  0.27182110776E+02  0.33234535642E+02 -0.11733610960E+02  0.44509315111E+02  0.00000000000E+00 0. -1.
</event>
<event>
 7    1  0.3622165E-015  0.9000780E+02  0.7816164E-02  0.1186339E+00
        -11   -1    0    0    0    0  0.00000000000E+00  0.00000000000E+00  0.45593999997E+02  0.45594000000E+02  0.51100000000E-03 0.  1.
         11   -1    0    0    0    0 -0.00000000000E+00 -0.00000000000E+00 -0.45593999997E+02  0.45594000000E+02  0.51100000000E-03 0. -1.
    9900012    2    1    2    0    0 -0.44476409177E+00 -0.66760291343E+00 -0.86565629720E+00  0.90007801045E+02  0.90000063219E+02 0.  0.
        -12    1    1    2    0    0  0.44476409177E+00  0.66760291343E+00  0.86565629720E+00  0.11801989545E+01  0.00000000000E+00 0.  1.
         11    1    3    3    0    0  0.30461095508E+02 -0.13461530753E+02  0.37808229969E+01  0.33516947542E+02  0.51100000000E-03 0. -1.
        -11    1    3    3    0    0 -0.76545703805E+01 -0.16918208185E+02 -0.13238676094E+01  0.18616413231E+02  0.51100000000E-03 0.  1.
        -12    1    3    3    0    0 -0.23251289220E+02  0.29712136024E+02 -0.33226116847E+01  0.37874440272E+02  0.00000000000E+00 0.  1.
</event>
<event>
 7    1  0.5318665E-015  0.9000782E+02  0.7816164E-02  0.1186339E+00
        -11   -1    0    0    0    0  0.00000000000E+00  0.00000000000E+00  0.45593999997E+02  0.45594000000E+02  0.51100000000E-03 0.  1.
         11   -1    0    0    0    0 -0.00000000000E+00 -0.00000000000E+00 -0.45593999997E+02  0.45594000000E+02  0.51100000000E-03 0. -1.
    9900012    2    1    2    0    0  0.10709558950E+01  0.49518808937E+00 -0.25666860789E-01  0.90007823504E+02  0.90000085975E+02 0.  0.
        -12    1    1    2    0    0 -0.10709558950E+01 -0.49518808937E+00  0.25666860789E-01  0.11801764955E+01  0.00000000000E+00 0.  1.
         11    1    3    3    0    0 -0.29765120430E+01 -0.62531739123E+01  0.64570676825E+01  0.94686604774E+01  0.51100000000E-03 0. -1.
        -11    1    3    3    0    0  0.70749037203E+01 -0.21071063372E+02  0.28243636902E+02  0.35940882014E+02  0.51100000000E-03 0.  1.
         12    1    3    3    0    0 -0.30274357823E+01  0.27819425374E+02 -0.34726371445E+02  0.44598281013E+02  0.00000000000E+00 0. -1.
</event>
<event>
 7    1  0.3622165E-015  0.9000776E+02  0.7816164E-02  0.1186339E+00
        -11   -1    0    0    0    0  0.00000000000E+00  0.00000000000E+00  0.45593999997E+02  0.45594000000E+02  0.51100000000E-03 0.  1.
         11   -1    0    0    0    0 -0.00000000000E+00 -0.00000000000E+00 -0.45593999997E+02  0.45594000000E+02  0.51100000000E-03 0. -1.
    9900012    2    1    2    0    0  0.68760059803E+00  0.87004844253E+00 -0.40396599272E+00  0.90007759602E+02  0.90000021228E+02 0.  0.
        -12    1    1    2    0    0 -0.68760059803E+00 -0.87004844253E+00  0.40396599272E+00  0.11802403984E+01  0.00000000000E+00 0.  1.
         11    1    3    3    0    0  0.84678076443E+01 -0.27854793210E+01  0.80187174848E+01  0.11990099737E+02  0.51100000000E-03 0. -1.
        -11    1    3    3    0    0  0.28208352563E+02 -0.16130904315E+02  0.85163267486E+01  0.33592336178E+02  0.51100000000E-03 0.  1.
         12    1    3    3    0    0 -0.35988559610E+02  0.19786432079E+02 -0.16939010226E+02  0.44425323686E+02  0.00000000000E+00 0. -1.
</event>
<event>
 7    1  0.3622165E-015  0.9000779E+02  0.7816164E-02  0.1186339E+00
        -11   -1    0    0    0    0  0.00000000000E+00  0.00000000000E+00  0.45593999997E+02  0.45594000000E+02  0.51100000000E-03 0.  1.
         11   -1    0    0    0    0 -0.00000000000E+00 -0.00000000000E+00 -0.45593999997E+02  0.45594000000E+02  0.51100000000E-03 0. -1.
    9900012    2    1    2    0    0 -0.28604622295E-01 -0.10856123142E+01 -0.46209442882E+00  0.90007786637E+02  0.90000048621E+02 0.  0.
        -12    1    1    2    0    0  0.28604622295E-01  0.10856123142E+01  0.46209442882E+00  0.11802133630E+01  0.00000000000E+00 0.  1.
         11    1    3    3    0    0 -0.20410359023E+02 -0.17990636059E+02  0.19270339597E+02  0.33340541833E+02  0.51100000000E-03 0. -1.
        -11    1    3    3    0    0  0.35297209122E+01 -0.54596148676E+01  0.12426827199E+02  0.14024705299E+02  0.51100000000E-03 0.  1.
        -12    1    3    3    0    0  0.16852033488E+02  0.22364638612E+02 -0.32159261225E+02  0.42642539506E+02  0.00000000000E+00 0.  1.
</event>
<event>
 7    1  0.3622165E-015  0.9000769E+02  0.7816164E-02  0.1186339E+00
        -11   -1    0    0    0    0  0.00000000000E+00  0.00000000000E+00  0.45593999997E+02  0.45594000000E+02  0.51100000000E-03 0. -1.
         11   -1    0    0    0    0 -0.00000000000E+00 -0.00000000000E+00 -0.45593999997E+02  0.45594000000E+02  0.51100000000E-03 0.  1.
    9900012    2    1    2    0    0  0.11295293630E+01  0.33512286057E+00  0.70645577328E-01  0.90007688723E+02  0.89999949414E+02 0.  0.
        -12    1    1    2    0    0 -0.11295293630E+01 -0.33512286057E+00 -0.70645577328E-01  0.11803112773E+01  0.00000000000E+00 0.  1.
         11    1    3    3    0    0 -0.33540349336E+01 -0.70014017657E+01 -0.57953233337E+01  0.96878764352E+01  0.51100000000E-03 0. -1.
        -11    1    3    3    0    0 -0.59979192227E+01 -0.23187058595E+02 -0.25732283371E+02  0.35153451169E+02  0.51100000000E-03 0.  1.
         12    1    3    3    0    0  0.10481483519E+02  0.30523583221E+02  0.31598252282E+02  0.45166361119E+02  0.00000000000E+00 0. -1.
</event>
<event>
 7    1  0.3622165E-015  0.9000776E+02  0.7816164E-02  0.1186339E+00
        -11   -1    0    0    0    0  0.00000000000E+00  0.00000000000E+00  0.45593999997E+02  0.45594000000E+02  0.51100000000E-03 0.  1.
         11   -1    0    0    0    0 -0.00000000000E+00 -0.00000000000E+00 -0.45593999997E+02  0.45594000000E+02  0.51100000000E-03 0. -1.
    9900012    2    1    2    0    0  0.10900520587E+01 -0.23589442380E+00  0.38612994122E+00  0.90007764430E+02  0.90000026120E+02 0.  0.
        -12    1    1    2    0    0 -0.10900520587E+01  0.23589442380E+00 -0.38612994122E+00  0.11802355703E+01  0.00000000000E+00 0.  1.
         11    1    3    3    0    0  0.95552239278E+01  0.47750320114E+00  0.48423692329E+01  0.10722819297E+02  0.51100000000E-03 0. -1.
        -11    1    3    3    0    0 -0.12944769028E+02 -0.73057194222E+01  0.35529047948E+02  0.38513034545E+02  0.51100000000E-03 0.  1.
         12    1    3    3    0    0  0.44795971586E+01  0.65923217973E+01 -0.39985287240E+02  0.40771910589E+02  0.00000000000E+00 0. -1.
</event>
<event>
 7    1  0.3622165E-015  0.9000779E+02  0.7816164E-02  0.1186339E+00
        -11   -1    0    0    0    0  0.00000000000E+00  0.00000000000E+00  0.45593999997E+02  0.45594000000E+02  0.51100000000E-03 0.  1.
         11   -1    0    0    0    0 -0.00000000000E+00 -0.00000000000E+00 -0.45593999997E+02  0.45594000000E+02  0.51100000000E-03 0. -1.
    9900012    2    1    2    0    0  0.10505304591E+01 -0.19228231095E+00 -0.50229206701E+00  0.90007794911E+02  0.90000057003E+02 0.  0.
        -12    1    1    2    0    0 -0.10505304591E+01  0.19228231095E+00  0.50229206701E+00  0.11802050894E+01  0.00000000000E+00 0.  1.
         11    1    3    3    0    0  0.11753035261E+01  0.56966159701E+01 -0.87665479733E+01  0.10520700334E+02  0.51100000000E-03 0. -1.
        -11    1    3    3    0    0 -0.14816323761E+02  0.20934641743E+02  0.31830455308E+02  0.40877384458E+02  0.51100000000E-03 0.  1.
         12    1    3    3    0    0  0.14691550694E+02 -0.26823540024E+02 -0.23566199402E+02  0.38609710119E+02  0.00000000000E+00 0. -1.
</event>
<event>
 7    1  0.3622165E-015  0.9000776E+02  0.7816164E-02  0.1186339E+00
        -11   -1    0    0    0    0  0.00000000000E+00  0.00000000000E+00  0.45593999997E+02  0.45594000000E+02  0.51100000000E-03 0.  1.
         11   -1    0    0    0    0 -0.00000000000E+00 -0.00000000000E+00 -0.45593999997E+02  0.45594000000E+02  0.51100000000E-03 0. -1.
    9900012    2    1    2    0    0 -0.14505132744E+00 -0.94302497981E+00 -0.69472402151E+00  0.90007755336E+02  0.90000016907E+02 0.  0.
        -12    1    1    2    0    0  0.14505132744E+00  0.94302497981E+00  0.69472402151E+00  0.11802446637E+01  0.00000000000E+00 0.  1.
         11    1    3    3    0    0 -0.58852471990E+01 -0.94699809683E+01 -0.10982221315E+01  0.11203694312E+02  0.51100000000E-03 0. -1.
        -11    1    3    3    0    0 -0.13702679176E+02 -0.29958916061E+02  0.10391735390E+02  0.34544004297E+02  0.51100000000E-03 0.  1.
         12    1    3    3    0    0  0.19442875048E+02  0.38485872049E+02 -0.99882372803E+01  0.44260056727E+02  0.00000000000E+00 0. -1.
</event>
<event>
 7    1  0.3622165E-015  0.9000767E+02  0.7816164E-02  0.1186339E+00
        -11   -1    0    0    0    0  0.00000000000E+00  0.00000000000E+00  0.45593999997E+02  0.45594000000E+02  0.51100000000E-03 0. -1.
         11   -1    0    0    0    0 -0.00000000000E+00 -0.00000000000E+00 -0.45593999997E+02  0.45594000000E+02  0.51100000000E-03 0.  1.
    9900012    2    1    2    0    0 -0.60598066706E+00  0.66998076778E+00  0.75967263802E+00  0.90007665592E+02  0.89999925978E+02 0.  0.
        -12    1    1    2    0    0  0.60598066706E+00 -0.66998076778E+00 -0.75967263802E+00  0.11803344081E+01  0.00000000000E+00 0.  1.
         11    1    3    3    0    0 -0.10741006166E+01  0.11849791385E+02  0.71933891858E+01  0.13903815887E+02  0.51100000000E-03 0. -1.
        -11    1    3    3    0    0  0.28677780046E+02  0.14604039247E+02 -0.17076241774E+02  0.36432006040E+02  0.51100000000E-03 0.  1.
         12    1    3    3    0    0 -0.28209660097E+02 -0.25783849863E+02  0.10642525227E+02  0.39671843665E+02  0.00000000000E+00 0. -1.
</event>
<event>
 7    1  0.3622165E-015  0.9000772E+02  0.7816164E-02  0.1186339E+00
        -11   -1    0    0    0    0  0.00000000000E+00  0.00000000000E+00  0.45593999997E+02  0.45594000000E+02  0.51100000000E-03 0. -1.
         11   -1    0    0    0    0 -0.00000000000E+00 -0.00000000000E+00 -0.45593999997E+02  0.45594000000E+02  0.51100000000E-03 0.  1.
    9900012    2    1    2    0    0 -0.11189981837E+01 -0.11389597155E+00  0.35767146368E+00  0.90007721176E+02  0.89999982295E+02 0.  0.
        -12    1    1    2    0    0  0.11189981837E+01  0.11389597155E+00 -0.35767146368E+00  0.11802788244E+01  0.00000000000E+00 0.  1.
         11    1    3    3    0    0  0.18273236074E+02 -0.36168307970E+02  0.42570107719E+01  0.40745304012E+02  0.51100000000E-03 0. -1.
        -11    1    3    3    0    0  0.19904621726E+01 -0.34968858321E+00  0.56293148641E+01  0.59810875153E+01  0.51100000000E-03 0.  1.
        -12    1    3    3    0    0 -0.21382696430E+02  0.36404100582E+02 -0.95286541723E+01  0.43281329648E+02  0.00000000000E+00 0.  1.
</event>
<event>
 7    1  0.3622165E-015  0.9000756E+02  0.7816164E-02  0.1186339E+00
        -11   -1    0    0    0    0  0.00000000000E+00  0.00000000000E+00  0.45593999997E+02  0.45594000000E+02  0.51100000000E-03 0.  1.
         11   -1    0    0    0    0 -0.00000000000E+00 -0.00000000000E+00 -0.45593999997E+02  0.45594000000E+02  0.51100000000E-03 0. -1.
    9900012    2    1    2    0    0  0.61106171865E+00 -0.93889384346E+00 -0.37217555059E+00  0.90007562491E+02  0.89999821515E+02 0.  0.
        -12    1    1    2    0    0 -0.61106171865E+00  0.93889384346E+00  0.37217555059E+00  0.11804375095E+01  0.00000000000E+00 0.  1.
         11    1    3    3    0    0 -0.32765215654E+02 -0.27215058701E+02  0.10563551706E+01  0.42606744342E+02  0.51100000000E-03 0. -1.
        -11    1    3    3    0    0  0.46878685660E+01  0.51041968338E+00 -0.69998894342E+01  0.84400884058E+01  0.51100000000E-03 0.  1.
        -12    1    3    3    0    0  0.28688408806E+02  0.25765745174E+02  0.55713587130E+01  0.38960729743E+02  0.00000000000E+00 0.  1.
</event>
<event>
 7    1  0.3622165E-015  0.9000778E+02  0.7816164E-02  0.1186339E+00
        -11   -1    0    0    0    0  0.00000000000E+00  0.00000000000E+00  0.45593999997E+02  0.45594000000E+02  0.51100000000E-03 0. -1.
         11   -1    0    0    0    0 -0.00000000000E+00 -0.00000000000E+00 -0.45593999997E+02  0.45594000000E+02  0.51100000000E-03 0.  1.
    9900012    2    1    2    0    0 -0.34237428285E+00  0.90294506167E+00  0.67851190858E+00  0.90007784620E+02  0.90000046577E+02 0.  0.
        -12    1    1    2    0    0  0.34237428285E+00 -0.90294506167E+00 -0.67851190858E+00  0.11802153804E+01  0.00000000000E+00 0.  1.
         11    1    3    3    0    0  0.31223109346E+01 -0.91689933373E+01 -0.35089942273E+01  0.10302053443E+02  0.51100000000E-03 0. -1.
        -11    1    3    3    0    0 -0.32854439972E+02  0.97511923275E+01 -0.21679685298E+02  0.40552542862E+02  0.51100000000E-03 0.  1.
         12    1    3    3    0    0  0.29389754754E+02  0.32074607138E+00  0.25867191434E+02  0.39153188315E+02  0.00000000000E+00 0. -1.
</event>
<event>
 7    1  0.3622165E-015  0.9000776E+02  0.7816164E-02  0.1186339E+00
        -11   -1    0    0    0    0  0.00000000000E+00  0.00000000000E+00  0.45593999997E+02  0.45594000000E+02  0.51100000000E-03 0. -1.
         11   -1    0    0    0    0 -0.00000000000E+00 -0.00000000000E+00 -0.45593999997E+02  0.45594000000E+02  0.51100000000E-03 0.  1.
    9900012    2    1    2    0    0  0.77860800963E+00  0.32614544446E+00  0.82484941729E+00  0.90007755176E+02  0.90000016744E+02 0.  0.
        -12    1    1    2    0    0 -0.77860800963E+00 -0.32614544446E+00 -0.82484941729E+00  0.11802448241E+01  0.00000000000E+00 0.  1.
         11    1    3    3    0    0 -0.20914203966E+01 -0.62279837215E+01 -0.50788976768E+01  0.83040365114E+01  0.51100000000E-03 0. -1.
        -11    1    3    3    0    0 -0.11846395003E+02 -0.26143870080E+02 -0.22085411858E+02  0.36216079778E+02  0.51100000000E-03 0.  1.
         12    1    3    3    0    0  0.14716423409E+02  0.32697999246E+02  0.27989158952E+02  0.45487638886E+02  0.00000000000E+00 0. -1.
</event>
<event>
 7    1  0.3622165E-015  0.9000771E+02  0.7816164E-02  0.1186339E+00
        -11   -1    0    0    0    0  0.00000000000E+00  0.00000000000E+00  0.45593999997E+02  0.45594000000E+02  0.51100000000E-03 0.  1.
         11   -1    0    0    0    0 -0.00000000000E+00 -0.00000000000E+00 -0.45593999997E+02  0.45594000000E+02  0.51100000000E-03 0. -1.
    9900012    2    1    2    0    0 -0.10699318642E+01  0.19409168636E+00 -0.45898053674E+00  0.90007708125E+02  0.89999969072E+02 0.  0.
        -12    1    1    2    0    0  0.10699318642E+01 -0.19409168636E+00  0.45898053674E+00  0.11802918748E+01  0.00000000000E+00 0.  1.
         11    1    3    3    0    0 -0.32426858619E+00  0.55686929290E+01 -0.92032942162E+01  0.10761789616E+02  0.51100000000E-03 0. -1.
        -11    1    3    3    0    0  0.32771126193E+02 -0.22724099829E+02  0.11209765224E+02  0.41424512811E+02  0.51100000000E-03 0.  1.
         12    1    3    3    0    0 -0.33516789471E+02  0.17349498586E+02 -0.24654515444E+01  0.37821405698E+02  0.00000000000E+00 0. -1.
</event>
<event>
 7    1  0.3622165E-015  0.9000772E+02  0.7816164E-02  0.1186339E+00
        -11   -1    0    0    0    0  0.00000000000E+00  0.00000000000E+00  0.45593999997E+02  0.45594000000E+02  0.51100000000E-03 0. -1.
         11   -1    0    0    0    0 -0.00000000000E+00 -0.00000000000E+00 -0.45593999997E+02  0.45594000000E+02  0.51100000000E-03 0.  1.
    9900012    2    1    2    0    0 -0.67774574490E+00  0.21679960655E+00 -0.94166406809E+00  0.90007715042E+02  0.89999976081E+02 0.  0.
        -12    1    1    2    0    0  0.67774574490E+00 -0.21679960655E+00  0.94166406809E+00  0.11802849577E+01  0.00000000000E+00 0.  1.
         11    1    3    3    0    0  0.30334090206E+02 -0.13523756076E+02  0.16391668742E+02  0.37036951972E+02  0.51100000000E-03 0. -1.
        -11    1    3    3    0    0  0.38973847510E+01 -0.16627878407E+01  0.66628000075E+01  0.78960354294E+01  0.51100000000E-03 0.  1.
        -12    1    3    3    0    0 -0.34909220702E+02  0.15403343523E+02 -0.23996132817E+02  0.45074727641E+02  0.00000000000E+00 0.  1.
</event>
<event>
 7    1  0.3622165E-015  0.9000774E+02  0.7816164E-02  0.1186339E+00
        -11   -1    0    0    0    0  0.00000000000E+00  0.00000000000E+00  0.45593999997E+02  0.45594000000E+02  0.51100000000E-03 0.  1.
         11   -1    0    0    0    0 -0.00000000000E+00 -0.00000000000E+00 -0.45593999997E+02  0.45594000000E+02  0.51100000000E-03 0. -1.
    9900012    2    1    2    0    0  0.60983614576E+00  0.94862150339E+00  0.34819570231E+00  0.90007735992E+02  0.89999997307E+02 0.  0.
        -12    1    1    2    0    0 -0.60983614576E+00 -0.94862150339E+00 -0.34819570231E+00  0.11802640080E+01  0.00000000000E+00 0.  1.
         11    1    3    3    0    0 -0.14367550982E+02 -0.29599999979E+00 -0.37395242920E+02  0.40061431958E+02  0.51100000000E-03 0. -1.
        -11    1    3    3    0    0 -0.32159501621E+01  0.11074003284E+02  0.94930730572E+01  0.14936342273E+02  0.51100000000E-03 0.  1.
        -12    1    3    3    0    0  0.18193337289E+02 -0.98293817805E+01  0.28250365565E+02  0.35009961761E+02  0.00000000000E+00 0.  1.
</event>
<event>
 7    1  0.3622165E-015  0.9000768E+02  0.7816164E-02  0.1186339E+00
        -11   -1    0    0    0    0  0.00000000000E+00  0.00000000000E+00  0.45593999997E+02  0.45594000000E+02  0.51100000000E-03 0.  1.
         11   -1    0    0    0    0 -0.00000000000E+00 -0.00000000000E+00 -0.45593999997E+02  0.45594000000E+02  0.51100000000E-03 0. -1.
    9900012    2    1    2    0    0  0.32780348721E+00 -0.49011165200E+00 -0.10224886934E+01  0.90007683227E+02  0.89999943845E+02 0.  0.
        -12    1    1    2    0    0 -0.32780348721E+00  0.49011165200E+00  0.10224886934E+01  0.11803167735E+01  0.00000000000E+00 0.  1.
         11    1    3    3    0    0  0.57136428429E+01  0.73955247315E+00  0.78910012992E+01  0.97703917097E+01  0.51100000000E-03 0. -1.
        -11    1    3    3    0    0 -0.40976923775E+02  0.10434200946E+02 -0.44064149733E+01  0.42513495794E+02  0.51100000000E-03 0.  1.
         12    1    3    3    0    0  0.35591084419E+02 -0.11663865071E+02 -0.45070750192E+01  0.37723795723E+02  0.00000000000E+00 0. -1.
</event>
<event>
 7    1  0.3622166E-015  0.9000870E+02  0.7816164E-02  0.1186337E+00
        -11   -1    0    0    0    0  0.00000000000E+00  0.00000000000E+00  0.45593999997E+02  0.45594000000E+02  0.51100000000E-03 0.  1.
         11   -1    0    0    0    0 -0.00000000000E+00 -0.00000000000E+00 -0.45593999997E+02  0.45594000000E+02  0.51100000000E-03 0. -1.
    9900012    2    1    2    0    0 -0.15173428546E+00 -0.66606033192E+00 -0.96129641152E+00  0.90008699169E+02  0.90000973193E+02 0.  0.
        -12    1    1    2    0    0  0.15173428546E+00  0.66606033192E+00  0.96129641152E+00  0.11793008310E+01  0.00000000000E+00 0.  1.
         11    1    3    3    0    0 -0.66699275368E+01  0.55125422899E+01  0.42590016696E+01  0.96444362887E+01  0.51100000000E-03 0. -1.
        -11    1    3    3    0    0 -0.30197474357E+02  0.39166958577E+01  0.18378009648E+02  0.35566546119E+02  0.51100000000E-03 0.  1.
         12    1    3    3    0    0  0.36715667608E+02 -0.10095298479E+02 -0.23598307729E+02  0.44797716761E+02  0.00000000000E+00 0. -1.
</event>
<event>
 7    1  0.3622165E-015  0.9000771E+02  0.7816164E-02  0.1186339E+00
        -11   -1    0    0    0    0  0.00000000000E+00  0.00000000000E+00  0.45593999997E+02  0.45594000000E+02  0.51100000000E-03 0. -1.
         11   -1    0    0    0    0 -0.00000000000E+00 -0.00000000000E+00 -0.45593999997E+02  0.45594000000E+02  0.51100000000E-03 0.  1.
    9900012    2    1    2    0    0 -0.65159688938E-01  0.11322574237E+01  0.32684219328E+00  0.90007712544E+02  0.89999973550E+02 0.  0.
        -12    1    1    2    0    0  0.65159688938E-01 -0.11322574237E+01 -0.32684219328E+00  0.11802874556E+01  0.00000000000E+00 0.  1.
         11    1    3    3    0    0  0.14393738220E+00  0.13239093293E+02 -0.12777300446E+01  0.13301387278E+02  0.51100000000E-03 0. -1.
        -11    1    3    3    0    0 -0.23494747894E+02  0.18712616358E+02 -0.16252472440E+02  0.34151252543E+02  0.51100000000E-03 0.  1.
         12    1    3    3    0    0  0.23285650823E+02 -0.30819452228E+02  0.17857044678E+02  0.42555072723E+02  0.00000000000E+00 0. -1.
</event>
<event>
 7    1  0.3622165E-015  0.9000777E+02  0.7816164E-02  0.1186339E+00
        -11   -1    0    0    0    0  0.00000000000E+00  0.00000000000E+00  0.45593999997E+02  0.45594000000E+02  0.51100000000E-03 0. -1.
         11   -1    0    0    0    0 -0.00000000000E+00 -0.00000000000E+00 -0.45593999997E+02  0.45594000000E+02  0.51100000000E-03 0.  1.
    9900012    2    1    2    0    0  0.19601142163E+00 -0.84966376578E+00 -0.79536368526E+00  0.90007765962E+02  0.90000027673E+02 0.  0.
        -12    1    1    2    0    0 -0.19601142163E+00  0.84966376578E+00  0.79536368526E+00  0.11802340379E+01  0.00000000000E+00 0.  1.
         11    1    3    3    0    0 -0.16616541441E+02  0.39964377296E+01  0.33454966651E+02  0.37567482720E+02  0.51100000000E-03 0. -1.
        -11    1    3    3    0    0 -0.84899961612E+01  0.17710012605E+01  0.79801895510E+00  0.87093808503E+01  0.51100000000E-03 0.  1.
        -12    1    3    3    0    0  0.25302549024E+02 -0.66171027558E+01 -0.35048349292E+02  0.43730902392E+02  0.00000000000E+00 0.  1.
</event>
<event>
 7    1  0.3622165E-015  0.9000783E+02  0.7816164E-02  0.1186339E+00
        -11   -1    0    0    0    0  0.00000000000E+00  0.00000000000E+00  0.45593999997E+02  0.45594000000E+02  0.51100000000E-03 0.  1.
         11   -1    0    0    0    0 -0.00000000000E+00 -0.00000000000E+00 -0.45593999997E+02  0.45594000000E+02  0.51100000000E-03 0. -1.
    9900012    2    1    2    0    0  0.88307610568E+00  0.78291262320E+00 -0.45065304629E-02  0.90007832261E+02  0.90000094847E+02 0.  0.
        -12    1    1    2    0    0 -0.88307610568E+00 -0.78291262320E+00  0.45065304629E-02  0.11801677393E+01  0.00000000000E+00 0.  1.
         11    1    3    3    0    0 -0.26631966554E+00 -0.52159279144E+01  0.73511036840E+01  0.90175138373E+01  0.51100000000E-03 0. -1.
        -11    1    3    3    0    0 -0.43477372018E+01 -0.18074147483E+02  0.30544052396E+02  0.35756352765E+02  0.51100000000E-03 0.  1.
         12    1    3    3    0    0  0.54971329730E+01  0.24072988021E+02 -0.37899662611E+02  0.45233965658E+02  0.00000000000E+00 0. -1.
</event>
<event>
 7    1  0.3622165E-015  0.9000773E+02  0.7816164E-02  0.1186339E+00
        -11   -1    0    0    0    0  0.00000000000E+00  0.00000000000E+00  0.45593999997E+02  0.45594000000E+02  0.51100000000E-03 0.  1.
         11   -1    0    0    0    0 -0.00000000000E+00 -0.00000000000E+00 -0.45593999997E+02  0.45594000000E+02  0.51100000000E-03 0. -1.
    9900012    2    1    2    0    0 -0.11464062962E+01 -0.90117870561E-01  0.26581968896E+00  0.90007733618E+02  0.89999994901E+02 0.  0.
        -12    1    1    2    0    0  0.11464062962E+01  0.90117870561E-01 -0.26581968896E+00  0.11802663824E+01  0.00000000000E+00 0.  1.
         11    1    3    3    0    0 -0.39839417669E+01  0.70135078138E+01  0.31195104541E+01  0.86482616514E+01  0.51100000000E-03 0. -1.
        -11    1    3    3    0    0  0.34145155627E+02  0.19815289973E+02  0.32924418346E+01  0.39615370035E+02  0.51100000000E-03 0.  1.
         12    1    3    3    0    0 -0.31307620157E+02 -0.26918915658E+02 -0.61461325997E+01  0.41744101931E+02  0.00000000000E+00 0. -1.
</event>
<event>
 7    1  0.3622165E-015  0.9000772E+02  0.7816164E-02  0.1186339E+00
        -11   -1    0    0    0    0  0.00000000000E+00  0.00000000000E+00  0.45593999997E+02  0.45594000000E+02  0.51100000000E-03 0. -1.
         11   -1    0    0    0    0 -0.00000000000E+00 -0.00000000000E+00 -0.45593999997E+02  0.45594000000E+02  0.51100000000E-03 0.  1.
    9900012    2    1    2    0    0 -0.11294043765E+01 -0.29992319380E+00  0.16600915348E+00  0.90007717319E+02  0.89999978388E+02 0.  0.
        -12    1    1    2    0    0  0.11294043765E+01  0.29992319380E+00 -0.16600915348E+00  0.11802826810E+01  0.00000000000E+00 0.  1.
         11    1    3    3    0    0  0.29796754803E+02  0.21406810259E+02 -0.90137618035E+01  0.37780233249E+02  0.51100000000E-03 0. -1.
        -11    1    3    3    0    0  0.14451568825E+01  0.68583874945E+01  0.54794677749E+01  0.88966580690E+01  0.51100000000E-03 0.  1.
        -12    1    3    3    0    0 -0.32371316062E+02 -0.28565120947E+02  0.37003031821E+01  0.43330826001E+02  0.00000000000E+00 0.  1.
</event>
<event>
 7    1  0.3622165E-015  0.9000800E+02  0.7816164E-02  0.1186339E+00
        -11   -1    0    0    0    0  0.00000000000E+00  0.00000000000E+00  0.45593999997E+02  0.45594000000E+02  0.51100000000E-03 0. -1.
         11   -1    0    0    0    0 -0.00000000000E+00 -0.00000000000E+00 -0.45593999997E+02  0.45594000000E+02  0.51100000000E-03 0.  1.
    9900012    2    1    2    0    0  0.25775208756E+00 -0.60512794841E+00 -0.97967996567E+00  0.90008004743E+02  0.90000269605E+02 0.  0.
        -12    1    1    2    0    0 -0.25775208756E+00  0.60512794841E+00  0.97967996567E+00  0.11799952575E+01  0.00000000000E+00 0.  1.
         11    1    3    3    0    0 -0.32009941770E+02  0.15454921632E+02 -0.65896852763E+00  0.35551725901E+02  0.51100000000E-03 0. -1.
        -11    1    3    3    0    0 -0.85224031032E+01  0.22813550528E+01  0.36683026813E+01  0.95547046189E+01  0.51100000000E-03 0.  1.
        -12    1    3    3    0    0  0.40790096961E+02 -0.18341404634E+02 -0.39890141193E+01  0.44901574222E+02  0.00000000000E+00 0.  1.
</event>
<event>
 7    1  0.3622165E-015  0.9000711E+02  0.7816164E-02  0.1186340E+00
        -11   -1    0    0    0    0  0.00000000000E+00  0.00000000000E+00  0.45593999997E+02  0.45594000000E+02  0.51100000000E-03 0.  1.
         11   -1    0    0    0    0 -0.00000000000E+00 -0.00000000000E+00 -0.45593999997E+02  0.45594000000E+02  0.51100000000E-03 0. -1.
    9900012    2    1    2    0    0  0.66256369436E+00 -0.91417171009E+00 -0.34612877104E+00  0.90007108095E+02  0.89999361120E+02 0.  0.
        -12    1    1    2    0    0 -0.66256369436E+00  0.91417171009E+00  0.34612877104E+00  0.11808919048E+01  0.00000000000E+00 0.  1.
         11    1    3    3    0    0 -0.21212971196E+02 -0.21351519153E+02 -0.30812420782E+02  0.43072993764E+02  0.51100000000E-03 0. -1.
        -11    1    3    3    0    0 -0.14235229354E+01 -0.13849410388E+01 -0.89985371551E+00  0.21804165196E+01  0.51100000000E-03 0.  1.
        -12    1    3    3    0    0  0.23299057825E+02  0.21822288482E+02  0.31366145726E+02  0.44753697812E+02  0.00000000000E+00 0.  1.
</event>
<event>
 7    1  0.3622165E-015  0.9000772E+02  0.7816164E-02  0.1186339E+00
        -11   -1    0    0    0    0  0.00000000000E+00  0.00000000000E+00  0.45593999997E+02  0.45594000000E+02  0.51100000000E-03 0.  1.
         11   -1    0    0    0    0 -0.00000000000E+00 -0.00000000000E+00 -0.45593999997E+02  0.45594000000E+02  0.51100000000E-03 0. -1.
    9900012    2    1    2    0    0 -0.14079273922E+00  0.22419914388E+00 -0.11502083103E+01  0.90007717403E+02  0.89999978473E+02 0.  0.
        -12    1    1    2    0    0  0.14079273922E+00 -0.22419914388E+00  0.11502083103E+01  0.11802825969E+01  0.00000000000E+00 0.  1.
         11    1    3    3    0    0  0.24848962662E+02 -0.81955588553E+01 -0.10311994693E+02  0.28124284260E+02  0.51100000000E-03 0. -1.
        -11    1    3    3    0    0  0.11923082920E+02 -0.13514789604E+02  0.52283315646E+01  0.18765524122E+02  0.51100000000E-03 0.  1.
        -12    1    3    3    0    0 -0.36912838322E+02  0.21934547603E+02  0.39334548178E+01  0.43117909021E+02  0.00000000000E+00 0.  1.
</event>
<event>
 7    1  0.3622165E-015  0.9000752E+02  0.7816164E-02  0.1186339E+00
        -11   -1    0    0    0    0  0.00000000000E+00  0.00000000000E+00  0.45593999997E+02  0.45594000000E+02  0.51100000000E-03 0.  1.
         11   -1    0    0    0    0 -0.00000000000E+00 -0.00000000000E+00 -0.45593999997E+02  0.45594000000E+02  0.51100000000E-03 0. -1.
    9900012    2    1    2    0    0  0.13467043202E+00  0.89113118529E+00  0.76242014875E+00  0.90007518997E+02  0.89999777448E+02 0.  0.
        -12    1    1    2    0    0 -0.13467043202E+00 -0.89113118529E+00 -0.76242014875E+00  0.11804810028E+01  0.00000000000E+00 0.  1.
         11    1    3    3    0    0 -0.88329891377E+01 -0.32217067066E+01 -0.30900945747E+00  0.94072619989E+01  0.51100000000E-03 0. -1.
        -11    1    3    3    0    0 -0.33281835443E+02 -0.11528289910E+02  0.40284220850E+01  0.35451519339E+02  0.51100000000E-03 0.  1.
         12    1    3    3    0    0  0.42249495012E+02  0.15641127802E+02 -0.29569924788E+01  0.45148737659E+02  0.00000000000E+00 0. -1.
</event>
<event>
 7    1  0.3622165E-015  0.9000779E+02  0.7816164E-02  0.1186339E+00
        -11   -1    0    0    0    0  0.00000000000E+00  0.00000000000E+00  0.45593999997E+02  0.45594000000E+02  0.51100000000E-03 0. -1.
         11   -1    0    0    0    0 -0.00000000000E+00 -0.00000000000E+00 -0.45593999997E+02  0.45594000000E+02  0.51100000000E-03 0.  1.
    9900012    2    1    2    0    0 -0.26044649314E+00 -0.10217865499E+01  0.53009799937E+00  0.90007794925E+02  0.90000057018E+02 0.  0.
        -12    1    1    2    0    0  0.26044649314E+00  0.10217865499E+01 -0.53009799937E+00  0.11802050746E+01  0.00000000000E+00 0.  1.
         11    1    3    3    0    0  0.66057459808E+01  0.81059123382E+01  0.81063138375E+00  0.10488032146E+02  0.51100000000E-03 0. -1.
        -11    1    3    3    0    0  0.28894407548E+02  0.17886471203E+02 -0.54079778522E+01  0.34410156413E+02  0.51100000000E-03 0.  1.
         12    1    3    3    0    0 -0.35760600022E+02 -0.27014170092E+02  0.51274444678E+01  0.45109606366E+02  0.00000000000E+00 0. -1.
</event>
<event>
 7    1  0.3622165E-015  0.9000764E+02  0.7816164E-02  0.1186339E+00
        -11   -1    0    0    0    0  0.00000000000E+00  0.00000000000E+00  0.45593999997E+02  0.45594000000E+02  0.51100000000E-03 0.  1.
         11   -1    0    0    0    0 -0.00000000000E+00 -0.00000000000E+00 -0.45593999997E+02  0.45594000000E+02  0.51100000000E-03 0. -1.
    9900012    2    1    2    0    0 -0.89931339569E+00  0.74178503332E+00  0.18507201938E+00  0.90007635111E+02  0.89999895094E+02 0.  0.
        -12    1    1    2    0    0  0.89931339569E+00 -0.74178503332E+00 -0.18507201938E+00  0.11803648892E+01  0.00000000000E+00 0.  1.
         11    1    3    3    0    0  0.44556520115E+01 -0.28523346372E+01 -0.33839473381E+02  0.34250527101E+02  0.51100000000E-03 0. -1.
        -11    1    3    3    0    0  0.12152957641E+01 -0.17287523509E+01 -0.10360481573E+02  0.10573793415E+02  0.51100000000E-03 0.  1.
        -12    1    3    3    0    0 -0.65702611713E+01  0.53228720214E+01  0.44385026973E+02  0.45183314595E+02  0.00000000000E+00 0.  1.
</event>
<event>
 7    1  0.3622165E-015  0.9000774E+02  0.7816164E-02  0.1186339E+00
        -11   -1    0    0    0    0  0.00000000000E+00  0.00000000000E+00  0.45593999997E+02  0.45594000000E+02  0.51100000000E-03 0.  1.
         11   -1    0    0    0    0 -0.00000000000E+00 -0.00000000000E+00 -0.45593999997E+02  0.45594000000E+02  0.51100000000E-03 0. -1.
    9900012    2    1    2    0    0 -0.46206368068E+00  0.12426989646E+00 -0.10789217332E+01  0.90007738182E+02  0.89999999526E+02 0.  0.
        -12    1    1    2    0    0  0.46206368068E+00 -0.12426989646E+00  0.10789217332E+01  0.11802618178E+01  0.00000000000E+00 0.  1.
         11    1    3    3    0    0 -0.35390245607E+02  0.94116464297E+00 -0.17597042748E+02  0.39534936306E+02  0.51100000000E-03 0. -1.
        -11    1    3    3    0    0 -0.52869159557E+01  0.18507472239E+01  0.71713263015E+01  0.90997069620E+01  0.51100000000E-03 0.  1.
        -12    1    3    3    0    0  0.40215097882E+02 -0.26676419704E+01  0.93467947133E+01  0.41373094914E+02  0.00000000000E+00 0.  1.
</event>
<event>
 7    1  0.3622165E-015  0.9000772E+02  0.7816164E-02  0.1186339E+00
        -11   -1    0    0    0    0  0.00000000000E+00  0.00000000000E+00  0.45593999997E+02  0.45594000000E+02  0.51100000000E-03 0.  1.
         11   -1    0    0    0    0 -0.00000000000E+00 -0.00000000000E+00 -0.45593999997E+02  0.45594000000E+02  0.51100000000E-03 0. -1.
    9900012    2    1    2    0    0  0.45187577528E+00  0.71840512736E+00 -0.82022614176E+00  0.90007716743E+02  0.89999977804E+02 0.  0.
        -12    1    1    2    0    0 -0.45187577528E+00 -0.71840512736E+00  0.82022614176E+00  0.11802832571E+01  0.00000000000E+00 0.  1.
         11    1    3    3    0    0 -0.26197673035E+02 -0.63797879036E+01  0.13207562806E+02  0.30024314841E+02  0.51100000000E-03 0. -1.
        -11    1    3    3    0    0 -0.99401232190E+01 -0.59482939382E+01  0.91379712304E+01  0.14754347456E+02  0.51100000000E-03 0.  1.
        -12    1    3    3    0    0  0.36589672029E+02  0.13046486969E+02 -0.23165760178E+02  0.45229054446E+02  0.00000000000E+00 0.  1.
</event>
<event>
 7    1  0.3622165E-015  0.9000776E+02  0.7816164E-02  0.1186339E+00
        -11   -1    0    0    0    0  0.00000000000E+00  0.00000000000E+00  0.45593999997E+02  0.45594000000E+02  0.51100000000E-03 0.  1.
         11   -1    0    0    0    0 -0.00000000000E+00 -0.00000000000E+00 -0.45593999997E+02  0.45594000000E+02  0.51100000000E-03 0. -1.
    9900012    2    1    2    0    0  0.10434204837E+01  0.48884578018E+00 -0.25549180627E+00  0.90007757412E+02  0.90000019010E+02 0.  0.
        -12    1    1    2    0    0 -0.10434204837E+01 -0.48884578018E+00  0.25549180627E+00  0.11802425877E+01  0.00000000000E+00 0.  1.
         11    1    3    3    0    0  0.34409299811E+01 -0.88905354938E+01  0.83155548131E+00  0.95693837461E+01  0.51100000000E-03 0. -1.
        -11    1    3    3    0    0  0.17588948346E+02 -0.30722685278E+02  0.24926051732E+01  0.35488978224E+02  0.51100000000E-03 0.  1.
         12    1    3    3    0    0 -0.19986457844E+02  0.40102066552E+02 -0.35796524607E+01  0.44949395442E+02  0.00000000000E+00 0. -1.
</event>
<event>
 7    1  0.3622165E-015  0.9000777E+02  0.7816164E-02  0.1186339E+00
        -11   -1    0    0    0    0  0.00000000000E+00  0.00000000000E+00  0.45593999997E+02  0.45594000000E+02  0.51100000000E-03 0.  1.
         11   -1    0    0    0    0 -0.00000000000E+00 -0.00000000000E+00 -0.45593999997E+02  0.45594000000E+02  0.51100000000E-03 0. -1.
    9900012    2    1    2    0    0  0.42737627932E+00 -0.10740125697E+01 -0.23830380179E+00  0.90007770283E+02  0.90000032050E+02 0.  0.
        -12    1    1    2    0    0 -0.42737627932E+00  0.10740125697E+01  0.23830380179E+00  0.11802297174E+01  0.00000000000E+00 0.  1.
         11    1    3    3    0    0 -0.91619506180E+01 -0.27919741489E+01  0.43138951168E+01  0.10504577579E+02  0.51100000000E-03 0. -1.
        -11    1    3    3    0    0 -0.14137860866E+02 -0.33657685154E+02  0.11665726112E+01  0.36525056765E+02  0.51100000000E-03 0.  1.
         12    1    3    3    0    0  0.23727187763E+02  0.35375646733E+02 -0.57187715298E+01  0.42978135938E+02  0.00000000000E+00 0. -1.
</event>
<event>
 7    1  0.3622165E-015  0.9000771E+02  0.7816164E-02  0.1186339E+00
        -11   -1    0    0    0    0  0.00000000000E+00  0.00000000000E+00  0.45593999997E+02  0.45594000000E+02  0.51100000000E-03 0.  1.
         11   -1    0    0    0    0 -0.00000000000E+00 -0.00000000000E+00 -0.45593999997E+02  0.45594000000E+02  0.51100000000E-03 0. -1.
    9900012    2    1    2    0    0 -0.57419573068E+00  0.10082287399E+00 -0.10262640789E+01  0.90007710227E+02  0.89999971202E+02 0.  0.
        -12    1    1    2    0    0  0.57419573068E+00 -0.10082287399E+00  0.10262640789E+01  0.11802897732E+01  0.00000000000E+00 0.  1.
         11    1    3    3    0    0  0.39538348815E+01 -0.13248432995E+01 -0.79046320136E+01  0.89370704131E+01  0.51100000000E-03 0. -1.
        -11    1    3    3    0    0 -0.10085555489E+02 -0.37500603112E+02 -0.68287773174E+01  0.39428997745E+02  0.51100000000E-03 0.  1.
         12    1    3    3    0    0  0.55575248764E+01  0.38926269285E+02  0.13707145252E+02  0.41641642069E+02  0.00000000000E+00 0. -1.
</event>
<event>
 7    1  0.4009080E-015  0.9000777E+02  0.7816164E-02  0.1186339E+00
        -11   -1    0    0    0    0  0.00000000000E+00  0.00000000000E+00  0.45593999997E+02  0.45594000000E+02  0.51100000000E-03 0. -1.
         11   -1    0    0    0    0 -0.00000000000E+00 -0.00000000000E+00 -0.45593999997E+02  0.45594000000E+02  0.51100000000E-03 0.  1.
    9900012    2    1    2    0    0  0.15748686374E+00  0.51575942065E-01  0.11685412471E+01  0.90007766618E+02  0.90000028337E+02 0.  0.
        -12    1    1    2    0    0 -0.15748686374E+00 -0.51575942065E-01 -0.11685412471E+01  0.11802333821E+01  0.00000000000E+00 0.  1.
         11    1    3    3    0    0  0.33185087602E+02  0.13128800938E+02  0.12203434301E+02  0.37716564826E+02  0.51100000000E-03 0. -1.
        -11    1    3    3    0    0  0.31395043167E+01  0.84509076430E+01 -0.15748182525E+01  0.91517419181E+01  0.51100000000E-03 0.  1.
        -12    1    3    3    0    0 -0.36167105055E+02 -0.21528132639E+02 -0.94600748010E+01  0.43139459874E+02  0.00000000000E+00 0.  1.
</event>
<event>
 7    1  0.3622165E-015  0.9000779E+02  0.7816164E-02  0.1186339E+00
        -11   -1    0    0    0    0  0.00000000000E+00  0.00000000000E+00  0.45593999997E+02  0.45594000000E+02  0.51100000000E-03 0.  1.
         11   -1    0    0    0    0 -0.00000000000E+00 -0.00000000000E+00 -0.45593999997E+02  0.45594000000E+02  0.51100000000E-03 0. -1.
    9900012    2    1    2    0    0 -0.10891836558E+01 -0.35969572530E+00  0.27781650327E+00  0.90007794908E+02  0.90000057000E+02 0.  0.
        -12    1    1    2    0    0  0.10891836558E+01  0.35969572530E+00 -0.27781650327E+00  0.11802050925E+01  0.00000000000E+00 0.  1.
         11    1    3    3    0    0  0.24709711617E+01 -0.49400215236E+01 -0.60480374065E+01  0.81907428153E+01  0.51100000000E-03 0. -1.
        -11    1    3    3    0    0  0.20908714899E+02  0.34438668034E+02 -0.71706289999E+01  0.40922049498E+02  0.51100000000E-03 0.  1.
         12    1    3    3    0    0 -0.24468869716E+02 -0.29858342235E+02  0.13496482910E+02  0.40895002594E+02  0.00000000000E+00 0. -1.
</event>
<event>
 7    1  0.3622165E-015  0.9000747E+02  0.7816164E-02  0.1186340E+00
        -11   -1    0    0    0    0  0.00000000000E+00  0.00000000000E+00  0.45593999997E+02  0.45594000000E+02  0.51100000000E-03 0. -1.
         11   -1    0    0    0    0 -0.00000000000E+00 -0.00000000000E+00 -0.45593999997E+02  0.45594000000E+02  0.51100000000E-03 0.  1.
    9900012    2    1    2    0    0  0.84538144397E+00  0.73893537713E+00 -0.36463566136E+00  0.90007468576E+02  0.89999726361E+02 0.  0.
        -12    1    1    2    0    0 -0.84538144397E+00 -0.73893537713E+00  0.36463566136E+00  0.11805314239E+01  0.00000000000E+00 0.  1.
         11    1    3    3    0    0  0.38029503997E+00 -0.14939213049E+02 -0.35029016808E+00  0.14948157556E+02  0.51100000000E-03 0. -1.
        -11    1    3    3    0    0  0.53681189108E+01 -0.27690583051E+02 -0.10628559446E+02  0.30142185828E+02  0.51100000000E-03 0.  1.
         12    1    3    3    0    0 -0.49030325068E+01  0.43368731477E+02  0.10614213953E+02  0.44917125192E+02  0.00000000000E+00 0. -1.
</event>
<event>
 7    1  0.3755337E-015  0.9000737E+02  0.7816164E-02  0.1186340E+00
        -11   -1    0    0    0    0  0.00000000000E+00  0.00000000000E+00  0.45593999997E+02  0.45594000000E+02  0.51100000000E-03 0. -1.
         11   -1    0    0    0    0 -0.00000000000E+00 -0.00000000000E+00 -0.45593999997E+02  0.45594000000E+02  0.51100000000E-03 0.  1.
    9900012    2    1    2    0    0 -0.49872650792E+00  0.45314726946E-02  0.10701117446E+01  0.90007369740E+02  0.89999626220E+02 0.  0.
        -12    1    1    2    0    0  0.49872650792E+00 -0.45314726946E-02 -0.10701117446E+01  0.11806302596E+01  0.00000000000E+00 0.  1.
         11    1    3    3    0    0  0.87273849566E+00 -0.12904060563E+01 -0.87593748928E+01  0.88968235369E+01  0.51100000000E-03 0. -1.
        -11    1    3    3    0    0  0.32821817828E+02  0.10606605339E+02 -0.15231284567E+02  0.37706283722E+02  0.51100000000E-03 0.  1.
         12    1    3    3    0    0 -0.34193282831E+02 -0.93116678103E+01  0.25060771204E+02  0.43404262481E+02  0.00000000000E+00 0. -1.
</event>
<event>
 7    1  0.3622165E-015  0.9000767E+02  0.7816164E-02  0.1186339E+00
        -11   -1    0    0    0    0  0.00000000000E+00  0.00000000000E+00  0.45593999997E+02  0.45594000000E+02  0.51100000000E-03 0.  1.
         11   -1    0    0    0    0 -0.00000000000E+00 -0.00000000000E+00 -0.45593999997E+02  0.45594000000E+02  0.51100000000E-03 0. -1.
    9900012    2    1    2    0    0 -0.87691443953E+00 -0.52610064303E+00 -0.58941771371E+00  0.90007672053E+02  0.89999932524E+02 0.  0.
        -12    1    1    2    0    0  0.87691443953E+00  0.52610064303E+00  0.58941771371E+00  0.11803279468E+01  0.00000000000E+00 0.  1.
         11    1    3    3    0    0  0.31835697559E+02 -0.87829095765E+00 -0.91903488266E+01  0.33147330902E+02  0.51100000000E-03 0. -1.
        -11    1    3    3    0    0  0.11603441840E+02  0.18244160327E+01  0.30187187322E+00  0.11749871628E+02  0.51100000000E-03 0.  1.
        -12    1    3    3    0    0 -0.44316053838E+02 -0.14722257181E+01  0.82990592397E+01  0.45110469524E+02  0.00000000000E+00 0.  1.
</event>
<event>
 7    1  0.3622165E-015  0.9000774E+02  0.7816164E-02  0.1186339E+00
        -11   -1    0    0    0    0  0.00000000000E+00  0.00000000000E+00  0.45593999997E+02  0.45594000000E+02  0.51100000000E-03 0.  1.
         11   -1    0    0    0    0 -0.00000000000E+00 -0.00000000000E+00 -0.45593999997E+02  0.45594000000E+02  0.51100000000E-03 0. -1.
    9900012    2    1    2    0    0  0.10640772878E+01  0.19420432648E+00 -0.47225897126E+00  0.90007743955E+02  0.90000005376E+02 0.  0.
        -12    1    1    2    0    0 -0.10640772878E+01 -0.19420432648E+00  0.47225897126E+00  0.11802560446E+01  0.00000000000E+00 0.  1.
         11    1    3    3    0    0  0.24128866469E+01 -0.92109314957E+01 -0.16107585351E+01  0.96570090768E+01  0.51100000000E-03 0. -1.
        -11    1    3    3    0    0 -0.28783660920E+02 -0.16882239005E+02  0.18963583806E+02  0.38381331931E+02  0.51100000000E-03 0.  1.
         12    1    3    3    0    0  0.27434851561E+02  0.26287374827E+02 -0.17825084242E+02  0.41969402947E+02  0.00000000000E+00 0. -1.
</event>
<event>
 7    1  0.3622165E-015  0.9000775E+02  0.7816164E-02  0.1186339E+00
        -11   -1    0    0    0    0  0.00000000000E+00  0.00000000000E+00  0.45593999997E+02  0.45594000000E+02  0.51100000000E-03 0. -1.
         11   -1    0    0    0    0 -0.00000000000E+00 -0.00000000000E+00 -0.45593999997E+02  0.45594000000E+02  0.51100000000E-03 0.  1.
    9900012    2    1    2    0    0  0.13054676333E+00 -0.63366900670E+00 -0.98712161200E+00  0.90007750897E+02  0.90000012409E+02 0.  0.
        -12    1    1    2    0    0 -0.13054676333E+00  0.63366900670E+00  0.98712161200E+00  0.11802491027E+01  0.00000000000E+00 0.  1.
         11    1    3    3    0    0 -0.31405447255E+02 -0.21159571846E+02 -0.13170415226E+02  0.40093508646E+02  0.51100000000E-03 0. -1.
        -11    1    3    3    0    0  0.19422908165E+01  0.50055885444E+01 -0.89060515916E+01  0.10399334859E+02  0.51100000000E-03 0.  1.
        -12    1    3    3    0    0  0.29593703202E+02  0.15520314295E+02  0.21089345206E+02  0.39514907393E+02  0.00000000000E+00 0.  1.
</event>
<event>
 7    1  0.3622165E-015  0.9000773E+02  0.7816164E-02  0.1186339E+00
        -11   -1    0    0    0    0  0.00000000000E+00  0.00000000000E+00  0.45593999997E+02  0.45594000000E+02  0.51100000000E-03 0.  1.
         11   -1    0    0    0    0 -0.00000000000E+00 -0.00000000000E+00 -0.45593999997E+02  0.45594000000E+02  0.51100000000E-03 0. -1.
    9900012    2    1    2    0    0  0.72765524935E+00  0.38741078928E+00 -0.84467530595E+00  0.90007726449E+02  0.89999987639E+02 0.  0.
        -12    1    1    2    0    0 -0.72765524935E+00 -0.38741078928E+00  0.84467530595E+00  0.11802735505E+01  0.00000000000E+00 0.  1.
         11    1    3    3    0    0 -0.32425526937E+00 -0.13055253156E+02 -0.43536159965E+00  0.13066534217E+02  0.51100000000E-03 0. -1.
        -11    1    3    3    0    0 -0.17832490443E+02 -0.24584644824E+02  0.12078338880E+02  0.32684686734E+02  0.51100000000E-03 0.  1.
         12    1    3    3    0    0  0.18884400962E+02  0.38027308769E+02 -0.12487652586E+02  0.44256505499E+02  0.00000000000E+00 0. -1.
</event>
<event>
 7    1  0.3622165E-015  0.9000765E+02  0.7816164E-02  0.1186339E+00
        -11   -1    0    0    0    0  0.00000000000E+00  0.00000000000E+00  0.45593999997E+02  0.45594000000E+02  0.51100000000E-03 0. -1.
         11   -1    0    0    0    0 -0.00000000000E+00 -0.00000000000E+00 -0.45593999997E+02  0.45594000000E+02  0.51100000000E-03 0.  1.
    9900012    2    1    2    0    0  0.11030084685E+01 -0.11654251833E+00 -0.40376485109E+00  0.90007645860E+02  0.89999905986E+02 0.  0.
        -12    1    1    2    0    0 -0.11030084685E+01  0.11654251833E+00  0.40376485109E+00  0.11803541397E+01  0.00000000000E+00 0.  1.
         11    1    3    3    0    0  0.37338421825E+02  0.19850522357E+01  0.54152325509E+01  0.37781250913E+02  0.51100000000E-03 0. -1.
        -11    1    3    3    0    0 -0.10396822702E+01  0.10441630285E+01  0.12388151230E+02  0.12475476216E+02  0.51100000000E-03 0.  1.
        -12    1    3    3    0    0 -0.35195731086E+02 -0.31457577825E+01 -0.18207148632E+02  0.39750918731E+02  0.00000000000E+00 0.  1.
</event>
<event>
 7    1  0.3622165E-015  0.9000770E+02  0.7816164E-02  0.1186339E+00
        -11   -1    0    0    0    0  0.00000000000E+00  0.00000000000E+00  0.45593999997E+02  0.45594000000E+02  0.51100000000E-03 0. -1.
         11   -1    0    0    0    0 -0.00000000000E+00 -0.00000000000E+00 -0.45593999997E+02  0.45594000000E+02  0.51100000000E-03 0.  1.
    9900012    2    1    2    0    0 -0.11130084657E+01  0.31398088545E+00 -0.23608942539E+00  0.90007699166E+02  0.89999959995E+02 0.  0.
        -12    1    1    2    0    0  0.11130084657E+01 -0.31398088545E+00  0.23608942539E+00  0.11803008337E+01  0.00000000000E+00 0.  1.
         11    1    3    3    0    0 -0.46785071294E+01  0.59910174053E+01 -0.93759777992E+01  0.12070197946E+02  0.51100000000E-03 0. -1.
        -11    1    3    3    0    0  0.11418719671E+01  0.34362895491E+02 -0.63020718079E+01  0.34954664459E+02  0.51100000000E-03 0.  1.
         12    1    3    3    0    0  0.24236266966E+01 -0.40039932011E+02  0.15441960182E+02  0.42982836761E+02  0.00000000000E+00 0. -1.
</event>
<event>
 7    1  0.3622165E-015  0.9000891E+02  0.7816164E-02  0.1186337E+00
        -11   -1    0    0    0    0  0.00000000000E+00  0.00000000000E+00  0.45593999997E+02  0.45594000000E+02  0.51100000000E-03 0.  1.
         11   -1    0    0    0    0 -0.00000000000E+00 -0.00000000000E+00 -0.45593999997E+02  0.45594000000E+02  0.51100000000E-03 0. -1.
    9900012    2    1    2    0    0 -0.86365544475E+00  0.13736462315E+00 -0.79087405542E+00  0.90008910716E+02  0.90001187530E+02 0.  0.
        -12    1    1    2    0    0  0.86365544475E+00 -0.13736462315E+00  0.79087405542E+00  0.11790892835E+01  0.00000000000E+00 0.  1.
         11    1    3    3    0    0  0.65919819638E+01 -0.28211078224E+01 -0.68208667944E+01  0.98963174790E+01  0.51100000000E-03 0. -1.
        -11    1    3    3    0    0 -0.15108523760E+02 -0.34865579271E+02  0.14381333302E+02  0.40628793434E+02  0.51100000000E-03 0.  1.
         12    1    3    3    0    0  0.76528863518E+01  0.37824051716E+02 -0.83513405627E+01  0.39483799804E+02  0.00000000000E+00 0. -1.
</event>
<event>
 7    1  0.3622165E-015  0.9000774E+02  0.7816164E-02  0.1186339E+00
        -11   -1    0    0    0    0  0.00000000000E+00  0.00000000000E+00  0.45593999997E+02  0.45594000000E+02  0.51100000000E-03 0.  1.
         11   -1    0    0    0    0 -0.00000000000E+00 -0.00000000000E+00 -0.45593999997E+02  0.45594000000E+02  0.51100000000E-03 0. -1.
    9900012    2    1    2    0    0 -0.11549976752E-01  0.20927607188E+00 -0.11615047976E+01  0.90007735932E+02  0.89999997246E+02 0.  0.
        -12    1    1    2    0    0  0.11549976752E-01 -0.20927607188E+00  0.11615047976E+01  0.11802640684E+01  0.00000000000E+00 0.  1.
         11    1    3    3    0    0 -0.64004325069E+01 -0.85229183025E+01  0.51116653167E+01  0.11820947307E+02  0.51100000000E-03 0. -1.
        -11    1    3    3    0    0 -0.51108274629E+01 -0.23219870737E+00  0.34503938886E+02  0.34881173611E+02  0.51100000000E-03 0.  1.
         12    1    3    3    0    0  0.11499709993E+02  0.89643930817E+01 -0.40777109000E+02  0.43305615013E+02  0.00000000000E+00 0. -1.
</event>
<event>
 7    1  0.3622165E-015  0.9000776E+02  0.7816164E-02  0.1186339E+00
        -11   -1    0    0    0    0  0.00000000000E+00  0.00000000000E+00  0.45593999997E+02  0.45594000000E+02  0.51100000000E-03 0.  1.
         11   -1    0    0    0    0 -0.00000000000E+00 -0.00000000000E+00 -0.45593999997E+02  0.45594000000E+02  0.51100000000E-03 0. -1.
    9900012    2    1    2    0    0  0.30657172510E+00  0.11229186453E+01 -0.19502374106E+00  0.90007759869E+02  0.90000021500E+02 0.  0.
        -12    1    1    2    0    0 -0.30657172510E+00 -0.11229186453E+01  0.19502374106E+00  0.11802401307E+01  0.00000000000E+00 0.  1.
         11    1    3    3    0    0  0.62491160670E+01  0.93522513361E+01 -0.13857405833E+01  0.11332975509E+02  0.51100000000E-03 0. -1.
        -11    1    3    3    0    0 -0.34114379498E+02  0.19247156950E+02  0.29727882618E+01  0.39282074913E+02  0.51100000000E-03 0.  1.
         12    1    3    3    0    0  0.28171835156E+02 -0.27476489640E+02 -0.17820714195E+01  0.39392709447E+02  0.00000000000E+00 0. -1.
</event>
<event>
 7    1  0.3622165E-015  0.9000774E+02  0.7816164E-02  0.1186339E+00
        -11   -1    0    0    0    0  0.00000000000E+00  0.00000000000E+00  0.45593999997E+02  0.45594000000E+02  0.51100000000E-03 0.  1.
         11   -1    0    0    0    0 -0.00000000000E+00 -0.00000000000E+00 -0.45593999997E+02  0.45594000000E+02  0.51100000000E-03 0. -1.
    9900012    2    1    2    0    0  0.10608867461E+01  0.49167998187E+00 -0.16059508911E+00  0.90007737031E+02  0.89999998360E+02 0.  0.
        -12    1    1    2    0    0 -0.10608867461E+01 -0.49167998187E+00  0.16059508911E+00  0.11802629687E+01  0.00000000000E+00 0.  1.
         11    1    3    3    0    0  0.23735040276E+02  0.35714055602E+02 -0.17168145386E+01  0.42916120012E+02  0.51100000000E-03 0. -1.
        -11    1    3    3    0    0 -0.17819342188E+01 -0.14350575684E+01  0.66582855266E+01  0.70404152008E+01  0.51100000000E-03 0.  1.
        -12    1    3    3    0    0 -0.20892219311E+02 -0.33787318052E+02 -0.51020660771E+01  0.40051201819E+02  0.00000000000E+00 0.  1.
</event>
<event>
 7    1  0.3622165E-015  0.9000770E+02  0.7816164E-02  0.1186339E+00
        -11   -1    0    0    0    0  0.00000000000E+00  0.00000000000E+00  0.45593999997E+02  0.45594000000E+02  0.51100000000E-03 0. -1.
         11   -1    0    0    0    0 -0.00000000000E+00 -0.00000000000E+00 -0.45593999997E+02  0.45594000000E+02  0.51100000000E-03 0.  1.
    9900012    2    1    2    0    0  0.40711178070E+00 -0.10667636240E+01  0.29895639147E+00  0.90007703615E+02  0.89999964503E+02 0.  0.
        -12    1    1    2    0    0 -0.40711178070E+00  0.10667636240E+01 -0.29895639147E+00  0.11802963846E+01  0.00000000000E+00 0.  1.
         11    1    3    3    0    0 -0.37932601520E+02  0.54103116801E+01  0.20299365055E+02  0.43361480053E+02  0.51100000000E-03 0. -1.
        -11    1    3    3    0    0  0.52803876511E+01  0.48373292954E+01 -0.41566939303E+01  0.82801179430E+01  0.51100000000E-03 0.  1.
        -12    1    3    3    0    0  0.33059325649E+02 -0.11314404600E+02 -0.15843714733E+02  0.38366105619E+02  0.00000000000E+00 0.  1.
</event>
<event>
 7    1  0.3622165E-015  0.9000781E+02  0.7816164E-02  0.1186339E+00
        -11   -1    0    0    0    0  0.00000000000E+00  0.00000000000E+00  0.45593999997E+02  0.45594000000E+02  0.51100000000E-03 0. -1.
         11   -1    0    0    0    0 -0.00000000000E+00 -0.00000000000E+00 -0.45593999997E+02  0.45594000000E+02  0.51100000000E-03 0.  1.
    9900012    2    1    2    0    0 -0.30437676624E-01 -0.28431486735E+00  0.11450294935E+01  0.90007807670E+02  0.90000069931E+02 0.  0.
        -12    1    1    2    0    0  0.30437676624E-01  0.28431486735E+00 -0.11450294935E+01  0.11801923305E+01  0.00000000000E+00 0.  1.
         11    1    3    3    0    0  0.31191706826E+02  0.18395473353E+02  0.22447840465E+02  0.42605416985E+02  0.51100000000E-03 0. -1.
        -11    1    3    3    0    0 -0.16651249481E+01  0.23252642804E+01 -0.84670054508E+01  0.89369836428E+01  0.51100000000E-03 0.  1.
        -12    1    3    3    0    0 -0.29557019555E+02 -0.21005052501E+02 -0.12835805521E+02  0.38465407042E+02  0.00000000000E+00 0.  1.
</event>
<event>
 7    1  0.3622165E-015  0.9000757E+02  0.7816164E-02  0.1186339E+00
        -11   -1    0    0    0    0  0.00000000000E+00  0.00000000000E+00  0.45593999997E+02  0.45594000000E+02  0.51100000000E-03 0.  1.
         11   -1    0    0    0    0 -0.00000000000E+00 -0.00000000000E+00 -0.45593999997E+02  0.45594000000E+02  0.51100000000E-03 0. -1.
    9900012    2    1    2    0    0  0.81163556625E+00  0.85692013449E+00 -0.18536245912E-01  0.90007572958E+02  0.89999832121E+02 0.  0.
        -12    1    1    2    0    0 -0.81163556625E+00 -0.85692013449E+00  0.18536245912E-01  0.11804270421E+01  0.00000000000E+00 0.  1.
         11    1    3    3    0    0  0.30361185173E+01 -0.88647162198E+01 -0.39183247726E+00  0.93784189638E+01  0.51100000000E-03 0. -1.
        -11    1    3    3    0    0  0.21128795331E+02 -0.25578513062E+01  0.32629045461E+02  0.38956683680E+02  0.51100000000E-03 0.  1.
         12    1    3    3    0    0 -0.23353278282E+02  0.12279487660E+02 -0.32255749229E+02  0.41672470314E+02  0.00000000000E+00 0. -1.
</event>
<event>
 7    1  0.3622165E-015  0.9000773E+02  0.7816164E-02  0.1186339E+00
        -11   -1    0    0    0    0  0.00000000000E+00  0.00000000000E+00  0.45593999997E+02  0.45594000000E+02  0.51100000000E-03 0.  1.
         11   -1    0    0    0    0 -0.00000000000E+00 -0.00000000000E+00 -0.45593999997E+02  0.45594000000E+02  0.51100000000E-03 0. -1.
    9900012    2    1    2    0    0 -0.90402658894E+00 -0.46921988719E+00 -0.59631930220E+00  0.90007733892E+02  0.89999995179E+02 0.  0.
        -12    1    1    2    0    0  0.90402658894E+00  0.46921988719E+00  0.59631930220E+00  0.11802661082E+01  0.00000000000E+00 0.  1.
         11    1    3    3    0    0  0.17953386153E+02 -0.21404068893E+02  0.24322783710E+01  0.28042364698E+02  0.51100000000E-03 0. -1.
        -11    1    3    3    0    0 -0.23931611232E+01 -0.15498091110E+02 -0.13438302168E+02  0.20652022023E+02  0.51100000000E-03 0.  1.
        -12    1    3    3    0    0 -0.16464251618E+02  0.36432940115E+02  0.10409704495E+02  0.41313347171E+02  0.00000000000E+00 0.  1.
</event>
<event>
 7    1  0.3866821E-015  0.9000768E+02  0.7816164E-02  0.1186339E+00
        -11   -1    0    0    0    0  0.00000000000E+00  0.00000000000E+00  0.45593999997E+02  0.45594000000E+02  0.51100000000E-03 0.  1.
         11   -1    0    0    0    0 -0.00000000000E+00 -0.00000000000E+00 -0.45593999997E+02  0.45594000000E+02  0.51100000000E-03 0. -1.
    9900012    2    1    2    0    0  0.90900858064E+00 -0.37699957033E+00 -0.65170491965E+00  0.90007684543E+02  0.89999945179E+02 0.  0.
        -12    1    1    2    0    0 -0.90900858064E+00  0.37699957033E+00  0.65170491965E+00  0.11803154570E+01  0.00000000000E+00 0.  1.
         11    1    3    3    0    0 -0.24592370275E+01  0.85411343712E+01  0.46061467568E+01  0.10010764772E+02  0.51100000000E-03 0. -1.
        -11    1    3    3    0    0  0.24066372250E+02 -0.20248442890E+02  0.26018038003E+02  0.40818231399E+02  0.51100000000E-03 0.  1.
         12    1    3    3    0    0 -0.20698126642E+02  0.11330308948E+02 -0.31275889679E+02  0.39178688373E+02  0.00000000000E+00 0. -1.
</event>
<event>
 7    1  0.3622165E-015  0.9000771E+02  0.7816164E-02  0.1186339E+00
        -11   -1    0    0    0    0  0.00000000000E+00  0.00000000000E+00  0.45593999997E+02  0.45594000000E+02  0.51100000000E-03 0. -1.
         11   -1    0    0    0    0 -0.00000000000E+00 -0.00000000000E+00 -0.45593999997E+02  0.45594000000E+02  0.51100000000E-03 0.  1.
    9900012    2    1    2    0    0 -0.97648508908E+00  0.65406609567E+00  0.10848354866E+00  0.90007705856E+02  0.89999966773E+02 0.  0.
        -12    1    1    2    0    0  0.97648508908E+00 -0.65406609567E+00 -0.10848354866E+00  0.11802941443E+01  0.00000000000E+00 0.  1.
         11    1    3    3    0    0 -0.33823240478E+02 -0.17405184132E+00 -0.72040725486E+01  0.34582373429E+02  0.51100000000E-03 0. -1.
        -11    1    3    3    0    0 -0.10201423483E+02 -0.42978350046E+01 -0.15459721984E+01  0.11177229402E+02  0.51100000000E-03 0.  1.
        -12    1    3    3    0    0  0.43048178871E+02  0.51259529416E+01  0.88585282957E+01  0.44248103025E+02  0.00000000000E+00 0.  1.
</event>
<event>
 7    1  0.3622165E-015  0.9000778E+02  0.7816164E-02  0.1186339E+00
        -11   -1    0    0    0    0  0.00000000000E+00  0.00000000000E+00  0.45593999997E+02  0.45594000000E+02  0.51100000000E-03 0. -1.
         11   -1    0    0    0    0 -0.00000000000E+00 -0.00000000000E+00 -0.45593999997E+02  0.45594000000E+02  0.51100000000E-03 0.  1.
    9900012    2    1    2    0    0 -0.98767734391E+00  0.64469269145E+00 -0.42341959606E-01  0.90007776274E+02  0.90000038121E+02 0.  0.
        -12    1    1    2    0    0  0.98767734391E+00 -0.64469269145E+00  0.42341959606E-01  0.11802237261E+01  0.00000000000E+00 0.  1.
         11    1    3    3    0    0  0.35754730962E+01  0.18357877333E+01 -0.11521420045E+02  0.12202345864E+02  0.51100000000E-03 0. -1.
        -11    1    3    3    0    0  0.90918140538E+01 -0.38916036777E+01 -0.31296604312E+02  0.32821991160E+02  0.51100000000E-03 0.  1.
         12    1    3    3    0    0 -0.13654964494E+02  0.27005086358E+01  0.42775682397E+02  0.44983439250E+02  0.00000000000E+00 0. -1.
</event>
<event>
 7    1  0.3622165E-015  0.9000783E+02  0.7816164E-02  0.1186339E+00
        -11   -1    0    0    0    0  0.00000000000E+00  0.00000000000E+00  0.45593999997E+02  0.45594000000E+02  0.51100000000E-03 0.  1.
         11   -1    0    0    0    0 -0.00000000000E+00 -0.00000000000E+00 -0.45593999997E+02  0.45594000000E+02  0.51100000000E-03 0. -1.
    9900012    2    1    2    0    0 -0.69618723695E+00  0.15284440918E+00 -0.94062026647E+00  0.90007828585E+02  0.90000091123E+02 0.  0.
        -12    1    1    2    0    0  0.69618723695E+00 -0.15284440918E+00  0.94062026647E+00  0.11801714147E+01  0.00000000000E+00 0.  1.
         11    1    3    3    0    0  0.37351820954E+01  0.13994312744E+01 -0.91030992994E+01  0.99386322144E+01  0.51100000000E-03 0. -1.
        -11    1    3    3    0    0  0.85134282271E+01 -0.36701340045E+02  0.16954250471E+02  0.41314808853E+02  0.51100000000E-03 0.  1.
         12    1    3    3    0    0 -0.12944797559E+02  0.35454753180E+02 -0.87917714378E+01  0.38754387518E+02  0.00000000000E+00 0. -1.
</event>
<event>
 7    1  0.3622165E-015  0.9000776E+02  0.7816164E-02  0.1186339E+00
        -11   -1    0    0    0    0  0.00000000000E+00  0.00000000000E+00  0.45593999997E+02  0.45594000000E+02  0.51100000000E-03 0.  1.
         11   -1    0    0    0    0 -0.00000000000E+00 -0.00000000000E+00 -0.45593999997E+02  0.45594000000E+02  0.51100000000E-03 0. -1.
    9900012    2    1    2    0    0 -0.13347733140E-02  0.32045870387E+00 -0.11359056199E+01  0.90007755475E+02  0.90000017047E+02 0.  0.
        -12    1    1    2    0    0  0.13347733140E-02 -0.32045870387E+00  0.11359056199E+01  0.11802445255E+01  0.00000000000E+00 0.  1.
         11    1    3    3    0    0  0.38602763318E+01  0.67488646082E+01 -0.60528422058E+01  0.98532129728E+01  0.51100000000E-03 0. -1.
        -11    1    3    3    0    0  0.13965714979E+02  0.17729185778E+02  0.32377223933E+02  0.39467073025E+02  0.51100000000E-03 0.  1.
         12    1    3    3    0    0 -0.17827326084E+02 -0.24157591683E+02 -0.27460287348E+02  0.40687469477E+02  0.00000000000E+00 0. -1.
</event>
<event>
 7    1  0.3622165E-015  0.9000722E+02  0.7816164E-02  0.1186340E+00
        -11   -1    0    0    0    0  0.00000000000E+00  0.00000000000E+00  0.45593999997E+02  0.45594000000E+02  0.51100000000E-03 0. -1.
         11   -1    0    0    0    0 -0.00000000000E+00 -0.00000000000E+00 -0.45593999997E+02  0.45594000000E+02  0.51100000000E-03 0.  1.
    9900012    2    1    2    0    0 -0.56894993036E+00 -0.10266056385E+01 -0.12887888671E+00  0.90007223591E+02  0.89999478141E+02 0.  0.
        -12    1    1    2    0    0  0.56894993036E+00  0.10266056385E+01  0.12887888671E+00  0.11807764089E+01  0.00000000000E+00 0.  1.
         11    1    3    3    0    0 -0.39146538750E+01 -0.16134435652E+01 -0.96812510037E+01  0.10566661552E+02  0.51100000000E-03 0. -1.
        -11    1    3    3    0    0  0.16496409149E+02  0.20450116498E+02 -0.25791740858E+02  0.36817830956E+02  0.51100000000E-03 0.  1.
         12    1    3    3    0    0 -0.13150705204E+02 -0.19863278571E+02  0.35344112975E+02  0.42622731083E+02  0.00000000000E+00 0. -1.
</event>
<event>
 7    1  0.3622165E-015  0.9000767E+02  0.7816164E-02  0.1186339E+00
        -11   -1    0    0    0    0  0.00000000000E+00  0.00000000000E+00  0.45593999997E+02  0.45594000000E+02  0.51100000000E-03 0. -1.
         11   -1    0    0    0    0 -0.00000000000E+00 -0.00000000000E+00 -0.45593999997E+02  0.45594000000E+02  0.51100000000E-03 0.  1.
    9900012    2    1    2    0    0 -0.47545703529E+00 -0.24051115659E+00  0.10532198568E+01  0.90007670777E+02  0.89999931231E+02 0.  0.
        -12    1    1    2    0    0  0.47545703529E+00  0.24051115659E+00 -0.10532198568E+01  0.11803292234E+01  0.00000000000E+00 0.  1.
         11    1    3    3    0    0  0.63956880041E+01 -0.47588430844E+01  0.56763847251E+01  0.97863556218E+01  0.51100000000E-03 0. -1.
        -11    1    3    3    0    0  0.14704714328E+02 -0.31828221623E+02 -0.12505916308E+02  0.37224484659E+02  0.51100000000E-03 0.  1.
         12    1    3    3    0    0 -0.21575859368E+02  0.36346553550E+02  0.78827514401E+01  0.42996830496E+02  0.00000000000E+00 0. -1.
</event>
<event>
 7    1  0.3622165E-015  0.9000764E+02  0.7816164E-02  0.1186339E+00
        -11   -1    0    0    0    0  0.00000000000E+00  0.00000000000E+00  0.45593999997E+02  0.45594000000E+02  0.51100000000E-03 0.  1.
         11   -1    0    0    0    0 -0.00000000000E+00 -0.00000000000E+00 -0.45593999997E+02  0.45594000000E+02  0.51100000000E-03 0. -1.
    9900012    2    1    2    0    0 -0.53312845121E-01  0.11176799015E+01 -0.37577150371E+00  0.90007637833E+02  0.89999897853E+02 0.  0.
        -12    1    1    2    0    0  0.53312845121E-01 -0.11176799015E+01  0.37577150371E+00  0.11803621667E+01  0.00000000000E+00 0.  1.
         11    1    3    3    0    0 -0.20249661240E+00  0.10034299071E+02  0.39605715266E+00  0.10044153735E+02  0.51100000000E-03 0. -1.
        -11    1    3    3    0    0  0.23539883502E+02  0.14746505002E+02  0.25393344303E+02  0.37635189121E+02  0.51100000000E-03 0.  1.
         12    1    3    3    0    0 -0.23390699734E+02 -0.23663124172E+02 -0.26165172959E+02  0.42328294977E+02  0.00000000000E+00 0. -1.
</event>
<event>
 7    1  0.3622165E-015  0.9000772E+02  0.7816164E-02  0.1186339E+00
        -11   -1    0    0    0    0  0.00000000000E+00  0.00000000000E+00  0.45593999997E+02  0.45594000000E+02  0.51100000000E-03 0.  1.
         11   -1    0    0    0    0 -0.00000000000E+00 -0.00000000000E+00 -0.45593999997E+02  0.45594000000E+02  0.51100000000E-03 0. -1.
    9900012    2    1    2    0    0  0.83018964482E-01  0.32351467008E+00 -0.11320330408E+01  0.90007723466E+02  0.89999984616E+02 0.  0.
        -12    1    1    2    0    0 -0.83018964482E-01 -0.32351467008E+00  0.11320330408E+01  0.11802765335E+01  0.00000000000E+00 0.  1.
         11    1    3    3    0    0 -0.76064814112E+01 -0.23246405120E+02  0.35447495603E+02  0.43067143570E+02  0.51100000000E-03 0. -1.
        -11    1    3    3    0    0 -0.17546457054E+01 -0.35356982539E+00 -0.92103515323E+01  0.93826632031E+01  0.51100000000E-03 0.  1.
        -12    1    3    3    0    0  0.94441460811E+01  0.23923489616E+02 -0.27369177112E+02  0.37557916693E+02  0.00000000000E+00 0.  1.
</event>
<event>
 7    1  0.3622165E-015  0.9000770E+02  0.7816164E-02  0.1186339E+00
        -11   -1    0    0    0    0  0.00000000000E+00  0.00000000000E+00  0.45593999997E+02  0.45594000000E+02  0.51100000000E-03 0. -1.
         11   -1    0    0    0    0 -0.00000000000E+00 -0.00000000000E+00 -0.45593999997E+02  0.45594000000E+02  0.51100000000E-03 0.  1.
    9900012    2    1    2    0    0 -0.47370559029E+00 -0.10638743331E+01  0.19203266419E+00  0.90007702526E+02  0.89999963399E+02 0.  0.
        -12    1    1    2    0    0  0.47370559029E+00  0.10638743331E+01 -0.19203266419E+00  0.11802974740E+01  0.00000000000E+00 0.  1.
         11    1    3    3    0    0 -0.76460935460E+01 -0.28339746564E+01  0.33671419335E+01  0.88222335000E+01  0.51100000000E-03 0. -1.
        -11    1    3    3    0    0 -0.26691240544E+02  0.27093400368E+02 -0.72048127893E+01  0.38708965277E+02  0.51100000000E-03 0.  1.
         12    1    3    3    0    0  0.33863628499E+02 -0.25323300044E+02  0.40297035201E+01  0.42476503749E+02  0.00000000000E+00 0. -1.
</event>
<event>
 7    1  0.3622165E-015  0.9000768E+02  0.7816164E-02  0.1186339E+00
        -11   -1    0    0    0    0  0.00000000000E+00  0.00000000000E+00  0.45593999997E+02  0.45594000000E+02  0.51100000000E-03 0.  1.
         11   -1    0    0    0    0 -0.00000000000E+00 -0.00000000000E+00 -0.45593999997E+02  0.45594000000E+02  0.51100000000E-03 0. -1.
    9900012    2    1    2    0    0 -0.10116526500E+01  0.24342814495E+00 -0.55718584293E+00  0.90007680378E+02  0.89999940959E+02 0.  0.
        -12    1    1    2    0    0  0.10116526500E+01 -0.24342814495E+00  0.55718584293E+00  0.11803196218E+01  0.00000000000E+00 0.  1.
         11    1    3    3    0    0 -0.73083001721E+01  0.12014864509E+01  0.19642208447E+01  0.76624398781E+01  0.51100000000E-03 0. -1.
        -11    1    3    3    0    0 -0.12702399484E+02 -0.36383794500E+02 -0.13228966375E+02  0.40744778886E+02  0.51100000000E-03 0.  1.
         12    1    3    3    0    0  0.18999047006E+02  0.35425736194E+02  0.10707559687E+02  0.41600461614E+02  0.00000000000E+00 0. -1.
</event>
<event>
 7    1  0.3622165E-015  0.9000768E+02  0.7816164E-02  0.1186339E+00
        -11   -1    0    0    0    0  0.00000000000E+00  0.00000000000E+00  0.45593999997E+02  0.45594000000E+02  0.51100000000E-03 0. -1.
         11   -1    0    0    0    0 -0.00000000000E+00 -0.00000000000E+00 -0.45593999997E+02  0.45594000000E+02  0.51100000000E-03 0.  1.
    9900012    2    1    2    0    0 -0.56873353912E+00  0.85940170305E+00  0.57543035620E+00  0.90007682576E+02  0.89999943186E+02 0.  0.
        -12    1    1    2    0    0  0.56873353912E+00 -0.85940170305E+00 -0.57543035620E+00  0.11803174237E+01  0.00000000000E+00 0.  1.
         11    1    3    3    0    0 -0.18516532623E+02  0.79200522642E+01  0.18621551598E+02  0.27429024635E+02  0.51100000000E-03 0. -1.
        -11    1    3    3    0    0 -0.18456007343E+02  0.63268055721E+01 -0.13046248711E+02  0.23470348985E+02  0.51100000000E-03 0.  1.
        -12    1    3    3    0    0  0.36403806427E+02 -0.13387456133E+02 -0.49998725315E+01  0.39108308956E+02  0.00000000000E+00 0.  1.
</event>
<event>
 7    1  0.3943199E-015  0.9000825E+02  0.7816164E-02  0.1186338E+00
        -11   -1    0    0    0    0  0.00000000000E+00  0.00000000000E+00  0.45593999997E+02  0.45594000000E+02  0.51100000000E-03 0.  1.
         11   -1    0    0    0    0 -0.00000000000E+00 -0.00000000000E+00 -0.45593999997E+02  0.45594000000E+02  0.51100000000E-03 0. -1.
    9900012    2    1    2    0    0  0.11587013771E+01 -0.22186195021E+00 -0.18695944654E-02  0.90008247864E+02  0.90000515935E+02 0.  0.
        -12    1    1    2    0    0 -0.11587013771E+01  0.22186195021E+00  0.18695944654E-02  0.11797521357E+01  0.00000000000E+00 0.  1.
         11    1    3    3    0    0 -0.26337364462E+01  0.19604009384E+01  0.88553283694E+01  0.94443941202E+01  0.51100000000E-03 0. -1.
        -11    1    3    3    0    0  0.87244349263E+01  0.30835503973E+02  0.18850730085E+02  0.37179215902E+02  0.51100000000E-03 0.  1.
         12    1    3    3    0    0 -0.49319971030E+01 -0.33017766862E+02 -0.27707928048E+02  0.43384637842E+02  0.00000000000E+00 0. -1.
</event>
<event>
 7    1  0.3622165E-015  0.9000763E+02  0.7816164E-02  0.1186339E+00
        -11   -1    0    0    0    0  0.00000000000E+00  0.00000000000E+00  0.45593999997E+02  0.45594000000E+02  0.51100000000E-03 0. -1.
         11   -1    0    0    0    0 -0.00000000000E+00 -0.00000000000E+00 -0.45593999997E+02  0.45594000000E+02  0.51100000000E-03 0.  1.
    9900012    2    1    2    0    0 -0.49478972565E-01 -0.57721491450E+00  0.10284208371E+01  0.90007629446E+02  0.89999889355E+02 0.  0.
        -12    1    1    2    0    0  0.49478972565E-01  0.57721491450E+00 -0.10284208371E+01  0.11803705539E+01  0.00000000000E+00 0.  1.
         11    1    3    3    0    0  0.19440089342E+02  0.20800363921E+02  0.21476247601E+02  0.35662324996E+02  0.51100000000E-03 0. -1.
        -11    1    3    3    0    0  0.31776245289E+01  0.54153845166E+01  0.72834481484E+01  0.96162520922E+01  0.51100000000E-03 0.  1.
        -12    1    3    3    0    0 -0.22667192843E+02 -0.26792963352E+02 -0.27731274913E+02  0.44729052358E+02  0.00000000000E+00 0.  1.
</event>
<event>
 7    1  0.3622165E-015  0.9000766E+02  0.7816164E-02  0.1186339E+00
        -11   -1    0    0    0    0  0.00000000000E+00  0.00000000000E+00  0.45593999997E+02  0.45594000000E+02  0.51100000000E-03 0.  1.
         11   -1    0    0    0    0 -0.00000000000E+00 -0.00000000000E+00 -0.45593999997E+02  0.45594000000E+02  0.51100000000E-03 0. -1.
    9900012    2    1    2    0    0  0.10964439862E+00  0.11591073419E+01 -0.19406782864E+00  0.90007655116E+02  0.89999915363E+02 0.  0.
        -12    1    1    2    0    0 -0.10964439862E+00 -0.11591073419E+01  0.19406782864E+00  0.11803448844E+01  0.00000000000E+00 0.  1.
         11    1    3    3    0    0  0.31831055492E+02 -0.11434765692E+02 -0.18951858671E+02  0.38770386992E+02  0.51100000000E-03 0. -1.
        -11    1    3    3    0    0  0.46572374756E+01 -0.49485431284E+01  0.54593508415E+01  0.87167913747E+01  0.51100000000E-03 0.  1.
        -12    1    3    3    0    0 -0.36378648569E+02  0.17542416162E+02  0.13298440001E+02  0.42520476749E+02  0.00000000000E+00 0.  1.
</event>
<event>
 7    1  0.3622165E-015  0.9000765E+02  0.7816164E-02  0.1186339E+00
        -11   -1    0    0    0    0  0.00000000000E+00  0.00000000000E+00  0.45593999997E+02  0.45594000000E+02  0.51100000000E-03 0. -1.
         11   -1    0    0    0    0 -0.00000000000E+00 -0.00000000000E+00 -0.45593999997E+02  0.45594000000E+02  0.51100000000E-03 0.  1.
    9900012    2    1    2    0    0 -0.25773117224E+00  0.54955888422E+00  0.10123214948E+01  0.90007646183E+02  0.89999906313E+02 0.  0.
        -12    1    1    2    0    0  0.25773117224E+00 -0.54955888422E+00 -0.10123214948E+01  0.11803538170E+01  0.00000000000E+00 0.  1.
         11    1    3    3    0    0  0.28319526821E+02  0.21142515277E+02  0.46674125354E+01  0.35648089593E+02  0.51100000000E-03 0. -1.
        -11    1    3    3    0    0 -0.16024736145E+01  0.78327449560E+01  0.10052177554E+02  0.12843912529E+02  0.51100000000E-03 0.  1.
        -12    1    3    3    0    0 -0.26974784378E+02 -0.28425701349E+02 -0.13707268594E+02  0.41515644061E+02  0.00000000000E+00 0.  1.
</event>
<event>
 7    1  0.3622165E-015  0.9000787E+02  0.7816164E-02  0.1186339E+00
        -11   -1    0    0    0    0  0.00000000000E+00  0.00000000000E+00  0.45593999997E+02  0.45594000000E+02  0.51100000000E-03 0.  1.
         11   -1    0    0    0    0 -0.00000000000E+00 -0.00000000000E+00 -0.45593999997E+02  0.45594000000E+02  0.51100000000E-03 0. -1.
    9900012    2    1    2    0    0  0.74056648230E+00 -0.77454228172E+00 -0.49432256706E+00  0.90007868964E+02  0.90000132035E+02 0.  0.
        -12    1    1    2    0    0 -0.74056648230E+00  0.77454228172E+00  0.49432256706E+00  0.11801310356E+01  0.00000000000E+00 0.  1.
         11    1    3    3    0    0  0.12189098514E+02 -0.48875214381E+01 -0.54146834556E+01  0.14204956373E+02  0.51100000000E-03 0. -1.
        -11    1    3    3    0    0 -0.10395220382E+02  0.28548193733E+02  0.28625010121E+02  0.41742678123E+02  0.51100000000E-03 0.  1.
         12    1    3    3    0    0 -0.10533116491E+01 -0.24435214576E+02 -0.23704649232E+02  0.34060234468E+02  0.00000000000E+00 0. -1.
</event>
<event>
 7    1  0.3622165E-015  0.9000767E+02  0.7816164E-02  0.1186339E+00
        -11   -1    0    0    0    0  0.00000000000E+00  0.00000000000E+00  0.45593999997E+02  0.45594000000E+02  0.51100000000E-03 0.  1.
         11   -1    0    0    0    0 -0.00000000000E+00 -0.00000000000E+00 -0.45593999997E+02  0.45594000000E+02  0.51100000000E-03 0. -1.
    9900012    2    1    2    0    0  0.74288262609E+00  0.81330530920E+00  0.42407057406E+00  0.90007671243E+02  0.89999931704E+02 0.  0.
        -12    1    1    2    0    0 -0.74288262609E+00 -0.81330530920E+00 -0.42407057406E+00  0.11803287567E+01  0.00000000000E+00 0.  1.
         11    1    3    3    0    0  0.30278906046E+02 -0.20827788281E+02 -0.12870864512E+02  0.38939286968E+02  0.51100000000E-03 0. -1.
        -11    1    3    3    0    0  0.34889836024E+01 -0.24721342083E+01  0.89849514271E+01  0.99505681512E+01  0.51100000000E-03 0.  1.
        -12    1    3    3    0    0 -0.33025007022E+02  0.24113227799E+02  0.43099836585E+01  0.41117816124E+02  0.00000000000E+00 0.  1.
</event>
<event>
 7    1  0.3622165E-015  0.9000773E+02  0.7816164E-02  0.1186339E+00
        -11   -1    0    0    0    0  0.00000000000E+00  0.00000000000E+00  0.45593999997E+02  0.45594000000E+02  0.51100000000E-03 0.  1.
         11   -1    0    0    0    0 -0.00000000000E+00 -0.00000000000E+00 -0.45593999997E+02  0.45594000000E+02  0.51100000000E-03 0. -1.
    9900012    2    1    2    0    0  0.24132457113E+00 -0.11402791818E+01 -0.18590983286E+00  0.90007730274E+02  0.89999991513E+02 0.  0.
        -12    1    1    2    0    0 -0.24132457113E+00  0.11402791818E+01  0.18590983286E+00  0.11802697264E+01  0.00000000000E+00 0.  1.
         11    1    3    3    0    0 -0.61148902986E+01 -0.70538255875E+01 -0.36609893415E+01  0.10027521229E+02  0.51100000000E-03 0. -1.
        -11    1    3    3    0    0 -0.10952638488E+02 -0.33915124559E+02 -0.41779469562E+01  0.35883857161E+02  0.51100000000E-03 0.  1.
         12    1    3    3    0    0  0.17308853358E+02  0.39828670965E+02  0.76530264649E+01  0.44096351884E+02  0.00000000000E+00 0. -1.
</event>
<event>
 7    1  0.3622165E-015  0.9000774E+02  0.7816164E-02  0.1186339E+00
        -11   -1    0    0    0    0  0.00000000000E+00  0.00000000000E+00  0.45593999997E+02  0.45594000000E+02  0.51100000000E-03 0.  1.
         11   -1    0    0    0    0 -0.00000000000E+00 -0.00000000000E+00 -0.45593999997E+02  0.45594000000E+02  0.51100000000E-03 0. -1.
    9900012    2    1    2    0    0 -0.19061115783E+00 -0.11633068097E+01  0.58213424789E-01  0.90007744032E+02  0.90000005453E+02 0.  0.
        -12    1    1    2    0    0  0.19061115783E+00  0.11633068097E+01 -0.58213424789E-01  0.11802559679E+01  0.00000000000E+00 0.  1.
         11    1    3    3    0    0 -0.48874775257E+01  0.52847691022E+01 -0.41563545254E+01  0.83121299454E+01  0.51100000000E-03 0. -1.
        -11    1    3    3    0    0 -0.12402041068E+02  0.30621157894E+02 -0.15347061409E+02  0.36427986872E+02  0.51100000000E-03 0.  1.
         12    1    3    3    0    0  0.17098907436E+02 -0.37069233806E+02  0.19561629360E+02  0.45267627214E+02  0.00000000000E+00 0. -1.
</event>
<event>
 7    1  0.3622165E-015  0.9000771E+02  0.7816164E-02  0.1186339E+00
        -11   -1    0    0    0    0  0.00000000000E+00  0.00000000000E+00  0.45593999997E+02  0.45594000000E+02  0.51100000000E-03 0. -1.
         11   -1    0    0    0    0 -0.00000000000E+00 -0.00000000000E+00 -0.45593999997E+02  0.45594000000E+02  0.51100000000E-03 0.  1.
    9900012    2    1    2    0    0 -0.58023211889E+00  0.63389227281E+00  0.80906781141E+00  0.90007712133E+02  0.89999973133E+02 0.  0.
        -12    1    1    2    0    0  0.58023211889E+00 -0.63389227281E+00 -0.80906781141E+00  0.11802878669E+01  0.00000000000E+00 0.  1.
         11    1    3    3    0    0  0.83822448443E+01  0.40787887375E+02 -0.16680555781E+01  0.41673687079E+02  0.51100000000E-03 0. -1.
        -11    1    3    3    0    0 -0.37039109247E+01 -0.29316942203E+01  0.90151856688E+01  0.10177787581E+02  0.51100000000E-03 0.  1.
        -12    1    3    3    0    0 -0.52585660385E+01 -0.37222300882E+02 -0.65380622793E+01  0.38156237473E+02  0.00000000000E+00 0.  1.
</event>
<event>
 7    1  0.3622165E-015  0.9000772E+02  0.7816164E-02  0.1186339E+00
        -11   -1    0    0    0    0  0.00000000000E+00  0.00000000000E+00  0.45593999997E+02  0.45594000000E+02  0.51100000000E-03 0. -1.
         11   -1    0    0    0    0 -0.00000000000E+00 -0.00000000000E+00 -0.45593999997E+02  0.45594000000E+02  0.51100000000E-03 0.  1.
    9900012    2    1    2    0    0 -0.11101901431E+01 -0.37132418576E+00 -0.15052746115E+00  0.90007719389E+02  0.89999980485E+02 0.  0.
        -12    1    1    2    0    0  0.11101901431E+01  0.37132418576E+00  0.15052746115E+00  0.11802806112E+01  0.00000000000E+00 0.  1.
         11    1    3    3    0    0  0.14476164804E+02  0.36469404529E+02 -0.12639564845E+02  0.41222996178E+02  0.51100000000E-03 0. -1.
        -11    1    3    3    0    0 -0.10670984088E+01 -0.82004312182E+01 -0.73299785825E+01  0.11050536524E+02  0.51100000000E-03 0.  1.
        -12    1    3    3    0    0 -0.14519256538E+02 -0.28640297497E+02  0.19819015966E+02  0.37734186688E+02  0.00000000000E+00 0.  1.
</event>
<event>
 7    1  0.3623829E-015  0.9000768E+02  0.7816164E-02  0.1186339E+00
        -11   -1    0    0    0    0  0.00000000000E+00  0.00000000000E+00  0.45593999997E+02  0.45594000000E+02  0.51100000000E-03 0. -1.
         11   -1    0    0    0    0 -0.00000000000E+00 -0.00000000000E+00 -0.45593999997E+02  0.45594000000E+02  0.51100000000E-03 0.  1.
    9900012    2    1    2    0    0  0.17784582670E+00 -0.11631755887E+01  0.92405754001E-01  0.90007684190E+02  0.89999944821E+02 0.  0.
        -12    1    1    2    0    0 -0.17784582670E+00  0.11631755887E+01 -0.92405754001E-01  0.11803158101E+01  0.00000000000E+00 0.  1.
         11    1    3    3    0    0  0.34618573838E+01  0.71660166514E+01  0.51520108350E+01  0.94804782105E+01  0.51100000000E-03 0. -1.
        -11    1    3    3    0    0  0.37751849254E+02  0.50989041875E+00 -0.74454648628E+01  0.38482425309E+02  0.51100000000E-03 0.  1.
         12    1    3    3    0    0 -0.41035860811E+02 -0.88390826589E+01  0.23858597818E+01  0.42044780671E+02  0.00000000000E+00 0. -1.
</event>
<event>
 7    1  0.3622165E-015  0.9000774E+02  0.7816164E-02  0.1186339E+00
        -11   -1    0    0    0    0  0.00000000000E+00  0.00000000000E+00  0.45593999997E+02  0.45594000000E+02  0.51100000000E-03 0.  1.
         11   -1    0    0    0    0 -0.00000000000E+00 -0.00000000000E+00 -0.45593999997E+02  0.45594000000E+02  0.51100000000E-03 0. -1.
    9900012    2    1    2    0    0 -0.11375124657E+00 -0.24736440552E+00 -0.11484234854E+01  0.90007743673E+02  0.90000005090E+02 0.  0.
        -12    1    1    2    0    0  0.11375124657E+00  0.24736440552E+00  0.11484234854E+01  0.11802563268E+01  0.00000000000E+00 0.  1.
         11    1    3    3    0    0 -0.75448574839E+01  0.51441306826E+01  0.37684155752E+01  0.98786593797E+01  0.51100000000E-03 0. -1.
        -11    1    3    3    0    0  0.16532315545E+02  0.41942483564E+01  0.34537488588E+02  0.38519440478E+02  0.51100000000E-03 0.  1.
         12    1    3    3    0    0 -0.91012093072E+01 -0.95857434446E+01 -0.39454327648E+02  0.41609643815E+02  0.00000000000E+00 0. -1.
</event>
<event>
 7    1  0.3622165E-015  0.9000774E+02  0.7816164E-02  0.1186339E+00
        -11   -1    0    0    0    0  0.00000000000E+00  0.00000000000E+00  0.45593999997E+02  0.45594000000E+02  0.51100000000E-03 0. -1.
         11   -1    0    0    0    0 -0.00000000000E+00 -0.00000000000E+00 -0.45593999997E+02  0.45594000000E+02  0.51100000000E-03 0.  1.
    9900012    2    1    2    0    0  0.22500560560E+00  0.92802027571E+00  0.69365711034E+00  0.90007741833E+02  0.90000003225E+02 0.  0.
        -12    1    1    2    0    0 -0.22500560560E+00 -0.92802027571E+00 -0.69365711034E+00  0.11802581673E+01  0.00000000000E+00 0.  1.
         11    1    3    3    0    0  0.91871355583E+01  0.54385804651E+01 -0.62133660300E+00  0.10694282429E+02  0.51100000000E-03 0. -1.
        -11    1    3    3    0    0  0.81719469971E+01 -0.27480522840E+02 -0.26744111451E+02  0.39207235950E+02  0.51100000000E-03 0.  1.
         12    1    3    3    0    0 -0.17134076950E+02  0.22969962651E+02  0.28059105164E+02  0.40106223454E+02  0.00000000000E+00 0. -1.
</event>
<event>
 7    1  0.3622165E-015  0.9000773E+02  0.7816164E-02  0.1186339E+00
        -11   -1    0    0    0    0  0.00000000000E+00  0.00000000000E+00  0.45593999997E+02  0.45594000000E+02  0.51100000000E-03 0. -1.
         11   -1    0    0    0    0 -0.00000000000E+00 -0.00000000000E+00 -0.45593999997E+02  0.45594000000E+02  0.51100000000E-03 0.  1.
    9900012    2    1    2    0    0 -0.82793991329E+00 -0.13359914948E+00  0.83049001802E+00  0.90007725920E+02  0.89999987103E+02 0.  0.
        -12    1    1    2    0    0  0.82793991329E+00  0.13359914948E+00 -0.83049001802E+00  0.11802740795E+01  0.00000000000E+00 0.  1.
         11    1    3    3    0    0 -0.29212343306E+02  0.22213857063E+02 -0.12119743956E+02  0.38648475272E+02  0.51100000000E-03 0. -1.
        -11    1    3    3    0    0 -0.45704283669E+01  0.25297707723E+01 -0.41462723183E+01  0.66693425475E+01  0.51100000000E-03 0.  1.
        -12    1    3    3    0    0  0.32954831759E+02 -0.24877226984E+02  0.17096506292E+02  0.44689908101E+02  0.00000000000E+00 0.  1.
</event>
<event>
 7    1  0.3622165E-015  0.9000772E+02  0.7816164E-02  0.1186339E+00
        -11   -1    0    0    0    0  0.00000000000E+00  0.00000000000E+00  0.45593999997E+02  0.45594000000E+02  0.51100000000E-03 0. -1.
         11   -1    0    0    0    0 -0.00000000000E+00 -0.00000000000E+00 -0.45593999997E+02  0.45594000000E+02  0.51100000000E-03 0.  1.
    9900012    2    1    2    0    0  0.81799219270E+00  0.71243933098E+00  0.46515774998E+00  0.90007723439E+02  0.89999984589E+02 0.  0.
        -12    1    1    2    0    0 -0.81799219270E+00 -0.71243933098E+00 -0.46515774998E+00  0.11802765608E+01  0.00000000000E+00 0.  1.
         11    1    3    3    0    0  0.26110649827E+02  0.23358939395E+02  0.13688395484E+01  0.35061086778E+02  0.51100000000E-03 0. -1.
        -11    1    3    3    0    0  0.78285884121E+01 -0.10238500264E+02 -0.12270892281E+02  0.17795743362E+02  0.51100000000E-03 0.  1.
        -12    1    3    3    0    0 -0.33121246047E+02 -0.12407999801E+02  0.11367210483E+02  0.37150893299E+02  0.00000000000E+00 0.  1.
</event>
<event>
 7    1  0.3622165E-015  0.9000777E+02  0.7816164E-02  0.1186339E+00
        -11   -1    0    0    0    0  0.00000000000E+00  0.00000000000E+00  0.45593999997E+02  0.45594000000E+02  0.51100000000E-03 0.  1.
         11   -1    0    0    0    0 -0.00000000000E+00 -0.00000000000E+00 -0.45593999997E+02  0.45594000000E+02  0.51100000000E-03 0. -1.
    9900012    2    1    2    0    0  0.96281421790E+00  0.61298752071E+00  0.30029220547E+00  0.90007771070E+02  0.90000032848E+02 0.  0.
        -12    1    1    2    0    0 -0.96281421790E+00 -0.61298752071E+00 -0.30029220547E+00  0.11802289301E+01  0.00000000000E+00 0.  1.
         11    1    3    3    0    0 -0.57720567397E+01 -0.35657564201E+01 -0.42590193345E+01  0.80106493998E+01  0.51100000000E-03 0. -1.
        -11    1    3    3    0    0 -0.12407420427E+02  0.85001182917E+01  0.39309703929E+02  0.42088584151E+02  0.51100000000E-03 0.  1.
         12    1    3    3    0    0  0.19142291384E+02 -0.43213743509E+01 -0.34750392389E+02  0.39908537519E+02  0.00000000000E+00 0. -1.
</event>
<event>
 7    1  0.3622165E-015  0.9000798E+02  0.7816164E-02  0.1186339E+00
        -11   -1    0    0    0    0  0.00000000000E+00  0.00000000000E+00  0.45593999997E+02  0.45594000000E+02  0.51100000000E-03 0. -1.
         11   -1    0    0    0    0 -0.00000000000E+00 -0.00000000000E+00 -0.45593999997E+02  0.45594000000E+02  0.51100000000E-03 0.  1.
    9900012    2    1    2    0    0 -0.10801248642E+01 -0.38931336364E+00  0.27241175619E+00  0.90007981872E+02  0.90000246432E+02 0.  0.
        -12    1    1    2    0    0  0.10801248642E+01  0.38931336364E+00 -0.27241175619E+00  0.11800181279E+01  0.00000000000E+00 0.  1.
         11    1    3    3    0    0 -0.32479052538E+01  0.56468866716E+01  0.88145666233E+01  0.10960511057E+02  0.51100000000E-03 0. -1.
        -11    1    3    3    0    0  0.25325138942E+02  0.23762074519E+02 -0.19398824355E+02  0.39778301051E+02  0.51100000000E-03 0.  1.
         12    1    3    3    0    0 -0.23157358553E+02 -0.29798274554E+02  0.10856669488E+02  0.39269169764E+02  0.00000000000E+00 0. -1.
</event>
<event>
 7    1  0.3622165E-015  0.9000775E+02  0.7816164E-02  0.1186339E+00
        -11   -1    0    0    0    0  0.00000000000E+00  0.00000000000E+00  0.45593999997E+02  0.45594000000E+02  0.51100000000E-03 0. -1.
         11   -1    0    0    0    0 -0.00000000000E+00 -0.00000000000E+00 -0.45593999997E+02  0.45594000000E+02  0.51100000000E-03 0.  1.
    9900012    2    1    2    0    0 -0.88279040967E+00  0.18902067805E+00  0.76022284306E+00  0.90007751511E+02  0.90000013031E+02 0.  0.
        -12    1    1    2    0    0  0.88279040967E+00 -0.18902067805E+00 -0.76022284306E+00  0.11802484888E+01  0.00000000000E+00 0.  1.
         11    1    3    3    0    0  0.35837807637E+02  0.67167280381E+01  0.50513268304E+01  0.36810036604E+02  0.51100000000E-03 0. -1.
        -11    1    3    3    0    0  0.35421029593E+01  0.13854228302E+01  0.92393034332E+01  0.99915273099E+01  0.51100000000E-03 0.  1.
        -12    1    3    3    0    0 -0.40262701006E+02 -0.79131301903E+01 -0.13530407421E+02  0.43206187597E+02  0.00000000000E+00 0.  1.
</event>
<event>
 7    1  0.3622165E-015  0.9000776E+02  0.7816164E-02  0.1186339E+00
        -11   -1    0    0    0    0  0.00000000000E+00  0.00000000000E+00  0.45593999997E+02  0.45594000000E+02  0.51100000000E-03 0.  1.
         11   -1    0    0    0    0 -0.00000000000E+00 -0.00000000000E+00 -0.45593999997E+02  0.45594000000E+02  0.51100000000E-03 0. -1.
    9900012    2    1    2    0    0  0.40023594574E+00  0.90778763281E+00  0.63928736235E+00  0.90007764629E+02  0.90000026322E+02 0.  0.
        -12    1    1    2    0    0 -0.40023594574E+00 -0.90778763281E+00 -0.63928736235E+00  0.11802353707E+01  0.00000000000E+00 0.  1.
         11    1    3    3    0    0 -0.27803978886E+01  0.15754214770E+02 -0.54035805589E+01  0.16885632311E+02  0.51100000000E-03 0. -1.
        -11    1    3    3    0    0 -0.30199006614E+02 -0.14544625202E+02  0.17521951982E+02  0.37822545185E+02  0.51100000000E-03 0.  1.
         12    1    3    3    0    0  0.33379640449E+02 -0.30180193554E+00 -0.11479084061E+02  0.35299587133E+02  0.00000000000E+00 0. -1.
</event>
<event>
 7    1  0.3622165E-015  0.9000776E+02  0.7816164E-02  0.1186339E+00
        -11   -1    0    0    0    0  0.00000000000E+00  0.00000000000E+00  0.45593999997E+02  0.45594000000E+02  0.51100000000E-03 0.  1.
         11   -1    0    0    0    0 -0.00000000000E+00 -0.00000000000E+00 -0.45593999997E+02  0.45594000000E+02  0.51100000000E-03 0. -1.
    9900012    2    1    2    0    0  0.50758189062E+00 -0.62043138276E+00 -0.86624935987E+00  0.90007761706E+02  0.90000023361E+02 0.  0.
        -12    1    1    2    0    0 -0.50758189062E+00  0.62043138276E+00  0.86624935987E+00  0.11802382937E+01  0.00000000000E+00 0.  1.
         11    1    3    3    0    0  0.27920030380E+01 -0.79182177305E+01 -0.42482018461E+01  0.94096053147E+01  0.51100000000E-03 0. -1.
        -11    1    3    3    0    0  0.15656749053E+02 -0.25094602111E+02 -0.20989142822E+02  0.36268677433E+02  0.51100000000E-03 0.  1.
         12    1    3    3    0    0 -0.17941170201E+02  0.32392388459E+02  0.24371095309E+02  0.44329478959E+02  0.00000000000E+00 0. -1.
</event>
<event>
 7    1  0.3622165E-015  0.9000772E+02  0.7816164E-02  0.1186339E+00
        -11   -1    0    0    0    0  0.00000000000E+00  0.00000000000E+00  0.45593999997E+02  0.45594000000E+02  0.51100000000E-03 0.  1.
         11   -1    0    0    0    0 -0.00000000000E+00 -0.00000000000E+00 -0.45593999997E+02  0.45594000000E+02  0.51100000000E-03 0. -1.
    9900012    2    1    2    0    0  0.19011355622E+00 -0.42372702998E+00 -0.10850703718E+01  0.90007718054E+02  0.89999979132E+02 0.  0.
        -12    1    1    2    0    0 -0.19011355622E+00  0.42372702998E+00  0.10850703718E+01  0.11802819460E+01  0.00000000000E+00 0.  1.
         11    1    3    3    0    0 -0.15491776603E+02  0.13954339295E+02 -0.29071980975E+02  0.35775673377E+02  0.51100000000E-03 0. -1.
        -11    1    3    3    0    0  0.34746291618E+00  0.37178835401E+01 -0.93104547734E+01  0.10031348705E+02  0.51100000000E-03 0.  1.
        -12    1    3    3    0    0  0.15334427243E+02 -0.18095949865E+02  0.37297365377E+02  0.44200695972E+02  0.00000000000E+00 0.  1.
</event>
<event>
 7    1  0.3622165E-015  0.9000766E+02  0.7816164E-02  0.1186339E+00
        -11   -1    0    0    0    0  0.00000000000E+00  0.00000000000E+00  0.45593999997E+02  0.45594000000E+02  0.51100000000E-03 0. -1.
         11   -1    0    0    0    0 -0.00000000000E+00 -0.00000000000E+00 -0.45593999997E+02  0.45594000000E+02  0.51100000000E-03 0.  1.
    9900012    2    1    2    0    0 -0.46558558211E+00  0.10842150608E+01 -0.30056412781E-01  0.90007662921E+02  0.89999923271E+02 0.  0.
        -12    1    1    2    0    0  0.46558558211E+00 -0.10842150608E+01  0.30056412781E-01  0.11803370791E+01  0.00000000000E+00 0.  1.
         11    1    3    3    0    0 -0.16709669548E+02 -0.11741997355E+02  0.29359499550E+02  0.35764056990E+02  0.51100000000E-03 0. -1.
        -11    1    3    3    0    0 -0.18095894107E+01 -0.41255628546E+01  0.81260149909E+01  0.92912325660E+01  0.51100000000E-03 0.  1.
        -12    1    3    3    0    0  0.18053673377E+02  0.16951775270E+02 -0.37515570953E+02  0.44952373365E+02  0.00000000000E+00 0.  1.
</event>
<event>
 7    1  0.3622165E-015  0.9000779E+02  0.7816164E-02  0.1186339E+00
        -11   -1    0    0    0    0  0.00000000000E+00  0.00000000000E+00  0.45593999997E+02  0.45594000000E+02  0.51100000000E-03 0. -1.
         11   -1    0    0    0    0 -0.00000000000E+00 -0.00000000000E+00 -0.45593999997E+02  0.45594000000E+02  0.51100000000E-03 0.  1.
    9900012    2    1    2    0    0  0.52060128500E+00  0.78006357541E+00  0.71649480771E+00  0.90007792523E+02  0.90000054584E+02 0.  0.
        -12    1    1    2    0    0 -0.52060128500E+00 -0.78006357541E+00 -0.71649480771E+00  0.11802074771E+01  0.00000000000E+00 0.  1.
         11    1    3    3    0    0  0.54319823725E+01 -0.11403340522E+01  0.28613429680E+02  0.29146786316E+02  0.51100000000E-03 0. -1.
        -11    1    3    3    0    0 -0.10406427501E+01 -0.57657448026E+00  0.16340827604E+02  0.16384078324E+02  0.51100000000E-03 0.  1.
        -12    1    3    3    0    0 -0.38707383375E+01  0.24969721079E+01 -0.44237762477E+02  0.44476927883E+02  0.00000000000E+00 0.  1.
</event>
<event>
 7    1  0.3622165E-015  0.9000777E+02  0.7816164E-02  0.1186339E+00
        -11   -1    0    0    0    0  0.00000000000E+00  0.00000000000E+00  0.45593999997E+02  0.45594000000E+02  0.51100000000E-03 0.  1.
         11   -1    0    0    0    0 -0.00000000000E+00 -0.00000000000E+00 -0.45593999997E+02  0.45594000000E+02  0.51100000000E-03 0. -1.
    9900012    2    1    2    0    0  0.10973012227E+01  0.55263232015E-01  0.43106690761E+00  0.90007770075E+02  0.90000031840E+02 0.  0.
        -12    1    1    2    0    0 -0.10973012227E+01 -0.55263232015E-01 -0.43106690761E+00  0.11802299255E+01  0.00000000000E+00 0.  1.
         11    1    3    3    0    0 -0.46893135508E+01 -0.69381175161E+01 -0.10891323938E+02  0.13738561556E+02  0.51100000000E-03 0. -1.
        -11    1    3    3    0    0 -0.27398065081E+02 -0.18844146358E+02  0.70836975891E+01  0.33999038132E+02  0.51100000000E-03 0.  1.
         12    1    3    3    0    0  0.33184679854E+02  0.25837527106E+02  0.42386932562E+01  0.42270170386E+02  0.00000000000E+00 0. -1.
</event>
<event>
 7    1  0.3622165E-015  0.9000656E+02  0.7816164E-02  0.1186341E+00
        -11   -1    0    0    0    0  0.00000000000E+00  0.00000000000E+00  0.45593999997E+02  0.45594000000E+02  0.51100000000E-03 0. -1.
         11   -1    0    0    0    0 -0.00000000000E+00 -0.00000000000E+00 -0.45593999997E+02  0.45594000000E+02  0.51100000000E-03 0.  1.
    9900012    2    1    2    0    0 -0.10139881055E+01 -0.14919471008E+00  0.58768284581E+00  0.90006559326E+02  0.89998805101E+02 0.  0.
        -12    1    1    2    0    0  0.10139881055E+01  0.14919471008E+00 -0.58768284581E+00  0.11814406743E+01  0.00000000000E+00 0.  1.
         11    1    3    3    0    0 -0.17801457877E+02 -0.11107660352E+02  0.16835095419E+02  0.26901532653E+02  0.51100000000E-03 0. -1.
        -11    1    3    3    0    0 -0.28814624355E+00  0.16539932391E+02  0.17990700394E+02  0.24440083729E+02  0.51100000000E-03 0.  1.
        -12    1    3    3    0    0  0.17075616015E+02 -0.55814667496E+01 -0.34238112967E+02  0.38664942944E+02  0.00000000000E+00 0.  1.
</event>
<event>
 7    1  0.3622165E-015  0.9000775E+02  0.7816164E-02  0.1186339E+00
        -11   -1    0    0    0    0  0.00000000000E+00  0.00000000000E+00  0.45593999997E+02  0.45594000000E+02  0.51100000000E-03 0.  1.
         11   -1    0    0    0    0 -0.00000000000E+00 -0.00000000000E+00 -0.45593999997E+02  0.45594000000E+02  0.51100000000E-03 0. -1.
    9900012    2    1    2    0    0  0.64769740855E+00  0.69140326599E+00 -0.70388047117E+00  0.90007746584E+02  0.90000008038E+02 0.  0.
        -12    1    1    2    0    0 -0.64769740855E+00 -0.69140326599E+00  0.70388047117E+00  0.11802534164E+01  0.00000000000E+00 0.  1.
         11    1    3    3    0    0 -0.61523264430E+01 -0.43450660541E+01  0.48374262091E+01  0.89516150646E+01  0.51100000000E-03 0. -1.
        -11    1    3    3    0    0 -0.11902004835E+02  0.11823695144E+02  0.33372009523E+02  0.37351686787E+02  0.51100000000E-03 0.  1.
         12    1    3    3    0    0  0.18702028687E+02 -0.67872258241E+01 -0.38913316204E+02  0.43704444732E+02  0.00000000000E+00 0. -1.
</event>
<event>
 7    1  0.3622165E-015  0.9000760E+02  0.7816164E-02  0.1186339E+00
        -11   -1    0    0    0    0  0.00000000000E+00  0.00000000000E+00  0.45593999997E+02  0.45594000000E+02  0.51100000000E-03 0. -1.
         11   -1    0    0    0    0 -0.00000000000E+00 -0.00000000000E+00 -0.45593999997E+02  0.45594000000E+02  0.51100000000E-03 0.  1.
    9900012    2    1    2    0    0  0.28822405164E+00 -0.81226136069E+00  0.80653524356E+00  0.90007601457E+02  0.89999860996E+02 0.  0.
        -12    1    1    2    0    0 -0.28822405164E+00  0.81226136069E+00 -0.80653524356E+00  0.11803985433E+01  0.00000000000E+00 0.  1.
         11    1    3    3    0    0  0.12053192539E+02 -0.26097535043E+01 -0.56076074321E+01  0.13547528376E+02  0.51100000000E-03 0. -1.
        -11    1    3    3    0    0  0.24709530532E+02  0.23039970722E+02  0.55807926672E+01  0.34242464821E+02  0.51100000000E-03 0.  1.
         12    1    3    3    0    0 -0.36474499019E+02 -0.21242478578E+02  0.83335000849E+00  0.42217608259E+02  0.00000000000E+00 0. -1.
</event>
<event>
 7    1  0.3622165E-015  0.9000740E+02  0.7816164E-02  0.1186340E+00
        -11   -1    0    0    0    0  0.00000000000E+00  0.00000000000E+00  0.45593999997E+02  0.45594000000E+02  0.51100000000E-03 0.  1.
         11   -1    0    0    0    0 -0.00000000000E+00 -0.00000000000E+00 -0.45593999997E+02  0.45594000000E+02  0.51100000000E-03 0. -1.
    9900012    2    1    2    0    0  0.93965613743E+00 -0.46919682608E+00 -0.53918700648E+00  0.90007397634E+02  0.89999654482E+02 0.  0.
        -12    1    1    2    0    0 -0.93965613743E+00  0.46919682608E+00  0.53918700648E+00  0.11806023658E+01  0.00000000000E+00 0.  1.
         11    1    3    3    0    0  0.30907124631E+01 -0.23310896710E+01  0.71230501193E+01  0.81070540794E+01  0.51100000000E-03 0. -1.
        -11    1    3    3    0    0  0.61697480686E+01  0.22457198582E+02  0.30119141599E+02  0.38073012099E+02  0.51100000000E-03 0.  1.
         12    1    3    3    0    0 -0.83208043943E+01 -0.20595305737E+02 -0.37781378725E+02  0.43827331456E+02  0.00000000000E+00 0. -1.
</event>
<event>
 7    1  0.3622165E-015  0.9000768E+02  0.7816164E-02  0.1186339E+00
        -11   -1    0    0    0    0  0.00000000000E+00  0.00000000000E+00  0.45593999997E+02  0.45594000000E+02  0.51100000000E-03 0.  1.
         11   -1    0    0    0    0 -0.00000000000E+00 -0.00000000000E+00 -0.45593999997E+02  0.45594000000E+02  0.51100000000E-03 0. -1.
    9900012    2    1    2    0    0 -0.43922658656E+00  0.55699934362E+00 -0.94339707525E+00  0.90007675339E+02  0.89999935854E+02 0.  0.
        -12    1    1    2    0    0  0.43922658656E+00 -0.55699934362E+00  0.94339707525E+00  0.11803246607E+01  0.00000000000E+00 0.  1.
         11    1    3    3    0    0 -0.11054041496E+02  0.15552096173E+02 -0.31772562676E+02  0.37061506553E+02  0.51100000000E-03 0. -1.
        -11    1    3    3    0    0 -0.23295684411E+01 -0.12698858031E+01 -0.87268847032E+01  0.91212946427E+01  0.51100000000E-03 0.  1.
        -12    1    3    3    0    0  0.12944383350E+02 -0.13725211026E+02  0.39556050304E+02  0.43824874143E+02  0.00000000000E+00 0.  1.
</event>
<event>
 7    1  0.3622165E-015  0.9000778E+02  0.7816164E-02  0.1186339E+00
        -11   -1    0    0    0    0  0.00000000000E+00  0.00000000000E+00  0.45593999997E+02  0.45594000000E+02  0.51100000000E-03 0. -1.
         11   -1    0    0    0    0 -0.00000000000E+00 -0.00000000000E+00 -0.45593999997E+02  0.45594000000E+02  0.51100000000E-03 0.  1.
    9900012    2    1    2    0    0  0.43507397915E+00  0.48895534271E+00 -0.98211548249E+00  0.90007780734E+02  0.90000042640E+02 0.  0.
        -12    1    1    2    0    0 -0.43507397915E+00 -0.48895534271E+00  0.98211548249E+00  0.11802192658E+01  0.00000000000E+00 0.  1.
         11    1    3    3    0    0  0.12515669213E+02 -0.36037004369E+02 -0.17129023798E+02  0.41817593382E+02  0.51100000000E-03 0. -1.
        -11    1    3    3    0    0  0.30276441448E+01  0.63624027540E+00  0.77644043405E+01  0.83580742866E+01  0.51100000000E-03 0.  1.
        -12    1    3    3    0    0 -0.15108239379E+02  0.35889719436E+02  0.83825039754E+01  0.39832113065E+02  0.00000000000E+00 0.  1.
</event>
<event>
 7    1  0.3622165E-015  0.9000779E+02  0.7816164E-02  0.1186339E+00
        -11   -1    0    0    0    0  0.00000000000E+00  0.00000000000E+00  0.45593999997E+02  0.45594000000E+02  0.51100000000E-03 0.  1.
         11   -1    0    0    0    0 -0.00000000000E+00 -0.00000000000E+00 -0.45593999997E+02  0.45594000000E+02  0.51100000000E-03 0. -1.
    9900012    2    1    2    0    0 -0.10199697187E+00 -0.89340137424E+00 -0.76441166991E+00  0.90007790443E+02  0.90000052477E+02 0.  0.
        -12    1    1    2    0    0  0.10199697187E+00  0.89340137424E+00  0.76441166991E+00  0.11802095572E+01  0.00000000000E+00 0.  1.
         11    1    3    3    0    0 -0.94630323354E+01  0.23976447286E+02 -0.31268533593E+02  0.40523329068E+02  0.51100000000E-03 0. -1.
        -11    1    3    3    0    0 -0.81491546774E+01 -0.19326462730E+01  0.13852749846E+01  0.84889828965E+01  0.51100000000E-03 0.  1.
        -12    1    3    3    0    0  0.17510190041E+02 -0.22937202387E+02  0.29118846939E+02  0.40995478478E+02  0.00000000000E+00 0.  1.
</event>
<event>
 7    1  0.3622165E-015  0.9000774E+02  0.7816164E-02  0.1186339E+00
        -11   -1    0    0    0    0  0.00000000000E+00  0.00000000000E+00  0.45593999997E+02  0.45594000000E+02  0.51100000000E-03 0.  1.
         11   -1    0    0    0    0 -0.00000000000E+00 -0.00000000000E+00 -0.45593999997E+02  0.45594000000E+02  0.51100000000E-03 0. -1.
    9900012    2    1    2    0    0  0.10421324412E+01 -0.47913773579E+00  0.27821164244E+00  0.90007739557E+02  0.90000000919E+02 0.  0.
        -12    1    1    2    0    0 -0.10421324412E+01  0.47913773579E+00 -0.27821164244E+00  0.11802604428E+01  0.00000000000E+00 0.  1.
         11    1    3    3    0    0  0.76696035820E+01  0.23817171835E+01 -0.61670761939E+01  0.10125622198E+02  0.51100000000E-03 0. -1.
        -11    1    3    3    0    0  0.17968315756E+02  0.22129093348E+02 -0.20957855745E+02  0.35380628333E+02  0.51100000000E-03 0.  1.
         12    1    3    3    0    0 -0.24595786897E+02 -0.24989948268E+02  0.27403143581E+02  0.44501489027E+02  0.00000000000E+00 0. -1.
</event>
<event>
 7    1  0.3622165E-015  0.9000781E+02  0.7816164E-02  0.1186339E+00
        -11   -1    0    0    0    0  0.00000000000E+00  0.00000000000E+00  0.45593999997E+02  0.45594000000E+02  0.51100000000E-03 0. -1.
         11   -1    0    0    0    0 -0.00000000000E+00 -0.00000000000E+00 -0.45593999997E+02  0.45594000000E+02  0.51100000000E-03 0.  1.
    9900012    2    1    2    0    0 -0.49183993137E+00  0.10711388558E+01  0.60091944316E-01  0.90007806792E+02  0.90000069042E+02 0.  0.
        -12    1    1    2    0    0  0.49183993137E+00 -0.10711388558E+01 -0.60091944316E-01  0.11801932080E+01  0.00000000000E+00 0.  1.
         11    1    3    3    0    0  0.32135197736E+02 -0.10844177572E+02 -0.51374947830E+01  0.34302492237E+02  0.51100000000E-03 0. -1.
        -11    1    3    3    0    0  0.32342637727E+01 -0.95275403811E+01 -0.69070237996E+01  0.12204157730E+02  0.51100000000E-03 0.  1.
        -12    1    3    3    0    0 -0.35861301440E+02  0.21442856809E+02  0.12104610527E+02  0.43501156825E+02  0.00000000000E+00 0.  1.
</event>
<event>
 7    1  0.3622165E-015  0.9000774E+02  0.7816164E-02  0.1186339E+00
        -11   -1    0    0    0    0  0.00000000000E+00  0.00000000000E+00  0.45593999997E+02  0.45594000000E+02  0.51100000000E-03 0.  1.
         11   -1    0    0    0    0 -0.00000000000E+00 -0.00000000000E+00 -0.45593999997E+02  0.45594000000E+02  0.51100000000E-03 0. -1.
    9900012    2    1    2    0    0 -0.11596683617E+01  0.41055850440E-01 -0.21564948497E+00  0.90007736897E+02  0.89999998224E+02 0.  0.
        -12    1    1    2    0    0  0.11596683617E+01 -0.41055850440E-01  0.21564948497E+00  0.11802631031E+01  0.00000000000E+00 0.  1.
         11    1    3    3    0    0 -0.76718247139E+01  0.20441016177E+01  0.77867635458E+01  0.11120653427E+02  0.51100000000E-03 0. -1.
        -11    1    3    3    0    0  0.87785580513E+01 -0.28943934697E+02  0.22818954254E+02  0.37888245020E+02  0.51100000000E-03 0.  1.
         12    1    3    3    0    0 -0.22664016991E+01  0.26940888930E+02 -0.30821367284E+02  0.40998838450E+02  0.00000000000E+00 0. -1.
</event>
<event>
 7    1  0.3622165E-015  0.9000770E+02  0.7816164E-02  0.1186339E+00
        -11   -1    0    0    0    0  0.00000000000E+00  0.00000000000E+00  0.45593999997E+02  0.45594000000E+02  0.51100000000E-03 0.  1.
         11   -1    0    0    0    0 -0.00000000000E+00 -0.00000000000E+00 -0.45593999997E+02  0.45594000000E+02  0.51100000000E-03 0. -1.
    9900012    2    1    2    0    0 -0.90793491423E+00  0.12307852047E+00 -0.74405622485E+00  0.90007697583E+02  0.89999958391E+02 0.  0.
        -12    1    1    2    0    0  0.90793491423E+00 -0.12307852047E+00  0.74405622485E+00  0.11803024174E+01  0.00000000000E+00 0.  1.
         11    1    3    3    0    0  0.24960336540E+02 -0.23691310280E+02 -0.85538765507E+01  0.35460758414E+02  0.51100000000E-03 0. -1.
        -11    1    3    3    0    0  0.57162412136E+01 -0.75229297498E+01  0.53577239810E+00  0.94634527503E+01  0.51100000000E-03 0.  1.
        -12    1    3    3    0    0 -0.31584512668E+02  0.31337318550E+02  0.72740479277E+01  0.45083486419E+02  0.00000000000E+00 0.  1.
</event>
<event>
 7    1  0.3622165E-015  0.9000825E+02  0.7816164E-02  0.1186338E+00
        -11   -1    0    0    0    0  0.00000000000E+00  0.00000000000E+00  0.45593999997E+02  0.45594000000E+02  0.51100000000E-03 0. -1.
         11   -1    0    0    0    0 -0.00000000000E+00 -0.00000000000E+00 -0.45593999997E+02  0.45594000000E+02  0.51100000000E-03 0.  1.
    9900012    2    1    2    0    0  0.32879954260E+00  0.70434692583E+00  0.88746493655E+00  0.90008250982E+02  0.90000519094E+02 0.  0.
        -12    1    1    2    0    0 -0.32879954260E+00 -0.70434692583E+00 -0.88746493655E+00  0.11797490177E+01  0.00000000000E+00 0.  1.
         11    1    3    3    0    0  0.73312399905E+01 -0.43672574347E+01  0.48733440723E+01  0.98269781727E+01  0.51100000000E-03 0. -1.
        -11    1    3    3    0    0  0.20235092773E+02 -0.27885346281E+02 -0.12378322083E+02  0.36609757915E+02  0.51100000000E-03 0.  1.
         12    1    3    3    0    0 -0.27237533221E+02  0.32956950642E+02  0.83924429472E+01  0.43571514894E+02  0.00000000000E+00 0. -1.
</event>
<event>
 7    1  0.3622165E-015  0.9000770E+02  0.7816164E-02  0.1186339E+00
        -11   -1    0    0    0    0  0.00000000000E+00  0.00000000000E+00  0.45593999997E+02  0.45594000000E+02  0.51100000000E-03 0. -1.
         11   -1    0    0    0    0 -0.00000000000E+00 -0.00000000000E+00 -0.45593999997E+02  0.45594000000E+02  0.51100000000E-03 0.  1.
    9900012    2    1    2    0    0  0.23392776577E+00 -0.10802490362E+01  0.41404996685E+00  0.90007704463E+02  0.89999965362E+02 0.  0.
        -12    1    1    2    0    0 -0.23392776577E+00  0.10802490362E+01 -0.41404996685E+00  0.11802955371E+01  0.00000000000E+00 0.  1.
         11    1    3    3    0    0 -0.60816373417E+01 -0.73005174928E+01 -0.19018103851E+01  0.96902400084E+01  0.51100000000E-03 0. -1.
        -11    1    3    3    0    0 -0.95495195385E+01 -0.34900648271E+02  0.20462844323E+01  0.36241355568E+02  0.51100000000E-03 0.  1.
         12    1    3    3    0    0  0.15865084646E+02  0.41120916728E+02  0.26957591960E+00  0.44076108886E+02  0.00000000000E+00 0. -1.
</event>
<event>
 7    1  0.3622165E-015  0.9000755E+02  0.7816164E-02  0.1186339E+00
        -11   -1    0    0    0    0  0.00000000000E+00  0.00000000000E+00  0.45593999997E+02  0.45594000000E+02  0.51100000000E-03 0.  1.
         11   -1    0    0    0    0 -0.00000000000E+00 -0.00000000000E+00 -0.45593999997E+02  0.45594000000E+02  0.51100000000E-03 0. -1.
    9900012    2    1    2    0    0 -0.23711640816E-01 -0.50964813397E+00 -0.10644946265E+01  0.90007554206E+02  0.89999813121E+02 0.  0.
        -12    1    1    2    0    0  0.23711640816E-01  0.50964813397E+00  0.10644946265E+01  0.11804457939E+01  0.00000000000E+00 0.  1.
         11    1    3    3    0    0  0.48706096804E+01  0.63353955340E+01  0.61776969082E+01  0.10100693767E+02  0.51100000000E-03 0. -1.
        -11    1    3    3    0    0  0.63049366549E+01  0.10899295222E+02  0.32561393537E+02  0.34911190353E+02  0.51100000000E-03 0.  1.
         12    1    3    3    0    0 -0.11199257976E+02 -0.17744338890E+02 -0.39803585072E+02  0.44995670085E+02  0.00000000000E+00 0. -1.
</event>
<event>
 7    1  0.3622165E-015  0.9000779E+02  0.7816164E-02  0.1186339E+00
        -11   -1    0    0    0    0  0.00000000000E+00  0.00000000000E+00  0.45593999997E+02  0.45594000000E+02  0.51100000000E-03 0.  1.
         11   -1    0    0    0    0 -0.00000000000E+00 -0.00000000000E+00 -0.45593999997E+02  0.45594000000E+02  0.51100000000E-03 0. -1.
    9900012    2    1    2    0    0  0.67520318996E+00  0.93979750597E+00 -0.23192263084E+00  0.90007785271E+02  0.90000047237E+02 0.  0.
        -12    1    1    2    0    0 -0.67520318996E+00 -0.93979750597E+00  0.23192263084E+00  0.11802147290E+01  0.00000000000E+00 0.  1.
         11    1    3    3    0    0  0.37584265776E+02 -0.19010503402E+02 -0.57183241470E+01  0.42505005644E+02  0.51100000000E-03 0. -1.
        -11    1    3    3    0    0 -0.17602659228E+01  0.94012311974E+01 -0.26271834278E+01  0.99188596708E+01  0.51100000000E-03 0.  1.
        -12    1    3    3    0    0 -0.35148796663E+02  0.10549069711E+02  0.81135849440E+01  0.37583919956E+02  0.00000000000E+00 0.  1.
</event>
<event>
 7    1  0.3622165E-015  0.9000767E+02  0.7816164E-02  0.1186339E+00
        -11   -1    0    0    0    0  0.00000000000E+00  0.00000000000E+00  0.45593999997E+02  0.45594000000E+02  0.51100000000E-03 0.  1.
         11   -1    0    0    0    0 -0.00000000000E+00 -0.00000000000E+00 -0.45593999997E+02  0.45594000000E+02  0.51100000000E-03 0. -1.
    9900012    2    1    2    0    0  0.76578766293E+00 -0.90394411623E-01 -0.89363403212E+00  0.90007667980E+02  0.89999928397E+02 0.  0.
        -12    1    1    2    0    0 -0.76578766293E+00  0.90394411623E-01  0.89363403212E+00  0.11803320201E+01  0.00000000000E+00 0.  1.
         11    1    3    3    0    0 -0.11951034315E+02 -0.16768398299E+02 -0.29209559095E+02  0.35738001420E+02  0.51100000000E-03 0. -1.
        -11    1    3    3    0    0 -0.20945031072E+00 -0.84357505115E+01 -0.56038906780E+01  0.10129627195E+02  0.51100000000E-03 0.  1.
        -12    1    3    3    0    0  0.12926272288E+02  0.25113754399E+02  0.33919815741E+02  0.44140039365E+02  0.00000000000E+00 0.  1.
</event>
<event>
 7    1  0.3622165E-015  0.9000776E+02  0.7816164E-02  0.1186339E+00
        -11   -1    0    0    0    0  0.00000000000E+00  0.00000000000E+00  0.45593999997E+02  0.45594000000E+02  0.51100000000E-03 0. -1.
         11   -1    0    0    0    0 -0.00000000000E+00 -0.00000000000E+00 -0.45593999997E+02  0.45594000000E+02  0.51100000000E-03 0.  1.
    9900012    2    1    2    0    0 -0.82790890201E+00  0.35929638606E+00  0.76054664528E+00  0.90007763480E+02  0.90000025158E+02 0.  0.
        -12    1    1    2    0    0  0.82790890201E+00 -0.35929638606E+00 -0.76054664528E+00  0.11802365198E+01  0.00000000000E+00 0.  1.
         11    1    3    3    0    0 -0.12612981724E+02  0.16734115555E+02  0.34710632165E+02  0.40545602930E+02  0.51100000000E-03 0. -1.
        -11    1    3    3    0    0 -0.80774274097E+01  0.24733856848E+01 -0.62137509434E+01  0.10486809398E+02  0.51100000000E-03 0.  1.
        -12    1    3    3    0    0  0.19862500232E+02 -0.18848204854E+02 -0.27736334577E+02  0.38975351152E+02  0.00000000000E+00 0.  1.
</event>
<event>
 7    1  0.3724917E-015  0.9000779E+02  0.7816164E-02  0.1186339E+00
        -11   -1    0    0    0    0  0.00000000000E+00  0.00000000000E+00  0.45593999997E+02  0.45594000000E+02  0.51100000000E-03 0. -1.
         11   -1    0    0    0    0 -0.00000000000E+00 -0.00000000000E+00 -0.45593999997E+02  0.45594000000E+02  0.51100000000E-03 0.  1.
    9900012    2    1    2    0    0  0.83718774104E+00 -0.35059527676E+00  0.75438521991E+00  0.90007789247E+02  0.90000051265E+02 0.  0.
        -12    1    1    2    0    0 -0.83718774104E+00  0.35059527676E+00 -0.75438521991E+00  0.11802107531E+01  0.00000000000E+00 0.  1.
         11    1    3    3    0    0  0.22544297865E+02  0.26560785576E+02  0.15034475568E+02  0.37944118813E+02  0.51100000000E-03 0. -1.
        -11    1    3    3    0    0 -0.46470881535E+01  0.86379644143E+01  0.81414694122E+00  0.98423926477E+01  0.51100000000E-03 0.  1.
        -12    1    3    3    0    0 -0.17060021971E+02 -0.35549345267E+02 -0.15094237289E+02  0.42221277786E+02  0.00000000000E+00 0.  1.
</event>
<event>
 7    1  0.3622165E-015  0.9000772E+02  0.7816164E-02  0.1186339E+00
        -11   -1    0    0    0    0  0.00000000000E+00  0.00000000000E+00  0.45593999997E+02  0.45594000000E+02  0.51100000000E-03 0.  1.
         11   -1    0    0    0    0 -0.00000000000E+00 -0.00000000000E+00 -0.45593999997E+02  0.45594000000E+02  0.51100000000E-03 0. -1.
    9900012    2    1    2    0    0  0.86412552721E-01  0.80609951466E+00 -0.85779120142E+00  0.90007716432E+02  0.89999977488E+02 0.  0.
        -12    1    1    2    0    0 -0.86412552721E-01 -0.80609951466E+00  0.85779120142E+00  0.11802835685E+01  0.00000000000E+00 0.  1.
         11    1    3    3    0    0 -0.14810198742E+00  0.24248965318E+01  0.10114727784E+02  0.10402392792E+02  0.51100000000E-03 0. -1.
        -11    1    3    3    0    0 -0.26850607575E+02 -0.25289521216E+02  0.96707013423E+01  0.38131843323E+02  0.51100000000E-03 0.  1.
         12    1    3    3    0    0  0.27085122115E+02  0.23670724199E+02 -0.20643220328E+02  0.41473480317E+02  0.00000000000E+00 0. -1.
</event>
<event>
 7    1  0.3622165E-015  0.9000766E+02  0.7816164E-02  0.1186339E+00
        -11   -1    0    0    0    0  0.00000000000E+00  0.00000000000E+00  0.45593999997E+02  0.45594000000E+02  0.51100000000E-03 0.  1.
         11   -1    0    0    0    0 -0.00000000000E+00 -0.00000000000E+00 -0.45593999997E+02  0.45594000000E+02  0.51100000000E-03 0. -1.
    9900012    2    1    2    0    0  0.11186596521E+01 -0.36308184293E+00  0.99835803179E-01  0.90007663171E+02  0.89999923525E+02 0.  0.
        -12    1    1    2    0    0 -0.11186596521E+01  0.36308184293E+00 -0.99835803179E-01  0.11803368289E+01  0.00000000000E+00 0.  1.
         11    1    3    3    0    0 -0.20944848603E+02  0.32772318226E+02  0.93944302212E+01  0.40012083729E+02  0.51100000000E-03 0. -1.
        -11    1    3    3    0    0  0.95689797304E+01  0.35985436185E+01 -0.32462281110E+01  0.10726270855E+02  0.51100000000E-03 0.  1.
        -12    1    3    3    0    0  0.12494528525E+02 -0.36733943687E+02 -0.60483663071E+01  0.39269308586E+02  0.00000000000E+00 0.  1.
</event>
<event>
 7    1  0.3622165E-015  0.9000779E+02  0.7816164E-02  0.1186339E+00
        -11   -1    0    0    0    0  0.00000000000E+00  0.00000000000E+00  0.45593999997E+02  0.45594000000E+02  0.51100000000E-03 0.  1.
         11   -1    0    0    0    0 -0.00000000000E+00 -0.00000000000E+00 -0.45593999997E+02  0.45594000000E+02  0.51100000000E-03 0. -1.
    9900012    2    1    2    0    0  0.65976095469E+00  0.55778305218E+00 -0.80404599426E+00  0.90007789675E+02  0.90000051699E+02 0.  0.
        -12    1    1    2    0    0 -0.65976095469E+00 -0.55778305218E+00  0.80404599426E+00  0.11802103251E+01  0.00000000000E+00 0.  1.
         11    1    3    3    0    0 -0.54508918886E+00 -0.11188309596E+02 -0.45031344371E+00  0.11210627828E+02  0.51100000000E-03 0. -1.
        -11    1    3    3    0    0  0.19719165266E+02  0.83180791223E+01  0.33678534883E+02  0.39903378694E+02  0.51100000000E-03 0.  1.
         12    1    3    3    0    0 -0.18514315123E+02  0.34280135263E+01 -0.34032267434E+02  0.38893783152E+02  0.00000000000E+00 0. -1.
</event>
<event>
 7    1  0.3622165E-015  0.9000764E+02  0.7816164E-02  0.1186339E+00
        -11   -1    0    0    0    0  0.00000000000E+00  0.00000000000E+00  0.45593999997E+02  0.45594000000E+02  0.51100000000E-03 0.  1.
         11   -1    0    0    0    0 -0.00000000000E+00 -0.00000000000E+00 -0.45593999997E+02  0.45594000000E+02  0.51100000000E-03 0. -1.
    9900012    2    1    2    0    0 -0.57396634884E+00  0.10314134316E+01 -0.29163301360E-02  0.90007635844E+02  0.89999895837E+02 0.  0.
        -12    1    1    2    0    0  0.57396634884E+00 -0.10314134316E+01  0.29163301360E-02  0.11803641563E+01  0.00000000000E+00 0.  1.
         11    1    3    3    0    0 -0.33334463734E+02 -0.73816502197E+01 -0.11671960739E+02  0.36081988584E+02  0.51100000000E-03 0. -1.
        -11    1    3    3    0    0 -0.12955566449E+01  0.20474472836E+01 -0.11821378956E+02  0.12067125096E+02  0.51100000000E-03 0.  1.
        -12    1    3    3    0    0  0.34056054030E+02  0.63656163676E+01  0.23490423365E+02  0.41858522164E+02  0.00000000000E+00 0.  1.
</event>
<event>
 7    1  0.3622165E-015  0.9000802E+02  0.7816164E-02  0.1186338E+00
        -11   -1    0    0    0    0  0.00000000000E+00  0.00000000000E+00  0.45593999997E+02  0.45594000000E+02  0.51100000000E-03 0.  1.
         11   -1    0    0    0    0 -0.00000000000E+00 -0.00000000000E+00 -0.45593999997E+02  0.45594000000E+02  0.51100000000E-03 0. -1.
    9900012    2    1    2    0    0  0.22181121304E+00  0.24178506723E+00 -0.11334447441E+01  0.90008018127E+02  0.90000283166E+02 0.  0.
        -12    1    1    2    0    0 -0.22181121304E+00 -0.24178506723E+00  0.11334447441E+01  0.11799818732E+01  0.00000000000E+00 0.  1.
         11    1    3    3    0    0  0.75908611613E+01 -0.53448683330E+01 -0.35874791986E+01  0.99528286396E+01  0.51100000000E-03 0. -1.
        -11    1    3    3    0    0  0.30460248075E+02 -0.86904712286E+00 -0.19174904923E+02  0.36003596136E+02  0.51100000000E-03 0.  1.
         12    1    3    3    0    0 -0.37829298023E+02  0.64557005231E+01  0.21628939378E+02  0.44051593351E+02  0.00000000000E+00 0. -1.
</event>
<event>
 7    1  0.4334887E-015  0.9000764E+02  0.7816164E-02  0.1186339E+00
        -11   -1    0    0    0    0  0.00000000000E+00  0.00000000000E+00  0.45593999997E+02  0.45594000000E+02  0.51100000000E-03 0. -1.
         11   -1    0    0    0    0 -0.00000000000E+00 -0.00000000000E+00 -0.45593999997E+02  0.45594000000E+02  0.51100000000E-03 0.  1.
    9900012    2    1    2    0    0 -0.86962381374E+00  0.26100828332E+00  0.75424020331E+00  0.90007640230E+02  0.89999900281E+02 0.  0.
        -12    1    1    2    0    0  0.86962381374E+00 -0.26100828332E+00 -0.75424020331E+00  0.11803597696E+01  0.00000000000E+00 0.  1.
         11    1    3    3    0    0  0.79274145245E+01 -0.30251734564E+01  0.36283230618E+01  0.92282340666E+01  0.51100000000E-03 0. -1.
        -11    1    3    3    0    0  0.11236307176E+02 -0.23200413191E+02 -0.28797522086E+02  0.38649851872E+02  0.51100000000E-03 0.  1.
         12    1    3    3    0    0 -0.20033345514E+02  0.26486594930E+02  0.25923439227E+02  0.42129554292E+02  0.00000000000E+00 0. -1.
</event>
<event>
 7    1  0.3622165E-015  0.9000774E+02  0.7816164E-02  0.1186339E+00
        -11   -1    0    0    0    0  0.00000000000E+00  0.00000000000E+00  0.45593999997E+02  0.45594000000E+02  0.51100000000E-03 0.  1.
         11   -1    0    0    0    0 -0.00000000000E+00 -0.00000000000E+00 -0.45593999997E+02  0.45594000000E+02  0.51100000000E-03 0. -1.
    9900012    2    1    2    0    0  0.11554155371E+01 -0.22879041012E+00 -0.75391442614E-01  0.90007739866E+02  0.90000001232E+02 0.  0.
        -12    1    1    2    0    0 -0.11554155371E+01  0.22879041012E+00  0.75391442614E-01  0.11802601343E+01  0.00000000000E+00 0.  1.
         11    1    3    3    0    0  0.26391475100E+02 -0.19199712094E+02 -0.13210601501E+02  0.35208790020E+02  0.51100000000E-03 0. -1.
        -11    1    3    3    0    0  0.11473784298E+02 -0.80814408181E+00  0.28453825967E+01  0.11848925072E+02  0.51100000000E-03 0.  1.
        -12    1    3    3    0    0 -0.36709843861E+02  0.19779065765E+02  0.10289827461E+02  0.42950024773E+02  0.00000000000E+00 0.  1.
</event>
<event>
 7    1  0.3622165E-015  0.9000707E+02  0.7816164E-02  0.1186340E+00
        -11   -1    0    0    0    0  0.00000000000E+00  0.00000000000E+00  0.45593999997E+02  0.45594000000E+02  0.51100000000E-03 0. -1.
         11   -1    0    0    0    0 -0.00000000000E+00 -0.00000000000E+00 -0.45593999997E+02  0.45594000000E+02  0.51100000000E-03 0.  1.
    9900012    2    1    2    0    0  0.11057976940E+01 -0.40897500372E+00  0.67502833576E-01  0.90007065740E+02  0.89999318205E+02 0.  0.
        -12    1    1    2    0    0 -0.11057976940E+01  0.40897500372E+00 -0.67502833576E-01  0.11809342599E+01  0.00000000000E+00 0.  1.
         11    1    3    3    0    0  0.44150965379E+01  0.87555420195E+00 -0.61898064031E+01  0.76533245174E+01  0.51100000000E-03 0. -1.
        -11    1    3    3    0    0  0.23844023550E+02  0.29399664854E+02 -0.85139433095E+01  0.38799033281E+02  0.51100000000E-03 0.  1.
         12    1    3    3    0    0 -0.27153322394E+02 -0.30684194060E+02  0.14771252546E+02  0.43554707942E+02  0.00000000000E+00 0. -1.
</event>
<event>
 7    1  0.3622165E-015  0.9000760E+02  0.7816164E-02  0.1186339E+00
        -11   -1    0    0    0    0  0.00000000000E+00  0.00000000000E+00  0.45593999997E+02  0.45594000000E+02  0.51100000000E-03 0. -1.
         11   -1    0    0    0    0 -0.00000000000E+00 -0.00000000000E+00 -0.45593999997E+02  0.45594000000E+02  0.51100000000E-03 0.  1.
    9900012    2    1    2    0    0 -0.64493581011E+00  0.69079498298E+00  0.70725807151E+00  0.90007595880E+02  0.89999855345E+02 0.  0.
        -12    1    1    2    0    0  0.64493581011E+00 -0.69079498298E+00 -0.70725807151E+00  0.11804041204E+01  0.00000000000E+00 0.  1.
         11    1    3    3    0    0 -0.26891938688E+01  0.20048989597E+02  0.31959712579E+02  0.37823497669E+02  0.51100000000E-03 0. -1.
        -11    1    3    3    0    0 -0.95347648910E+01  0.64770574562E+01 -0.24245978714E+01  0.11778908690E+02  0.51100000000E-03 0.  1.
        -12    1    3    3    0    0  0.11579022950E+02 -0.25835252070E+02 -0.28827856636E+02  0.40405189521E+02  0.00000000000E+00 0.  1.
</event>
<event>
 7    1  0.3622165E-015  0.9000822E+02  0.7816164E-02  0.1186338E+00
        -11   -1    0    0    0    0  0.00000000000E+00  0.00000000000E+00  0.45593999997E+02  0.45594000000E+02  0.51100000000E-03 0.  1.
         11   -1    0    0    0    0 -0.00000000000E+00 -0.00000000000E+00 -0.45593999997E+02  0.45594000000E+02  0.51100000000E-03 0. -1.
    9900012    2    1    2    0    0 -0.93510828703E+00 -0.45408214063E-01  0.71791531998E+00  0.90008215350E+02  0.90000482991E+02 0.  0.
        -12    1    1    2    0    0  0.93510828703E+00  0.45408214063E-01 -0.71791531998E+00  0.11797846503E+01  0.00000000000E+00 0.  1.
         11    1    3    3    0    0 -0.36459674271E+02 -0.34101272195E+01 -0.16376822070E+02  0.40114051366E+02  0.51100000000E-03 0. -1.
        -11    1    3    3    0    0 -0.10649117847E+01 -0.71772654797E+01  0.78908786194E+01  0.10719754779E+02  0.51100000000E-03 0.  1.
        -12    1    3    3    0    0  0.36589477769E+02  0.10541984485E+02  0.92038587707E+01  0.39174409205E+02  0.00000000000E+00 0.  1.
</event>
<event>
 7    1  0.3622165E-015  0.9000772E+02  0.7816164E-02  0.1186339E+00
        -11   -1    0    0    0    0  0.00000000000E+00  0.00000000000E+00  0.45593999997E+02  0.45594000000E+02  0.51100000000E-03 0.  1.
         11   -1    0    0    0    0 -0.00000000000E+00 -0.00000000000E+00 -0.45593999997E+02  0.45594000000E+02  0.51100000000E-03 0. -1.
    9900012    2    1    2    0    0 -0.10261334942E+01 -0.57834115476E+00  0.75062366819E-01  0.90007719187E+02  0.89999980280E+02 0.  0.
        -12    1    1    2    0    0  0.10261334942E+01  0.57834115476E+00 -0.75062366819E-01  0.11802808132E+01  0.00000000000E+00 0.  1.
         11    1    3    3    0    0 -0.16907701316E+02  0.39240088069E+01 -0.37570562301E+02  0.41386173546E+02  0.51100000000E-03 0. -1.
        -11    1    3    3    0    0 -0.67561067154E+01  0.18857604521E+01  0.62713874155E+01  0.94091110531E+01  0.51100000000E-03 0.  1.
        -12    1    3    3    0    0  0.22637674537E+02 -0.63881104137E+01  0.31374237252E+02  0.39212434588E+02  0.00000000000E+00 0.  1.
</event>
<event>
 7    1  0.3622165E-015  0.9000769E+02  0.7816164E-02  0.1186339E+00
        -11   -1    0    0    0    0  0.00000000000E+00  0.00000000000E+00  0.45593999997E+02  0.45594000000E+02  0.51100000000E-03 0.  1.
         11   -1    0    0    0    0 -0.00000000000E+00 -0.00000000000E+00 -0.45593999997E+02  0.45594000000E+02  0.51100000000E-03 0. -1.
    9900012    2    1    2    0    0  0.43913948044E+00  0.11600098263E-01 -0.10955172487E+01  0.90007688140E+02  0.89999948823E+02 0.  0.
        -12    1    1    2    0    0 -0.43913948044E+00 -0.11600098263E-01  0.10955172487E+01  0.11803118604E+01  0.00000000000E+00 0.  1.
         11    1    3    3    0    0 -0.22794574323E+02 -0.14731124362E+02 -0.31852431843E+02  0.41847055549E+02  0.51100000000E-03 0. -1.
        -11    1    3    3    0    0  0.13278712876E+01 -0.63457470118E+01  0.72557922531E+01  0.97302758838E+01  0.51100000000E-03 0.  1.
        -12    1    3    3    0    0  0.21905842515E+02  0.21088471472E+02  0.23501122341E+02  0.38430356707E+02  0.00000000000E+00 0.  1.
</event>
<event>
 7    1  0.3622165E-015  0.9000770E+02  0.7816164E-02  0.1186339E+00
        -11   -1    0    0    0    0  0.00000000000E+00  0.00000000000E+00  0.45593999997E+02  0.45594000000E+02  0.51100000000E-03 0. -1.
         11   -1    0    0    0    0 -0.00000000000E+00 -0.00000000000E+00 -0.45593999997E+02  0.45594000000E+02  0.51100000000E-03 0.  1.
    9900012    2    1    2    0    0 -0.50181785051E+00 -0.10298190005E+01 -0.28418087343E+00  0.90007700420E+02  0.89999961266E+02 0.  0.
        -12    1    1    2    0    0  0.50181785051E+00  0.10298190005E+01  0.28418087343E+00  0.11802995796E+01  0.00000000000E+00 0.  1.
         11    1    3    3    0    0  0.71767392373E+01  0.84262181131E+00 -0.67954150573E+01  0.99193378639E+01  0.51100000000E-03 0. -1.
        -11    1    3    3    0    0  0.24837704460E+02 -0.70733144235E+00 -0.24675654463E+02  0.35018563707E+02  0.51100000000E-03 0.  1.
         12    1    3    3    0    0 -0.32516261548E+02 -0.11651093694E+01  0.31186888647E+02  0.45069798850E+02  0.00000000000E+00 0. -1.
</event>
<event>
 7    1  0.3622165E-015  0.9000784E+02  0.7816164E-02  0.1186339E+00
        -11   -1    0    0    0    0  0.00000000000E+00  0.00000000000E+00  0.45593999997E+02  0.45594000000E+02  0.51100000000E-03 0.  1.
         11   -1    0    0    0    0 -0.00000000000E+00 -0.00000000000E+00 -0.45593999997E+02  0.45594000000E+02  0.51100000000E-03 0. -1.
    9900012    2    1    2    0    0 -0.82065255345E+00  0.18379927342E+00 -0.82796226982E+00  0.90007841406E+02  0.90000104113E+02 0.  0.
        -12    1    1    2    0    0  0.82065255345E+00 -0.18379927342E+00  0.82796226982E+00  0.11801585939E+01  0.00000000000E+00 0.  1.
         11    1    3    3    0    0  0.36927193027E+01  0.55522949285E+01 -0.40434172530E+01  0.77982932854E+01  0.51100000000E-03 0. -1.
        -11    1    3    3    0    0  0.81800699112E+01  0.36415415580E+02 -0.53609559949E+01  0.37705913131E+02  0.51100000000E-03 0.  1.
         12    1    3    3    0    0 -0.12693441767E+02 -0.41783911235E+02  0.85764109781E+01  0.44503634989E+02  0.00000000000E+00 0. -1.
</event>
<event>
 7    1  0.3622165E-015  0.9000771E+02  0.7816164E-02  0.1186339E+00
        -11   -1    0    0    0    0  0.00000000000E+00  0.00000000000E+00  0.45593999997E+02  0.45594000000E+02  0.51100000000E-03 0. -1.
         11   -1    0    0    0    0 -0.00000000000E+00 -0.00000000000E+00 -0.45593999997E+02  0.45594000000E+02  0.51100000000E-03 0.  1.
    9900012    2    1    2    0    0 -0.44938933476E+00 -0.80034805698E+00  0.74201059152E+00  0.90007708721E+02  0.89999969676E+02 0.  0.
        -12    1    1    2    0    0  0.44938933476E+00  0.80034805698E+00 -0.74201059152E+00  0.11802912795E+01  0.00000000000E+00 0.  1.
         11    1    3    3    0    0  0.16582020914E+01  0.67454074278E+01 -0.93835796295E+01  0.11674832867E+02  0.51100000000E-03 0. -1.
        -11    1    3    3    0    0  0.74387212118E+01  0.61536194070E+01 -0.31784873380E+02  0.33218666155E+02  0.51100000000E-03 0.  1.
         12    1    3    3    0    0 -0.95463126380E+01 -0.13699374892E+02  0.41910463602E+02  0.45114209698E+02  0.00000000000E+00 0. -1.
</event>
<event>
 7    1  0.3622165E-015  0.9000774E+02  0.7816164E-02  0.1186339E+00
        -11   -1    0    0    0    0  0.00000000000E+00  0.00000000000E+00  0.45593999997E+02  0.45594000000E+02  0.51100000000E-03 0.  1.
         11   -1    0    0    0    0 -0.00000000000E+00 -0.00000000000E+00 -0.45593999997E+02  0.45594000000E+02  0.51100000000E-03 0. -1.
    9900012    2    1    2    0    0 -0.34282353718E+00 -0.30684202504E+00 -0.10868889151E+01  0.90007742604E+02  0.90000004007E+02 0.  0.
        -12    1    1    2    0    0  0.34282353718E+00  0.30684202504E+00  0.10868889151E+01  0.11802573955E+01  0.00000000000E+00 0.  1.
         11    1    3    3    0    0  0.72150487214E+01  0.88298558962E-01 -0.81197617691E+01  0.10862562135E+02  0.51100000000E-03 0. -1.
        -11    1    3    3    0    0 -0.33507561013E+01  0.37961061824E+02 -0.56561177452E+01  0.38526113864E+02  0.51100000000E-03 0.  1.
         12    1    3    3    0    0 -0.42071161574E+01 -0.38356202408E+02  0.12688990599E+02  0.40619066606E+02  0.00000000000E+00 0. -1.
</event>
<event>
 7    1  0.3622165E-015  0.9000773E+02  0.7816164E-02  0.1186339E+00
        -11   -1    0    0    0    0  0.00000000000E+00  0.00000000000E+00  0.45593999997E+02  0.45594000000E+02  0.51100000000E-03 0. -1.
         11   -1    0    0    0    0 -0.00000000000E+00 -0.00000000000E+00 -0.45593999997E+02  0.45594000000E+02  0.51100000000E-03 0.  1.
    9900012    2    1    2    0    0 -0.69876130599E+00  0.80348211470E+00  0.50909691650E+00  0.90007732852E+02  0.89999994125E+02 0.  0.
        -12    1    1    2    0    0  0.69876130599E+00 -0.80348211470E+00 -0.50909691650E+00  0.11802671485E+01  0.00000000000E+00 0.  1.
         11    1    3    3    0    0 -0.16959672673E+02 -0.60184631145E+01  0.19728526892E+02  0.26703317566E+02  0.51100000000E-03 0. -1.
        -11    1    3    3    0    0 -0.17496729989E+02 -0.10410065569E+02  0.92845271013E+00  0.20380555688E+02  0.51100000000E-03 0.  1.
        -12    1    3    3    0    0  0.33757641355E+02  0.17232010798E+02 -0.20147882686E+02  0.42923859598E+02  0.00000000000E+00 0.  1.
</event>
<event>
 7    1  0.3622165E-015  0.9000763E+02  0.7816164E-02  0.1186339E+00
        -11   -1    0    0    0    0  0.00000000000E+00  0.00000000000E+00  0.45593999997E+02  0.45594000000E+02  0.51100000000E-03 0. -1.
         11   -1    0    0    0    0 -0.00000000000E+00 -0.00000000000E+00 -0.45593999997E+02  0.45594000000E+02  0.51100000000E-03 0.  1.
    9900012    2    1    2    0    0 -0.28039205642E-01  0.65886818735E+00  0.97896801604E+00  0.90007630625E+02  0.89999890549E+02 0.  0.
        -12    1    1    2    0    0  0.28039205642E-01 -0.65886818735E+00 -0.97896801604E+00  0.11803693751E+01  0.00000000000E+00 0.  1.
         11    1    3    3    0    0 -0.33422767830E+02 -0.11738155355E+02  0.86566465166E+01  0.36466467196E+02  0.51100000000E-03 0. -1.
        -11    1    3    3    0    0 -0.85511793576E+01  0.62511586611E+01 -0.17029433525E+01  0.10728451395E+02  0.51100000000E-03 0.  1.
        -12    1    3    3    0    0  0.41945907982E+02  0.61458648810E+01 -0.59747351481E+01  0.42812712034E+02  0.00000000000E+00 0.  1.
</event>
<event>
 7    1  0.3622165E-015  0.9000770E+02  0.7816164E-02  0.1186339E+00
        -11   -1    0    0    0    0  0.00000000000E+00  0.00000000000E+00  0.45593999997E+02  0.45594000000E+02  0.51100000000E-03 0. -1.
         11   -1    0    0    0    0 -0.00000000000E+00 -0.00000000000E+00 -0.45593999997E+02  0.45594000000E+02  0.51100000000E-03 0.  1.
    9900012    2    1    2    0    0 -0.10233862588E+01  0.51846950554E+00 -0.27745642168E+00  0.90007698289E+02  0.89999959106E+02 0.  0.
        -12    1    1    2    0    0  0.10233862588E+01 -0.51846950554E+00  0.27745642168E+00  0.11803017109E+01  0.00000000000E+00 0.  1.
         11    1    3    3    0    0 -0.39977450360E+02 -0.18808952897E+02  0.14045545518E+01  0.44203461630E+02  0.51100000000E-03 0. -1.
        -11    1    3    3    0    0  0.58404787860E+01  0.65824571122E+01  0.43452868608E+01  0.98143493033E+01  0.51100000000E-03 0.  1.
        -12    1    3    3    0    0  0.33113585315E+02  0.12744965290E+02 -0.60272978343E+01  0.35989887355E+02  0.00000000000E+00 0.  1.
</event>
<event>
 7    1  0.3622165E-015  0.9000778E+02  0.7816164E-02  0.1186339E+00
        -11   -1    0    0    0    0  0.00000000000E+00  0.00000000000E+00  0.45593999997E+02  0.45594000000E+02  0.51100000000E-03 0.  1.
         11   -1    0    0    0    0 -0.00000000000E+00 -0.00000000000E+00 -0.45593999997E+02  0.45594000000E+02  0.51100000000E-03 0. -1.
    9900012    2    1    2    0    0  0.86019176229E+00  0.77985858865E+00  0.21167495125E+00  0.90007781558E+02  0.90000043474E+02 0.  0.
        -12    1    1    2    0    0 -0.86019176229E+00 -0.77985858865E+00 -0.21167495125E+00  0.11802184421E+01  0.00000000000E+00 0.  1.
         11    1    3    3    0    0 -0.17300370251E+02 -0.31986411138E+02  0.14140632111E+02  0.39017826503E+02  0.51100000000E-03 0. -1.
        -11    1    3    3    0    0 -0.44463252403E+01  0.50898891088E+01  0.68740637540E+01  0.96399964750E+01  0.51100000000E-03 0.  1.
        -12    1    3    3    0    0  0.22606887254E+02  0.27676380618E+02 -0.20803020913E+02  0.41349958579E+02  0.00000000000E+00 0.  1.
</event>
<event>
 7    1  0.3622165E-015  0.9000778E+02  0.7816164E-02  0.1186339E+00
        -11   -1    0    0    0    0  0.00000000000E+00  0.00000000000E+00  0.45593999997E+02  0.45594000000E+02  0.51100000000E-03 0.  1.
         11   -1    0    0    0    0 -0.00000000000E+00 -0.00000000000E+00 -0.45593999997E+02  0.45594000000E+02  0.51100000000E-03 0. -1.
    9900012    2    1    2    0    0  0.20637881043E+00 -0.74849856275E+00  0.88886079408E+00  0.90007781451E+02  0.90000043366E+02 0.  0.
        -12    1    1    2    0    0 -0.20637881043E+00  0.74849856275E+00 -0.88886079408E+00  0.11802185489E+01  0.00000000000E+00 0.  1.
         11    1    3    3    0    0  0.37379832061E+02  0.84405286076E+01 -0.37664746677E+01  0.38505593097E+02  0.51100000000E-03 0. -1.
        -11    1    3    3    0    0  0.23827363542E+01  0.69641073874E+01  0.47771000128E+01  0.87747882612E+01  0.51100000000E-03 0.  1.
        -12    1    3    3    0    0 -0.39556189605E+02 -0.16153134558E+02 -0.12176455096E+00  0.42727400093E+02  0.00000000000E+00 0.  1.
</event>
<event>
 7    1  0.3622165E-015  0.9000769E+02  0.7816164E-02  0.1186339E+00
        -11   -1    0    0    0    0  0.00000000000E+00  0.00000000000E+00  0.45593999997E+02  0.45594000000E+02  0.51100000000E-03 0.  1.
         11   -1    0    0    0    0 -0.00000000000E+00 -0.00000000000E+00 -0.45593999997E+02  0.45594000000E+02  0.51100000000E-03 0. -1.
    9900012    2    1    2    0    0  0.11394212751E+01 -0.26403988550E+00  0.15856213075E+00  0.90007686545E+02  0.89999947207E+02 0.  0.
        -12    1    1    2    0    0 -0.11394212751E+01  0.26403988550E+00 -0.15856213075E+00  0.11803134553E+01  0.00000000000E+00 0.  1.
         11    1    3    3    0    0  0.16700769018E+02 -0.37221864465E+02 -0.17377028319E+00  0.40797218979E+02  0.51100000000E-03 0. -1.
        -11    1    3    3    0    0  0.19660946110E+01  0.59580458951E+01 -0.10286797597E+02  0.12049151172E+02  0.51100000000E-03 0.  1.
        -12    1    3    3    0    0 -0.17527442354E+02  0.30999778684E+02  0.10619130011E+02  0.37161316394E+02  0.00000000000E+00 0.  1.
</event>
<event>
 7    1  0.4033348E-015  0.9000769E+02  0.7816164E-02  0.1186339E+00
        -11   -1    0    0    0    0  0.00000000000E+00  0.00000000000E+00  0.45593999997E+02  0.45594000000E+02  0.51100000000E-03 0. -1.
         11   -1    0    0    0    0 -0.00000000000E+00 -0.00000000000E+00 -0.45593999997E+02  0.45594000000E+02  0.51100000000E-03 0.  1.
    9900012    2    1    2    0    0  0.39151198064E+00 -0.68334201326E+00  0.87914861300E+00  0.90007686388E+02  0.89999947049E+02 0.  0.
        -12    1    1    2    0    0 -0.39151198064E+00  0.68334201326E+00 -0.87914861300E+00  0.11803136116E+01  0.00000000000E+00 0.  1.
         11    1    3    3    0    0  0.16704410468E+02  0.29599491813E+02  0.19676448554E+02  0.39272507848E+02  0.51100000000E-03 0. -1.
        -11    1    3    3    0    0 -0.68663778867E+01  0.57106072681E+01  0.24391337047E+00  0.89340737990E+01  0.51100000000E-03 0.  1.
        -12    1    3    3    0    0 -0.94465206011E+01 -0.35993441094E+02 -0.19041213312E+02  0.41801104742E+02  0.00000000000E+00 0.  1.
</event>
<event>
 7    1  0.3622165E-015  0.9000779E+02  0.7816164E-02  0.1186339E+00
        -11   -1    0    0    0    0  0.00000000000E+00  0.00000000000E+00  0.45593999997E+02  0.45594000000E+02  0.51100000000E-03 0. -1.
         11   -1    0    0    0    0 -0.00000000000E+00 -0.00000000000E+00 -0.45593999997E+02  0.45594000000E+02  0.51100000000E-03 0.  1.
    9900012    2    1    2    0    0  0.39555790018E+00 -0.63236909267E+00  0.91462173122E+00  0.90007792547E+02  0.90000054608E+02 0.  0.
        -12    1    1    2    0    0 -0.39555790018E+00  0.63236909267E+00 -0.91462173122E+00  0.11802074534E+01  0.00000000000E+00 0.  1.
         11    1    3    3    0    0  0.43436956899E+02  0.44165846017E+01 -0.54308336262E+01  0.43997379448E+02  0.51100000000E-03 0. -1.
        -11    1    3    3    0    0 -0.83484665034E+01 -0.27493490601E+01  0.69981741277E+01  0.11235223834E+02  0.51100000000E-03 0.  1.
        -12    1    3    3    0    0 -0.34692932495E+02 -0.22996046342E+01 -0.65271877023E+00  0.34775189265E+02  0.00000000000E+00 0.  1.
</event>
<event>
 7    1  0.3622165E-015  0.9000774E+02  0.7816164E-02  0.1186339E+00
        -11   -1    0    0    0    0  0.00000000000E+00  0.00000000000E+00  0.45593999997E+02  0.45594000000E+02  0.51100000000E-03 0.  1.
         11   -1    0    0    0    0 -0.00000000000E+00 -0.00000000000E+00 -0.45593999997E+02  0.45594000000E+02  0.51100000000E-03 0. -1.
    9900012    2    1    2    0    0 -0.74126481209E+00 -0.91413563087E+00 -0.88844960502E-01  0.90007741172E+02  0.90000002556E+02 0.  0.
        -12    1    1    2    0    0  0.74126481209E+00  0.91413563087E+00  0.88844960502E-01  0.11802588277E+01  0.00000000000E+00 0.  1.
         11    1    3    3    0    0  0.12720952850E+02  0.12062333869E+02 -0.30395289086E+02  0.35088404618E+02  0.51100000000E-03 0. -1.
        -11    1    3    3    0    0  0.44243095347E+01  0.10719284956E+01 -0.86699091123E+01  0.97923883622E+01  0.51100000000E-03 0.  1.
        -12    1    3    3    0    0 -0.17886527197E+02 -0.14048397996E+02  0.38976353238E+02  0.45126948192E+02  0.00000000000E+00 0.  1.
</event>
<event>
 7    1  0.3622165E-015  0.9000787E+02  0.7816164E-02  0.1186339E+00
        -11   -1    0    0    0    0  0.00000000000E+00  0.00000000000E+00  0.45593999997E+02  0.45594000000E+02  0.51100000000E-03 0.  1.
         11   -1    0    0    0    0 -0.00000000000E+00 -0.00000000000E+00 -0.45593999997E+02  0.45594000000E+02  0.51100000000E-03 0. -1.
    9900012    2    1    2    0    0  0.45237534150E+00  0.58697536439E+00  0.91843002103E+00  0.90007874061E+02  0.90000137199E+02 0.  0.
        -12    1    1    2    0    0 -0.45237534150E+00 -0.58697536439E+00 -0.91843002103E+00  0.11801259388E+01  0.00000000000E+00 0.  1.
         11    1    3    3    0    0  0.35200335231E+01  0.44492923882E+01  0.13656105349E+02  0.14787699359E+02  0.51100000000E-03 0. -1.
        -11    1    3    3    0    0  0.12356066208E+02  0.32382278421E+02 -0.41722108787E+01  0.34909764705E+02  0.51100000000E-03 0.  1.
         12    1    3    3    0    0 -0.15423724389E+02 -0.36244595445E+02 -0.85654644492E+01  0.40310409998E+02  0.00000000000E+00 0. -1.
</event>
<event>
 7    1  0.3622165E-015  0.9000774E+02  0.7816164E-02  0.1186339E+00
        -11   -1    0    0    0    0  0.00000000000E+00  0.00000000000E+00  0.45593999997E+02  0.45594000000E+02  0.51100000000E-03 0. -1.
         11   -1    0    0    0    0 -0.00000000000E+00 -0.00000000000E+00 -0.45593999997E+02  0.45594000000E+02  0.51100000000E-03 0.  1.
    9900012    2    1    2    0    0  0.48072030602E+00  0.10232255176E+01  0.33901812444E+00  0.90007739113E+02  0.90000000469E+02 0.  0.
        -12    1    1    2    0    0 -0.48072030602E+00 -0.10232255176E+01 -0.33901812444E+00  0.11802608869E+01  0.00000000000E+00 0.  1.
         11    1    3    3    0    0  0.62938835541E+01  0.50669793657E+01  0.71401415145E+01  0.10782804422E+02  0.51100000000E-03 0. -1.
        -11    1    3    3    0    0  0.19561240168E+02  0.20719530080E+02 -0.26286940987E+02  0.38767825711E+02  0.51100000000E-03 0.  1.
         12    1    3    3    0    0 -0.25374403416E+02 -0.24763283928E+02  0.19485817597E+02  0.40457108980E+02  0.00000000000E+00 0. -1.
</event>
<event>
 7    1  0.3622165E-015  0.9000776E+02  0.7816164E-02  0.1186339E+00
        -11   -1    0    0    0    0  0.00000000000E+00  0.00000000000E+00  0.45593999997E+02  0.45594000000E+02  0.51100000000E-03 0.  1.
         11   -1    0    0    0    0 -0.00000000000E+00 -0.00000000000E+00 -0.45593999997E+02  0.45594000000E+02  0.51100000000E-03 0. -1.
    9900012    2    1    2    0    0  0.37223587270E+00  0.57747684091E+00 -0.95964373558E+00  0.90007764792E+02  0.90000026487E+02 0.  0.
        -12    1    1    2    0    0 -0.37223587270E+00 -0.57747684091E+00  0.95964373558E+00  0.11802352079E+01  0.00000000000E+00 0.  1.
         11    1    3    3    0    0 -0.30572337032E+02  0.10213957665E+02 -0.12036713645E+02  0.34407487534E+02  0.51100000000E-03 0. -1.
        -11    1    3    3    0    0  0.19636391968E+01 -0.22421736490E+02  0.74944764157E+01  0.23722506678E+02  0.51100000000E-03 0.  1.
        -12    1    3    3    0    0  0.28980933707E+02  0.12785255665E+02  0.35825934939E+01  0.31877770580E+02  0.00000000000E+00 0.  1.
</event>
<event>
 7    1  0.3622165E-015  0.9000771E+02  0.7816164E-02  0.1186339E+00
        -11   -1    0    0    0    0  0.00000000000E+00  0.00000000000E+00  0.45593999997E+02  0.45594000000E+02  0.51100000000E-03 0. -1.
         11   -1    0    0    0    0 -0.00000000000E+00 -0.00000000000E+00 -0.45593999997E+02  0.45594000000E+02  0.51100000000E-03 0.  1.
    9900012    2    1    2    0    0  0.89804075190E+00 -0.26678809707E+00 -0.71793874859E+00  0.90007708033E+02  0.89999968979E+02 0.  0.
        -12    1    1    2    0    0 -0.89804075190E+00  0.26678809707E+00  0.71793874859E+00  0.11802919671E+01  0.00000000000E+00 0.  1.
         11    1    3    3    0    0  0.58552202329E+01 -0.21527046145E+01 -0.92831889944E+01  0.11184602778E+02  0.51100000000E-03 0. -1.
        -11    1    3    3    0    0  0.81232432906E+01 -0.77991030025E+01 -0.32635707396E+02  0.34523940776E+02  0.51100000000E-03 0.  1.
         12    1    3    3    0    0 -0.13080422772E+02  0.96850195199E+01  0.41200957642E+02  0.44299164479E+02  0.00000000000E+00 0. -1.
</event>
<event>
 7    1  0.3622165E-015  0.9000776E+02  0.7816164E-02  0.1186339E+00
        -11   -1    0    0    0    0  0.00000000000E+00  0.00000000000E+00  0.45593999997E+02  0.45594000000E+02  0.51100000000E-03 0.  1.
         11   -1    0    0    0    0 -0.00000000000E+00 -0.00000000000E+00 -0.45593999997E+02  0.45594000000E+02  0.51100000000E-03 0. -1.
    9900012    2    1    2    0    0 -0.16758549393E+00 -0.33117490276E+00 -0.11203597199E+01  0.90007759509E+02  0.90000021135E+02 0.  0.
        -12    1    1    2    0    0  0.16758549393E+00  0.33117490276E+00  0.11203597199E+01  0.11802404907E+01  0.00000000000E+00 0.  1.
         11    1    3    3    0    0 -0.34449891336E+01  0.88063015704E+01 -0.28060536603E+01  0.98637130375E+01  0.51100000000E-03 0. -1.
        -11    1    3    3    0    0 -0.12176443757E+02 -0.18812177900E+00  0.37877038973E+02  0.39786571277E+02  0.51100000000E-03 0.  1.
         12    1    3    3    0    0  0.15453847397E+02 -0.89493546942E+01 -0.36191345033E+02  0.40357475195E+02  0.00000000000E+00 0. -1.
</event>
<event>
 7    1  0.3622165E-015  0.9000767E+02  0.7816164E-02  0.1186339E+00
        -11   -1    0    0    0    0  0.00000000000E+00  0.00000000000E+00  0.45593999997E+02  0.45594000000E+02  0.51100000000E-03 0. -1.
         11   -1    0    0    0    0 -0.00000000000E+00 -0.00000000000E+00 -0.45593999997E+02  0.45594000000E+02  0.51100000000E-03 0.  1.
    9900012    2    1    2    0    0 -0.85470967165E+00  0.36509019005E+00  0.72756629966E+00  0.90007672846E+02  0.89999933328E+02 0.  0.
        -12    1    1    2    0    0  0.85470967165E+00 -0.36509019005E+00 -0.72756629966E+00  0.11803271538E+01  0.00000000000E+00 0.  1.
         11    1    3    3    0    0  0.17833875783E+01 -0.31281598032E+02  0.25707399888E+01  0.31437677253E+02  0.51100000000E-03 0. -1.
        -11    1    3    3    0    0  0.31940440902E+01 -0.13054505862E+02 -0.10893489070E+01  0.13483646474E+02  0.51100000000E-03 0.  1.
        -12    1    3    3    0    0 -0.58321413401E+01  0.44701194084E+02 -0.75382478220E+00  0.45086349119E+02  0.00000000000E+00 0.  1.
</event>
<event>
 7    1  0.3622165E-015  0.9000763E+02  0.7816164E-02  0.1186339E+00
        -11   -1    0    0    0    0  0.00000000000E+00  0.00000000000E+00  0.45593999997E+02  0.45594000000E+02  0.51100000000E-03 0. -1.
         11   -1    0    0    0    0 -0.00000000000E+00 -0.00000000000E+00 -0.45593999997E+02  0.45594000000E+02  0.51100000000E-03 0.  1.
    9900012    2    1    2    0    0  0.15982891154E+00 -0.11365923224E+01  0.27549004482E+00  0.90007626266E+02  0.89999886132E+02 0.  0.
        -12    1    1    2    0    0 -0.15982891154E+00  0.11365923224E+01 -0.27549004482E+00  0.11803737345E+01  0.00000000000E+00 0.  1.
         11    1    3    3    0    0  0.32110373752E+02 -0.36782909778E+01 -0.15700312010E+02  0.35931959653E+02  0.51100000000E-03 0. -1.
        -11    1    3    3    0    0  0.45001099390E+01 -0.85049110566E+01 -0.47318582406E+01  0.10722638864E+02  0.51100000000E-03 0.  1.
        -12    1    3    3    0    0 -0.36450654780E+02  0.11046609712E+02  0.20707660296E+02  0.43353027748E+02  0.00000000000E+00 0.  1.
</event>
<event>
 7    1  0.3622165E-015  0.9000777E+02  0.7816164E-02  0.1186339E+00
        -11   -1    0    0    0    0  0.00000000000E+00  0.00000000000E+00  0.45593999997E+02  0.45594000000E+02  0.51100000000E-03 0.  1.
         11   -1    0    0    0    0 -0.00000000000E+00 -0.00000000000E+00 -0.45593999997E+02  0.45594000000E+02  0.51100000000E-03 0. -1.
    9900012    2    1    2    0    0 -0.83326503435E+00 -0.45589136547E+00 -0.70055613748E+00  0.90007768473E+02  0.90000030217E+02 0.  0.
        -12    1    1    2    0    0  0.83326503435E+00  0.45589136547E+00  0.70055613748E+00  0.11802315266E+01  0.00000000000E+00 0.  1.
         11    1    3    3    0    0  0.30886122261E+01 -0.57591335874E+00  0.81833201900E+01  0.87657248002E+01  0.51100000000E-03 0. -1.
        -11    1    3    3    0    0  0.10191507905E+02 -0.63310099242E+01  0.33778026818E+02  0.35845552249E+02  0.51100000000E-03 0.  1.
         12    1    3    3    0    0 -0.14113385166E+02  0.64510319175E+01 -0.42661903146E+02  0.45396491424E+02  0.00000000000E+00 0. -1.
</event>
<event>
 7    1  0.3622165E-015  0.9000781E+02  0.7816164E-02  0.1186339E+00
        -11   -1    0    0    0    0  0.00000000000E+00  0.00000000000E+00  0.45593999997E+02  0.45594000000E+02  0.51100000000E-03 0.  1.
         11   -1    0    0    0    0 -0.00000000000E+00 -0.00000000000E+00 -0.45593999997E+02  0.45594000000E+02  0.51100000000E-03 0. -1.
    9900012    2    1    2    0    0  0.32639223682E-01  0.90469802228E+00 -0.75716986392E+00  0.90007809323E+02  0.90000071606E+02 0.  0.
        -12    1    1    2    0    0 -0.32639223682E-01 -0.90469802228E+00  0.75716986392E+00  0.11801906767E+01  0.00000000000E+00 0.  1.
         11    1    3    3    0    0  0.20156863623E+01  0.33441182696E+02 -0.15750728489E+02  0.37019739867E+02  0.51100000000E-03 0. -1.
        -11    1    3    3    0    0  0.24461433031E+01  0.56784657823E+01 -0.64580929325E+01  0.89406686152E+01  0.51100000000E-03 0.  1.
        -12    1    3    3    0    0 -0.44291904417E+01 -0.38214950456E+02  0.21451651558E+02  0.44047400841E+02  0.00000000000E+00 0.  1.
</event>
<event>
 7    1  0.3622165E-015  0.9000787E+02  0.7816164E-02  0.1186339E+00
        -11   -1    0    0    0    0  0.00000000000E+00  0.00000000000E+00  0.45593999997E+02  0.45594000000E+02  0.51100000000E-03 0.  1.
         11   -1    0    0    0    0 -0.00000000000E+00 -0.00000000000E+00 -0.45593999997E+02  0.45594000000E+02  0.51100000000E-03 0. -1.
    9900012    2    1    2    0    0 -0.57570346211E+00  0.10063493317E+01 -0.22031815041E+00  0.90007867151E+02  0.90000130197E+02 0.  0.
        -12    1    1    2    0    0  0.57570346211E+00 -0.10063493317E+01  0.22031815041E+00  0.11801328489E+01  0.00000000000E+00 0.  1.
         11    1    3    3    0    0  0.57710950220E+01  0.88143445435E+01 -0.28568750038E+01  0.10916040607E+02  0.51100000000E-03 0. -1.
        -11    1    3    3    0    0  0.32991507957E+01  0.30710637323E+02  0.18868085731E+02  0.36194368349E+02  0.51100000000E-03 0.  1.
         12    1    3    3    0    0 -0.96459492799E+01 -0.38518632535E+02 -0.16231528878E+02  0.42897458195E+02  0.00000000000E+00 0. -1.
</event>
<event>
 7    1  0.3622165E-015  0.9000771E+02  0.7816164E-02  0.1186339E+00
        -11   -1    0    0    0    0  0.00000000000E+00  0.00000000000E+00  0.45593999997E+02  0.45594000000E+02  0.51100000000E-03 0. -1.
         11   -1    0    0    0    0 -0.00000000000E+00 -0.00000000000E+00 -0.45593999997E+02  0.45594000000E+02  0.51100000000E-03 0.  1.
    9900012    2    1    2    0    0  0.63094146815E+00 -0.19834332784E+00  0.97757815389E+00  0.90007709248E+02  0.89999970210E+02 0.  0.
        -12    1    1    2    0    0 -0.63094146815E+00  0.19834332784E+00 -0.97757815389E+00  0.11802907518E+01  0.00000000000E+00 0.  1.
         11    1    3    3    0    0 -0.15144252658E+02  0.95545428985E+01 -0.46006861023E+01  0.18487941785E+02  0.51100000000E-03 0. -1.
        -11    1    3    3    0    0  0.93090032472E+01  0.25639432364E+02  0.18866603106E+02  0.33166048098E+02  0.51100000000E-03 0.  1.
         12    1    3    3    0    0  0.64661908792E+01 -0.35392318591E+02 -0.13288338850E+02  0.38353719365E+02  0.00000000000E+00 0. -1.
</event>
<event>
 7    1  0.3622165E-015  0.9000778E+02  0.7816164E-02  0.1186339E+00
        -11   -1    0    0    0    0  0.00000000000E+00  0.00000000000E+00  0.45593999997E+02  0.45594000000E+02  0.51100000000E-03 0.  1.
         11   -1    0    0    0    0 -0.00000000000E+00 -0.00000000000E+00 -0.45593999997E+02  0.45594000000E+02  0.51100000000E-03 0. -1.
    9900012    2    1    2    0    0  0.63647492881E+00 -0.95422228108E+00  0.27797492947E+00  0.90007783682E+02  0.90000045626E+02 0.  0.
        -12    1    1    2    0    0 -0.63647492881E+00  0.95422228108E+00 -0.27797492947E+00  0.11802163184E+01  0.00000000000E+00 0.  1.
         11    1    3    3    0    0  0.50184010626E+01 -0.37145160417E+02  0.46608663091E+00  0.37485524255E+02  0.51100000000E-03 0. -1.
        -11    1    3    3    0    0  0.53425453045E+01 -0.50768835130E+01 -0.62875650796E+01  0.96876731689E+01  0.51100000000E-03 0.  1.
        -12    1    3    3    0    0 -0.97244714383E+01  0.41267821649E+02  0.60994533782E+01  0.42834586258E+02  0.00000000000E+00 0.  1.
</event>
<event>
 7    1  0.3622165E-015  0.9000773E+02  0.7816164E-02  0.1186339E+00
        -11   -1    0    0    0    0  0.00000000000E+00  0.00000000000E+00  0.45593999997E+02  0.45594000000E+02  0.51100000000E-03 0. -1.
         11   -1    0    0    0    0 -0.00000000000E+00 -0.00000000000E+00 -0.45593999997E+02  0.45594000000E+02  0.51100000000E-03 0.  1.
    9900012    2    1    2    0    0 -0.94764527817E+00  0.60496280815E+00  0.35920715688E+00  0.90007728271E+02  0.89999989484E+02 0.  0.
        -12    1    1    2    0    0  0.94764527817E+00 -0.60496280815E+00 -0.35920715688E+00  0.11802717289E+01  0.00000000000E+00 0.  1.
         11    1    3    3    0    0  0.86417060020E+01  0.63292719284E+01 -0.27592067119E+01  0.11061283276E+02  0.51100000000E-03 0. -1.
        -11    1    3    3    0    0  0.21467232122E+02 -0.26282860713E+02 -0.15499388775E+02  0.37307665096E+02  0.51100000000E-03 0.  1.
         12    1    3    3    0    0 -0.31056583403E+02  0.20558551592E+02  0.18617802644E+02  0.41638779899E+02  0.00000000000E+00 0. -1.
</event>
<event>
 7    1  0.3622165E-015  0.9000771E+02  0.7816164E-02  0.1186339E+00
        -11   -1    0    0    0    0  0.00000000000E+00  0.00000000000E+00  0.45593999997E+02  0.45594000000E+02  0.51100000000E-03 0.  1.
         11   -1    0    0    0    0 -0.00000000000E+00 -0.00000000000E+00 -0.45593999997E+02  0.45594000000E+02  0.51100000000E-03 0. -1.
    9900012    2    1    2    0    0 -0.76361926812E+00 -0.73734334077E+00 -0.51603171324E+00  0.90007712612E+02  0.89999973619E+02 0.  0.
        -12    1    1    2    0    0  0.76361926812E+00  0.73734334077E+00  0.51603171324E+00  0.11802873878E+01  0.00000000000E+00 0.  1.
         11    1    3    3    0    0 -0.39409437641E+02  0.85099513718E-02  0.75373031947E+00  0.39416645687E+02  0.51100000000E-03 0. -1.
        -11    1    3    3    0    0 -0.16923570506E+01  0.85579951067E+01  0.23534194478E+01  0.90355927305E+01  0.51100000000E-03 0.  1.
        -12    1    3    3    0    0  0.40338175423E+02 -0.93038483988E+01 -0.36231814805E+01  0.41555474195E+02  0.00000000000E+00 0.  1.
</event>
<event>
 7    1  0.3622165E-015  0.9000751E+02  0.7816164E-02  0.1186339E+00
        -11   -1    0    0    0    0  0.00000000000E+00  0.00000000000E+00  0.45593999997E+02  0.45594000000E+02  0.51100000000E-03 0.  1.
         11   -1    0    0    0    0 -0.00000000000E+00 -0.00000000000E+00 -0.45593999997E+02  0.45594000000E+02  0.51100000000E-03 0. -1.
    9900012    2    1    2    0    0  0.62468550732E+00  0.91718951101E+00  0.40259111650E+00  0.90007513579E+02  0.89999771958E+02 0.  0.
        -12    1    1    2    0    0 -0.62468550732E+00 -0.91718951101E+00 -0.40259111650E+00  0.11804864206E+01  0.00000000000E+00 0.  1.
         11    1    3    3    0    0 -0.63227321368E-01  0.43350675049E+01  0.84480399189E+01  0.94955877490E+01  0.51100000000E-03 0. -1.
        -11    1    3    3    0    0  0.16555079788E+01  0.15411022187E+02  0.32384178515E+02  0.35902302570E+02  0.51100000000E-03 0.  1.
         12    1    3    3    0    0 -0.96759515012E+00 -0.18828900181E+02 -0.40429627317E+02  0.44609623260E+02  0.00000000000E+00 0. -1.
</event>
<event>
 7    1  0.3622165E-015  0.9000785E+02  0.7816164E-02  0.1186339E+00
        -11   -1    0    0    0    0  0.00000000000E+00  0.00000000000E+00  0.45593999997E+02  0.45594000000E+02  0.51100000000E-03 0. -1.
         11   -1    0    0    0    0 -0.00000000000E+00 -0.00000000000E+00 -0.45593999997E+02  0.45594000000E+02  0.51100000000E-03 0.  1.
    9900012    2    1    2    0    0 -0.30680069922E+00  0.29290450220E+00  0.11012840560E+01  0.90007853277E+02  0.90000116140E+02 0.  0.
        -12    1    1    2    0    0  0.30680069922E+00 -0.29290450220E+00 -0.11012840560E+01  0.11801467233E+01  0.00000000000E+00 0.  1.
         11    1    3    3    0    0  0.30592670228E+01  0.16613716756E+01 -0.85582759198E+01  0.92392292720E+01  0.51100000000E-03 0. -1.
        -11    1    3    3    0    0  0.66570431608E+01  0.38384458771E+02  0.16225715152E+01  0.38991225133E+02  0.51100000000E-03 0.  1.
         12    1    3    3    0    0 -0.10023110883E+02 -0.39752925945E+02  0.80369884606E+01  0.41777398871E+02  0.00000000000E+00 0. -1.
</event>
<event>
 7    1  0.3622165E-015  0.9000777E+02  0.7816164E-02  0.1186339E+00
        -11   -1    0    0    0    0  0.00000000000E+00  0.00000000000E+00  0.45593999997E+02  0.45594000000E+02  0.51100000000E-03 0.  1.
         11   -1    0    0    0    0 -0.00000000000E+00 -0.00000000000E+00 -0.45593999997E+02  0.45594000000E+02  0.51100000000E-03 0. -1.
    9900012    2    1    2    0    0  0.45961188776E+00  0.45474166557E+00 -0.98737694131E+00  0.90007768542E+02  0.90000030287E+02 0.  0.
        -12    1    1    2    0    0 -0.45961188776E+00 -0.45474166557E+00  0.98737694131E+00  0.11802314578E+01  0.00000000000E+00 0.  1.
         11    1    3    3    0    0 -0.36483952102E+01 -0.10863763981E+01 -0.94365981955E+01  0.10175479696E+02  0.51100000000E-03 0. -1.
        -11    1    3    3    0    0  0.40157304958E+02 -0.73411344324E+01  0.11961363253E+02  0.42539106801E+02  0.51100000000E-03 0.  1.
         12    1    3    3    0    0 -0.36049297860E+02  0.88822524961E+01 -0.35121419991E+01  0.37293182045E+02  0.00000000000E+00 0. -1.
</event>
<event>
 7    1  0.3622165E-015  0.9000776E+02  0.7816164E-02  0.1186339E+00
        -11   -1    0    0    0    0  0.00000000000E+00  0.00000000000E+00  0.45593999997E+02  0.45594000000E+02  0.51100000000E-03 0. -1.
         11   -1    0    0    0    0 -0.00000000000E+00 -0.00000000000E+00 -0.45593999997E+02  0.45594000000E+02  0.51100000000E-03 0.  1.
    9900012    2    1    2    0    0 -0.84948946961E+00  0.23540593140E+00  0.78480289533E+00  0.90007761085E+02  0.90000022732E+02 0.  0.
        -12    1    1    2    0    0  0.84948946961E+00 -0.23540593140E+00 -0.78480289533E+00  0.11802389148E+01  0.00000000000E+00 0.  1.
         11    1    3    3    0    0  0.14264641135E+02  0.30179594673E+02  0.16948052101E+02  0.37436938866E+02  0.51100000000E-03 0. -1.
        -11    1    3    3    0    0  0.10318227699E+02  0.47982730546E+00 -0.42121791158E+01  0.11155201041E+02  0.51100000000E-03 0.  1.
        -12    1    3    3    0    0 -0.25432358304E+02 -0.30424016047E+02 -0.11951070090E+02  0.41415621179E+02  0.00000000000E+00 0.  1.
</event>
<event>
 7    1  0.3622165E-015  0.9000768E+02  0.7816164E-02  0.1186339E+00
        -11   -1    0    0    0    0  0.00000000000E+00  0.00000000000E+00  0.45593999997E+02  0.45594000000E+02  0.51100000000E-03 0.  1.
         11   -1    0    0    0    0 -0.00000000000E+00 -0.00000000000E+00 -0.45593999997E+02  0.45594000000E+02  0.51100000000E-03 0. -1.
    9900012    2    1    2    0    0  0.97737940371E+00  0.65829161188E+00  0.67295718870E-01  0.90007683492E+02  0.89999944114E+02 0.  0.
        -12    1    1    2    0    0 -0.97737940371E+00 -0.65829161188E+00 -0.67295718870E-01  0.11803165079E+01  0.00000000000E+00 0.  1.
         11    1    3    3    0    0  0.39987077479E+01  0.21070479995E+01  0.99515484040E+01  0.10929896195E+02  0.51100000000E-03 0. -1.
        -11    1    3    3    0    0  0.57589309020E+00 -0.32350425599E+02 -0.28248336986E+02  0.42951719780E+02  0.51100000000E-03 0.  1.
         12    1    3    3    0    0 -0.35972214344E+01  0.30901669211E+02  0.18364084301E+02  0.36126067518E+02  0.00000000000E+00 0. -1.
</event>
<event>
 7    1  0.3622165E-015  0.9000770E+02  0.7816164E-02  0.1186339E+00
        -11   -1    0    0    0    0  0.00000000000E+00  0.00000000000E+00  0.45593999997E+02  0.45594000000E+02  0.51100000000E-03 0.  1.
         11   -1    0    0    0    0 -0.00000000000E+00 -0.00000000000E+00 -0.45593999997E+02  0.45594000000E+02  0.51100000000E-03 0. -1.
    9900012    2    1    2    0    0 -0.26120206452E+00  0.11395360118E+01  0.16225952412E+00  0.90007704701E+02  0.89999965603E+02 0.  0.
        -12    1    1    2    0    0  0.26120206452E+00 -0.11395360118E+01 -0.16225952412E+00  0.11802952994E+01  0.00000000000E+00 0.  1.
         11    1    3    3    0    0  0.17487762637E+02  0.98120471635E+01 -0.30238279832E+02  0.36282939229E+02  0.51100000000E-03 0. -1.
        -11    1    3    3    0    0 -0.14029372265E+02 -0.85728082844E+01 -0.57239178361E+01  0.17409180443E+02  0.51100000000E-03 0.  1.
        -12    1    3    3    0    0 -0.37195924365E+01 -0.99702867284E-01  0.36124457192E+02  0.36315585029E+02  0.00000000000E+00 0.  1.
</event>
<event>
 7    1  0.3859358E-015  0.9000779E+02  0.7816164E-02  0.1186339E+00
        -11   -1    0    0    0    0  0.00000000000E+00  0.00000000000E+00  0.45593999997E+02  0.45594000000E+02  0.51100000000E-03 0. -1.
         11   -1    0    0    0    0 -0.00000000000E+00 -0.00000000000E+00 -0.45593999997E+02  0.45594000000E+02  0.51100000000E-03 0.  1.
    9900012    2    1    2    0    0 -0.15633198131E+00  0.50588854569E+00  0.10547661206E+01  0.90007790494E+02  0.90000052528E+02 0.  0.
        -12    1    1    2    0    0  0.15633198131E+00 -0.50588854569E+00 -0.10547661206E+01  0.11802095061E+01  0.00000000000E+00 0.  1.
         11    1    3    3    0    0 -0.70596127095E+01 -0.20434197042E+01 -0.67139032908E+01  0.99544057259E+01  0.51100000000E-03 0. -1.
        -11    1    3    3    0    0 -0.75938975644E+01  0.69055448602E+01 -0.34058360475E+02  0.35571417579E+02  0.51100000000E-03 0.  1.
         12    1    3    3    0    0  0.14497178293E+02 -0.43562366103E+01  0.41827029887E+02  0.44481967189E+02  0.00000000000E+00 0. -1.
</event>
<event>
 7    1  0.3622165E-015  0.9000803E+02  0.7816164E-02  0.1186338E+00
        -11   -1    0    0    0    0  0.00000000000E+00  0.00000000000E+00  0.45593999997E+02  0.45594000000E+02  0.51100000000E-03 0.  1.
         11   -1    0    0    0    0 -0.00000000000E+00 -0.00000000000E+00 -0.45593999997E+02  0.45594000000E+02  0.51100000000E-03 0. -1.
    9900012    2    1    2    0    0 -0.23218850122E+00  0.23618087142E+00 -0.11325341896E+01  0.90008031104E+02  0.90000296314E+02 0.  0.
        -12    1    1    2    0    0  0.23218850122E+00 -0.23618087142E+00  0.11325341896E+01  0.11799688956E+01  0.00000000000E+00 0.  1.
         11    1    3    3    0    0  0.56226138049E+01  0.36394842491E+01 -0.81815996074E+01  0.10573466981E+02  0.51100000000E-03 0. -1.
        -11    1    3    3    0    0  0.32416881169E+02 -0.18580178065E+02  0.81753958047E+01  0.38248062676E+02  0.51100000000E-03 0.  1.
         12    1    3    3    0    0 -0.38271683475E+02  0.15176874687E+02 -0.11263303869E+01  0.41186501447E+02  0.00000000000E+00 0. -1.
</event>
<event>
 7    1  0.3622165E-015  0.9000773E+02  0.7816164E-02  0.1186339E+00
        -11   -1    0    0    0    0  0.00000000000E+00  0.00000000000E+00  0.45593999997E+02  0.45594000000E+02  0.51100000000E-03 0.  1.
         11   -1    0    0    0    0 -0.00000000000E+00 -0.00000000000E+00 -0.45593999997E+02  0.45594000000E+02  0.51100000000E-03 0. -1.
    9900012    2    1    2    0    0  0.10552217811E+01 -0.42122308835E+00 -0.31956592268E+00  0.90007727033E+02  0.89999988230E+02 0.  0.
        -12    1    1    2    0    0 -0.10552217811E+01  0.42122308835E+00  0.31956592268E+00  0.11802729669E+01  0.00000000000E+00 0.  1.
         11    1    3    3    0    0 -0.27496622805E+01 -0.25716715574E+01 -0.85065843091E+01  0.93024789237E+01  0.51100000000E-03 0. -1.
        -11    1    3    3    0    0 -0.25890135456E+02 -0.26044629517E+02  0.14089823667E+02  0.39333763764E+02  0.51100000000E-03 0.  1.
         12    1    3    3    0    0  0.29695019518E+02  0.28195077986E+02 -0.59028052807E+01  0.41371484346E+02  0.00000000000E+00 0. -1.
</event>
<event>
 7    1  0.3622165E-015  0.9000773E+02  0.7816164E-02  0.1186339E+00
        -11   -1    0    0    0    0  0.00000000000E+00  0.00000000000E+00  0.45593999997E+02  0.45594000000E+02  0.51100000000E-03 0. -1.
         11   -1    0    0    0    0 -0.00000000000E+00 -0.00000000000E+00 -0.45593999997E+02  0.45594000000E+02  0.51100000000E-03 0.  1.
    9900012    2    1    2    0    0  0.66464045627E+00  0.96026571006E+00 -0.17082762395E+00  0.90007729164E+02  0.89999990389E+02 0.  0.
        -12    1    1    2    0    0 -0.66464045627E+00 -0.96026571006E+00  0.17082762395E+00  0.11802708363E+01  0.00000000000E+00 0.  1.
         11    1    3    3    0    0  0.13050908204E+02  0.29494557394E+02  0.17688312518E+02  0.36784936058E+02  0.51100000000E-03 0. -1.
        -11    1    3    3    0    0  0.35643148338E+01  0.76035911952E+01 -0.98032099534E+01  0.12908209208E+02  0.51100000000E-03 0.  1.
        -12    1    3    3    0    0 -0.15950582581E+02 -0.36137882879E+02 -0.80559301883E+01  0.40314583898E+02  0.00000000000E+00 0.  1.
</event>
<event>
 7    1  0.3622165E-015  0.9000769E+02  0.7816164E-02  0.1186339E+00
        -11   -1    0    0    0    0  0.00000000000E+00  0.00000000000E+00  0.45593999997E+02  0.45594000000E+02  0.51100000000E-03 0. -1.
         11   -1    0    0    0    0 -0.00000000000E+00 -0.00000000000E+00 -0.45593999997E+02  0.45594000000E+02  0.51100000000E-03 0.  1.
    9900012    2    1    2    0    0  0.17926596437E-01 -0.10652490498E+01  0.50799253959E+00  0.90007689312E+02  0.89999950010E+02 0.  0.
        -12    1    1    2    0    0 -0.17926596437E-01  0.10652490498E+01 -0.50799253959E+00  0.11803106884E+01  0.00000000000E+00 0.  1.
         11    1    3    3    0    0  0.36314227081E+02 -0.65627625906E+01  0.10640599228E+01  0.36917816364E+02  0.51100000000E-03 0. -1.
        -11    1    3    3    0    0  0.55237440921E+01 -0.15320853570E+01  0.79870351511E+01  0.98311629578E+01  0.51100000000E-03 0.  1.
        -12    1    3    3    0    0 -0.41820044577E+02  0.70295988978E+01 -0.85431025344E+01  0.43258709990E+02  0.00000000000E+00 0.  1.
</event>
<event>
 7    1  0.3622165E-015  0.9000773E+02  0.7816164E-02  0.1186339E+00
        -11   -1    0    0    0    0  0.00000000000E+00  0.00000000000E+00  0.45593999997E+02  0.45594000000E+02  0.51100000000E-03 0. -1.
         11   -1    0    0    0    0 -0.00000000000E+00 -0.00000000000E+00 -0.45593999997E+02  0.45594000000E+02  0.51100000000E-03 0.  1.
    9900012    2    1    2    0    0  0.60086369898E-01 -0.11372831478E+01 -0.30987682229E+00  0.90007725890E+02  0.89999987072E+02 0.  0.
        -12    1    1    2    0    0 -0.60086369898E-01  0.11372831478E+01  0.30987682229E+00  0.11802741102E+01  0.00000000000E+00 0.  1.
         11    1    3    3    0    0 -0.25106881701E+01  0.20406085524E+00 -0.35218374857E+01  0.43299579048E+01  0.51100000000E-03 0. -1.
        -11    1    3    3    0    0 -0.32102416159E+02  0.18080476198E+02 -0.17582477471E+02  0.40824162662E+02  0.51100000000E-03 0.  1.
         12    1    3    3    0    0  0.34673190699E+02 -0.19421820201E+02  0.20794438134E+02  0.44853605323E+02  0.00000000000E+00 0. -1.
</event>
<event>
 7    1  0.3622165E-015  0.9000814E+02  0.7816164E-02  0.1186338E+00
        -11   -1    0    0    0    0  0.00000000000E+00  0.00000000000E+00  0.45593999997E+02  0.45594000000E+02  0.51100000000E-03 0.  1.
         11   -1    0    0    0    0 -0.00000000000E+00 -0.00000000000E+00 -0.45593999997E+02  0.45594000000E+02  0.51100000000E-03 0. -1.
    9900012    2    1    2    0    0  0.60760661025E+00  0.10066132377E+01  0.98063344693E-01  0.90008138812E+02  0.90000405444E+02 0.  0.
        -12    1    1    2    0    0 -0.60760661025E+00 -0.10066132377E+01 -0.98063344693E-01  0.11798611879E+01  0.00000000000E+00 0.  1.
         11    1    3    3    0    0 -0.36714957276E+01 -0.32013699538E+02  0.16515474133E+02  0.36209359634E+02  0.51100000000E-03 0. -1.
        -11    1    3    3    0    0 -0.51689593286E+01 -0.75703564193E+01 -0.56004336768E+01  0.10742127093E+02  0.51100000000E-03 0.  1.
        -12    1    3    3    0    0  0.94480616664E+01  0.40590669195E+02 -0.10816977112E+02  0.43056652085E+02  0.00000000000E+00 0.  1.
</event>
<event>
 7    1  0.3622165E-015  0.9000779E+02  0.7816164E-02  0.1186339E+00
        -11   -1    0    0    0    0  0.00000000000E+00  0.00000000000E+00  0.45593999997E+02  0.45594000000E+02  0.51100000000E-03 0. -1.
         11   -1    0    0    0    0 -0.00000000000E+00 -0.00000000000E+00 -0.45593999997E+02  0.45594000000E+02  0.51100000000E-03 0.  1.
    9900012    2    1    2    0    0  0.75564373290E+00 -0.11770664114E-01  0.90651443820E+00  0.90007786279E+02  0.90000048258E+02 0.  0.
        -12    1    1    2    0    0 -0.75564373290E+00  0.11770664114E-01 -0.90651443820E+00  0.11802137206E+01  0.00000000000E+00 0.  1.
         11    1    3    3    0    0 -0.27924940394E+02  0.16702995069E+02  0.16782880482E+02  0.36612257753E+02  0.51100000000E-03 0. -1.
        -11    1    3    3    0    0 -0.93998225432E+01 -0.58857041901E+00 -0.48644143844E+01  0.10600264456E+02  0.51100000000E-03 0.  1.
        -12    1    3    3    0    0  0.38080406670E+02 -0.16126195314E+02 -0.11011951660E+02  0.42795264070E+02  0.00000000000E+00 0.  1.
</event>
<event>
 7    1  0.3622165E-015  0.9000769E+02  0.7816164E-02  0.1186339E+00
        -11   -1    0    0    0    0  0.00000000000E+00  0.00000000000E+00  0.45593999997E+02  0.45594000000E+02  0.51100000000E-03 0.  1.
         11   -1    0    0    0    0 -0.00000000000E+00 -0.00000000000E+00 -0.45593999997E+02  0.45594000000E+02  0.51100000000E-03 0. -1.
    9900012    2    1    2    0    0  0.92378228898E-01  0.14057772824E+00 -0.11682607059E+01  0.90007691180E+02  0.89999951903E+02 0.  0.
        -12    1    1    2    0    0 -0.92378228898E-01 -0.14057772824E+00  0.11682607059E+01  0.11803088205E+01  0.00000000000E+00 0.  1.
         11    1    3    3    0    0 -0.29363122311E+02  0.17688923868E+02  0.21963524143E+02  0.40712250890E+02  0.51100000000E-03 0. -1.
        -11    1    3    3    0    0 -0.14002103435E+01  0.48698149683E+01 -0.47963708299E+01  0.69771670634E+01  0.51100000000E-03 0.  1.
        -12    1    3    3    0    0  0.30855710884E+02 -0.22418161108E+02 -0.18335414019E+02  0.42318273226E+02  0.00000000000E+00 0.  1.
</event>
<event>
 7    1  0.3622165E-015  0.9000768E+02  0.7816164E-02  0.1186339E+00
        -11   -1    0    0    0    0  0.00000000000E+00  0.00000000000E+00  0.45593999997E+02  0.45594000000E+02  0.51100000000E-03 0. -1.
         11   -1    0    0    0    0 -0.00000000000E+00 -0.00000000000E+00 -0.45593999997E+02  0.45594000000E+02  0.51100000000E-03 0.  1.
    9900012    2    1    2    0    0  0.57214964999E+00 -0.14062176886E+00  0.10227579982E+01  0.90007676474E+02  0.89999937003E+02 0.  0.
        -12    1    1    2    0    0 -0.57214964999E+00  0.14062176886E+00 -0.10227579982E+01  0.11803235263E+01  0.00000000000E+00 0.  1.
         11    1    3    3    0    0 -0.18194261383E+02 -0.27667430158E+02  0.15322745310E+02  0.36487043767E+02  0.51100000000E-03 0. -1.
        -11    1    3    3    0    0 -0.11196183775E+01 -0.94050166205E+01 -0.10352974633E+01  0.95278394215E+01  0.51100000000E-03 0.  1.
        -12    1    3    3    0    0  0.19886029410E+02  0.36931825010E+02 -0.13264689848E+02  0.43992793285E+02  0.00000000000E+00 0.  1.
</event>
<event>
 7    1  0.3622165E-015  0.9000776E+02  0.7816164E-02  0.1186339E+00
        -11   -1    0    0    0    0  0.00000000000E+00  0.00000000000E+00  0.45593999997E+02  0.45594000000E+02  0.51100000000E-03 0.  1.
         11   -1    0    0    0    0 -0.00000000000E+00 -0.00000000000E+00 -0.45593999997E+02  0.45594000000E+02  0.51100000000E-03 0. -1.
    9900012    2    1    2    0    0  0.68868302757E-01 -0.11391079025E+01 -0.30109679484E+00  0.90007758950E+02  0.90000020568E+02 0.  0.
        -12    1    1    2    0    0 -0.68868302757E-01  0.11391079025E+01  0.30109679484E+00  0.11802410501E+01  0.00000000000E+00 0.  1.
         11    1    3    3    0    0  0.30307728692E+01  0.15590062579E+01 -0.88487779131E+01  0.94824551417E+01  0.51100000000E-03 0. -1.
        -11    1    3    3    0    0 -0.30453212682E+02  0.86287951218E+01 -0.21491785061E+02  0.38259000160E+02  0.51100000000E-03 0.  1.
         12    1    3    3    0    0  0.27491308115E+02 -0.11326909282E+02  0.30039466179E+02  0.42266303648E+02  0.00000000000E+00 0. -1.
</event>
<event>
 7    1  0.5642728E-015  0.9000798E+02  0.7816164E-02  0.1186339E+00
        -11   -1    0    0    0    0  0.00000000000E+00  0.00000000000E+00  0.45593999997E+02  0.45594000000E+02  0.51100000000E-03 0. -1.
         11   -1    0    0    0    0 -0.00000000000E+00 -0.00000000000E+00 -0.45593999997E+02  0.45594000000E+02  0.51100000000E-03 0.  1.
    9900012    2    1    2    0    0 -0.51271445044E+00 -0.13910654272E+00  0.10536743598E+01  0.90007976104E+02  0.90000240589E+02 0.  0.
        -12    1    1    2    0    0  0.51271445044E+00  0.13910654272E+00 -0.10536743598E+01  0.11800238957E+01  0.00000000000E+00 0.  1.
         11    1    3    3    0    0 -0.35325264101E+01  0.88377698267E+01 -0.22772059078E+01  0.97862447014E+01  0.51100000000E-03 0. -1.
        -11    1    3    3    0    0 -0.13497244975E+02 -0.24497663789E+02 -0.29290164499E+02  0.40499689995E+02  0.51100000000E-03 0.  1.
         12    1    3    3    0    0  0.16517056934E+02  0.15520787420E+02  0.32621044767E+02  0.39722041408E+02  0.00000000000E+00 0. -1.
</event>
<event>
 7    1  0.3622165E-015  0.9000776E+02  0.7816164E-02  0.1186339E+00
        -11   -1    0    0    0    0  0.00000000000E+00  0.00000000000E+00  0.45593999997E+02  0.45594000000E+02  0.51100000000E-03 0.  1.
         11   -1    0    0    0    0 -0.00000000000E+00 -0.00000000000E+00 -0.45593999997E+02  0.45594000000E+02  0.51100000000E-03 0. -1.
    9900012    2    1    2    0    0 -0.23787324202E+00  0.18652089567E+00 -0.11408685719E+01  0.90007764929E+02  0.90000026626E+02 0.  0.
        -12    1    1    2    0    0  0.23787324202E+00 -0.18652089567E+00  0.11408685719E+01  0.11802350707E+01  0.00000000000E+00 0.  1.
         11    1    3    3    0    0  0.12725036522E+02 -0.84916387193E+01 -0.34343726091E+02  0.37596888232E+02  0.51100000000E-03 0. -1.
        -11    1    3    3    0    0 -0.39438503972E+01  0.26759799781E+01 -0.82707170435E+01  0.95456579382E+01  0.51100000000E-03 0.  1.
        -12    1    3    3    0    0 -0.90190593666E+01  0.60021796368E+01  0.41473574563E+02  0.42865218759E+02  0.00000000000E+00 0.  1.
</event>
<event>
 7    1  0.3622165E-015  0.9000768E+02  0.7816164E-02  0.1186339E+00
        -11   -1    0    0    0    0  0.00000000000E+00  0.00000000000E+00  0.45593999997E+02  0.45594000000E+02  0.51100000000E-03 0.  1.
         11   -1    0    0    0    0 -0.00000000000E+00 -0.00000000000E+00 -0.45593999997E+02  0.45594000000E+02  0.51100000000E-03 0. -1.
    9900012    2    1    2    0    0  0.11058287403E+01  0.23285884045E+00 -0.34068815443E+00  0.90007682729E+02  0.89999943341E+02 0.  0.
        -12    1    1    2    0    0 -0.11058287403E+01 -0.23285884045E+00  0.34068815443E+00  0.11803172714E+01  0.00000000000E+00 0.  1.
         11    1    3    3    0    0 -0.35745116075E+02 -0.14377596107E+02  0.70549473614E+01  0.39168876364E+02  0.51100000000E-03 0. -1.
        -11    1    3    3    0    0 -0.29444576906E+01  0.73001433819E+01  0.39637117444E+01  0.88132250364E+01  0.51100000000E-03 0.  1.
        -12    1    3    3    0    0  0.39795402506E+02  0.73103115654E+01 -0.11359347260E+02  0.42025581329E+02  0.00000000000E+00 0.  1.
</event>
<event>
 7    1  0.3622165E-015  0.9000777E+02  0.7816164E-02  0.1186339E+00
        -11   -1    0    0    0    0  0.00000000000E+00  0.00000000000E+00  0.45593999997E+02  0.45594000000E+02  0.51100000000E-03 0.  1.
         11   -1    0    0    0    0 -0.00000000000E+00 -0.00000000000E+00 -0.45593999997E+02  0.45594000000E+02  0.51100000000E-03 0. -1.
    9900012    2    1    2    0    0  0.11461337173E+01 -0.20423345651E+00 -0.19393813045E+00  0.90007768751E+02  0.90000030499E+02 0.  0.
        -12    1    1    2    0    0 -0.11461337173E+01  0.20423345651E+00  0.19393813045E+00  0.11802312490E+01  0.00000000000E+00 0.  1.
         11    1    3    3    0    0  0.12472751657E+01  0.13667561618E+01  0.10332910655E+02  0.10497273961E+02  0.51100000000E-03 0. -1.
        -11    1    3    3    0    0 -0.21658935308E+01 -0.12126696414E+02  0.32711677230E+02  0.34954279970E+02  0.51100000000E-03 0.  1.
         12    1    3    3    0    0  0.20647520824E+01  0.10555706796E+02 -0.43238526016E+02  0.44556214821E+02  0.00000000000E+00 0. -1.
</event>
<event>
 7    1  0.3622165E-015  0.9000774E+02  0.7816164E-02  0.1186339E+00
        -11   -1    0    0    0    0  0.00000000000E+00  0.00000000000E+00  0.45593999997E+02  0.45594000000E+02  0.51100000000E-03 0. -1.
         11   -1    0    0    0    0 -0.00000000000E+00 -0.00000000000E+00 -0.45593999997E+02  0.45594000000E+02  0.51100000000E-03 0.  1.
    9900012    2    1    2    0    0 -0.28558224654E-01  0.50795994838E+00  0.10649713749E+01  0.90007744557E+02  0.90000005985E+02 0.  0.
        -12    1    1    2    0    0  0.28558224654E-01 -0.50795994838E+00 -0.10649713749E+01  0.11802554430E+01  0.00000000000E+00 0.  1.
         11    1    3    3    0    0 -0.44753653018E+01 -0.74438338343E+01  0.40575464948E+02  0.41494673306E+02  0.51100000000E-03 0. -1.
        -11    1    3    3    0    0 -0.73482002786E+01  0.27578308637E+01 -0.10108033435E+01  0.79134949338E+01  0.51100000000E-03 0.  1.
        -12    1    3    3    0    0  0.11795007356E+02  0.51939629189E+01 -0.38499690230E+02  0.40599576317E+02  0.00000000000E+00 0.  1.
</event>
<event>
 7    1  0.3622165E-015  0.9000775E+02  0.7816164E-02  0.1186339E+00
        -11   -1    0    0    0    0  0.00000000000E+00  0.00000000000E+00  0.45593999997E+02  0.45594000000E+02  0.51100000000E-03 0.  1.
         11   -1    0    0    0    0 -0.00000000000E+00 -0.00000000000E+00 -0.45593999997E+02  0.45594000000E+02  0.51100000000E-03 0. -1.
    9900012    2    1    2    0    0 -0.93994677024E-01  0.11463413104E+01 -0.26466886125E+00  0.90007752990E+02  0.90000014529E+02 0.  0.
        -12    1    1    2    0    0  0.93994677024E-01 -0.11463413104E+01  0.26466886125E+00  0.11802470104E+01  0.00000000000E+00 0.  1.
         11    1    3    3    0    0 -0.15640630730E+02 -0.28374702841E+02  0.10069400466E+02  0.33928541332E+02  0.51100000000E-03 0. -1.
        -11    1    3    3    0    0 -0.87733486221E+01 -0.62850192229E+01 -0.65623835097E+01  0.12630834900E+02  0.51100000000E-03 0.  1.
        -12    1    3    3    0    0  0.24319984675E+02  0.35806063374E+02 -0.37716858177E+01  0.43448376757E+02  0.00000000000E+00 0.  1.
</event>
<event>
 7    1  0.3622165E-015  0.9000771E+02  0.7816164E-02  0.1186339E+00
        -11   -1    0    0    0    0  0.00000000000E+00  0.00000000000E+00  0.45593999997E+02  0.45594000000E+02  0.51100000000E-03 0.  1.
         11   -1    0    0    0    0 -0.00000000000E+00 -0.00000000000E+00 -0.45593999997E+02  0.45594000000E+02  0.51100000000E-03 0. -1.
    9900012    2    1    2    0    0 -0.21693828506E+00  0.45371447733E+00 -0.10677902010E+01  0.90007705562E+02  0.89999966476E+02 0.  0.
        -12    1    1    2    0    0  0.21693828506E+00 -0.45371447733E+00  0.10677902010E+01  0.11802944377E+01  0.00000000000E+00 0.  1.
         11    1    3    3    0    0  0.64617316105E+01 -0.14327494089E+01  0.68765527242E+01  0.95443032174E+01  0.51100000000E-03 0. -1.
        -11    1    3    3    0    0  0.20981212938E+02  0.13525295560E+02  0.25393553750E+02  0.35608671537E+02  0.51100000000E-03 0.  1.
         12    1    3    3    0    0 -0.27659882834E+02 -0.11638831673E+02 -0.33337896675E+02  0.44854730808E+02  0.00000000000E+00 0. -1.
</event>
<event>
 7    1  0.3622165E-015  0.9000772E+02  0.7816164E-02  0.1186339E+00
        -11   -1    0    0    0    0  0.00000000000E+00  0.00000000000E+00  0.45593999997E+02  0.45594000000E+02  0.51100000000E-03 0.  1.
         11   -1    0    0    0    0 -0.00000000000E+00 -0.00000000000E+00 -0.45593999997E+02  0.45594000000E+02  0.51100000000E-03 0. -1.
    9900012    2    1    2    0    0  0.39187514484E+00 -0.10369187163E+01 -0.40533133053E+00  0.90007720355E+02  0.89999981464E+02 0.  0.
        -12    1    1    2    0    0 -0.39187514484E+00  0.10369187163E+01  0.40533133053E+00  0.11802796452E+01  0.00000000000E+00 0.  1.
         11    1    3    3    0    0  0.10732884129E+02 -0.36025277608E+02 -0.38997246835E+01  0.37791841465E+02  0.51100000000E-03 0. -1.
        -11    1    3    3    0    0  0.37867437809E+01 -0.46814017421E+01  0.78361007792E+01  0.98822784020E+01  0.51100000000E-03 0.  1.
        -12    1    3    3    0    0 -0.14127752765E+02  0.39669760634E+02 -0.43417074262E+01  0.42333600488E+02  0.00000000000E+00 0.  1.
</event>
<event>
 7    1  0.3622165E-015  0.9000767E+02  0.7816164E-02  0.1186339E+00
        -11   -1    0    0    0    0  0.00000000000E+00  0.00000000000E+00  0.45593999997E+02  0.45594000000E+02  0.51100000000E-03 0. -1.
         11   -1    0    0    0    0 -0.00000000000E+00 -0.00000000000E+00 -0.45593999997E+02  0.45594000000E+02  0.51100000000E-03 0.  1.
    9900012    2    1    2    0    0 -0.98186735461E+00 -0.53603301080E-01  0.65287407274E+00  0.90007668957E+02  0.89999929387E+02 0.  0.
        -12    1    1    2    0    0  0.98186735461E+00  0.53603301080E-01 -0.65287407274E+00  0.11803310429E+01  0.00000000000E+00 0.  1.
         11    1    3    3    0    0 -0.47299506507E+01 -0.76925442531E+01 -0.17446508391E+00  0.90320600402E+01  0.51100000000E-03 0. -1.
        -11    1    3    3    0    0  0.29845344801E+02 -0.95845737067E+01  0.26084940543E+02  0.40780298954E+02  0.51100000000E-03 0.  1.
         12    1    3    3    0    0 -0.26097261505E+02  0.17223514659E+02 -0.25257601386E+02  0.40195309963E+02  0.00000000000E+00 0. -1.
</event>
<event>
 7    1  0.3622165E-015  0.9000773E+02  0.7816164E-02  0.1186339E+00
        -11   -1    0    0    0    0  0.00000000000E+00  0.00000000000E+00  0.45593999997E+02  0.45594000000E+02  0.51100000000E-03 0.  1.
         11   -1    0    0    0    0 -0.00000000000E+00 -0.00000000000E+00 -0.45593999997E+02  0.45594000000E+02  0.51100000000E-03 0. -1.
    9900012    2    1    2    0    0 -0.11688566286E+01  0.97803054150E-01  0.13136370239E+00  0.90007725592E+02  0.89999986770E+02 0.  0.
        -12    1    1    2    0    0  0.11688566286E+01 -0.97803054150E-01 -0.13136370239E+00  0.11802744079E+01  0.00000000000E+00 0.  1.
         11    1    3    3    0    0  0.31504496664E+01 -0.93994365507E+01 -0.11160338759E+01  0.99759847857E+01  0.51100000000E-03 0. -1.
        -11    1    3    3    0    0  0.28559285745E+02  0.10813608801E+02  0.24986415429E+02  0.39457418743E+02  0.51100000000E-03 0.  1.
         12    1    3    3    0    0 -0.32878592040E+02 -0.13163691962E+01 -0.23739017851E+02  0.40574322064E+02  0.00000000000E+00 0. -1.
</event>
<event>
 7    1  0.3622165E-015  0.9000776E+02  0.7816164E-02  0.1186339E+00
        -11   -1    0    0    0    0  0.00000000000E+00  0.00000000000E+00  0.45593999997E+02  0.45594000000E+02  0.51100000000E-03 0.  1.
         11   -1    0    0    0    0 -0.00000000000E+00 -0.00000000000E+00 -0.45593999997E+02  0.45594000000E+02  0.51100000000E-03 0. -1.
    9900012    2    1    2    0    0 -0.79652210222E+00  0.78083969546E+00 -0.38575584481E+00  0.90007760337E+02  0.90000021974E+02 0.  0.
        -12    1    1    2    0    0  0.79652210222E+00 -0.78083969546E+00  0.38575584481E+00  0.11802396626E+01  0.00000000000E+00 0.  1.
         11    1    3    3    0    0  0.25590764820E+02  0.10145251621E+02 -0.27653214184E+02  0.39019400681E+02  0.51100000000E-03 0. -1.
        -11    1    3    3    0    0 -0.57759357082E+01 -0.44853301478E+01 -0.73735313862E+01  0.10385017343E+02  0.51100000000E-03 0.  1.
        -12    1    3    3    0    0 -0.20611351214E+02 -0.48790817782E+01  0.34640989725E+02  0.40603342314E+02  0.00000000000E+00 0.  1.
</event>
<event>
 7    1  0.3622165E-015  0.9000776E+02  0.7816164E-02  0.1186339E+00
        -11   -1    0    0    0    0  0.00000000000E+00  0.00000000000E+00  0.45593999997E+02  0.45594000000E+02  0.51100000000E-03 0.  1.
         11   -1    0    0    0    0 -0.00000000000E+00 -0.00000000000E+00 -0.45593999997E+02  0.45594000000E+02  0.51100000000E-03 0. -1.
    9900012    2    1    2    0    0 -0.40607820058E+00  0.81854475906E+00  0.74702631411E+00  0.90007761320E+02  0.90000022970E+02 0.  0.
        -12    1    1    2    0    0  0.40607820058E+00 -0.81854475906E+00 -0.74702631411E+00  0.11802386799E+01  0.00000000000E+00 0.  1.
         11    1    3    3    0    0  0.12690989731E+01  0.57203206046E+01  0.18107887338E+02  0.19032295294E+02  0.51100000000E-03 0. -1.
        -11    1    3    3    0    0  0.13881245756E+01 -0.20050572513E+01  0.26650895703E+02  0.26762238069E+02  0.51100000000E-03 0.  1.
         12    1    3    3    0    0 -0.30633017493E+01 -0.28967185943E+01 -0.44011756727E+02  0.44213227958E+02  0.00000000000E+00 0. -1.
</event>
<event>
 7    1  0.3622165E-015  0.9000759E+02  0.7816164E-02  0.1186339E+00
        -11   -1    0    0    0    0  0.00000000000E+00  0.00000000000E+00  0.45593999997E+02  0.45594000000E+02  0.51100000000E-03 0.  1.
         11   -1    0    0    0    0 -0.00000000000E+00 -0.00000000000E+00 -0.45593999997E+02  0.45594000000E+02  0.51100000000E-03 0. -1.
    9900012    2    1    2    0    0  0.74983259306E+00  0.26673381156E+00 -0.87176100679E+00  0.90007591979E+02  0.89999851393E+02 0.  0.
        -12    1    1    2    0    0 -0.74983259306E+00 -0.26673381156E+00  0.87176100679E+00  0.11804080213E+01  0.00000000000E+00 0.  1.
         11    1    3    3    0    0 -0.17126308621E+02 -0.22516804317E+02 -0.28195587789E+02  0.39941308124E+02  0.51100000000E-03 0. -1.
        -11    1    3    3    0    0  0.96692549263E+01 -0.26130501203E+01 -0.22124956760E+01  0.10257565946E+02  0.51100000000E-03 0.  1.
        -12    1    3    3    0    0  0.82068862876E+01  0.25396588249E+02  0.29536322458E+02  0.39808717909E+02  0.00000000000E+00 0.  1.
</event>
<event>
 7    1  0.3622165E-015  0.9000773E+02  0.7816164E-02  0.1186339E+00
        -11   -1    0    0    0    0  0.00000000000E+00  0.00000000000E+00  0.45593999997E+02  0.45594000000E+02  0.51100000000E-03 0. -1.
         11   -1    0    0    0    0 -0.00000000000E+00 -0.00000000000E+00 -0.45593999997E+02  0.45594000000E+02  0.51100000000E-03 0.  1.
    9900012    2    1    2    0    0  0.10277013297E+01  0.41893383937E+00 -0.40168540622E+00  0.90007734458E+02  0.89999995753E+02 0.  0.
        -12    1    1    2    0    0 -0.10277013297E+01 -0.41893383937E+00  0.40168540622E+00  0.11802655423E+01  0.00000000000E+00 0.  1.
         11    1    3    3    0    0  0.20704480321E+02  0.33926000313E+02  0.15018758094E+02  0.42487787628E+02  0.51100000000E-03 0. -1.
        -11    1    3    3    0    0 -0.10044581538E+01 -0.20526675648E+00 -0.86919479561E+01  0.87522014463E+01  0.51100000000E-03 0.  1.
        -12    1    3    3    0    0 -0.18672320837E+02 -0.33301799717E+02 -0.67284955440E+01  0.38767745383E+02  0.00000000000E+00 0.  1.
</event>
<event>
 7    1  0.3622165E-015  0.9000780E+02  0.7816164E-02  0.1186339E+00
        -11   -1    0    0    0    0  0.00000000000E+00  0.00000000000E+00  0.45593999997E+02  0.45594000000E+02  0.51100000000E-03 0. -1.
         11   -1    0    0    0    0 -0.00000000000E+00 -0.00000000000E+00 -0.45593999997E+02  0.45594000000E+02  0.51100000000E-03 0.  1.
    9900012    2    1    2    0    0  0.10563780854E+01 -0.49489224608E+00 -0.17895849681E+00  0.90007796993E+02  0.90000059113E+02 0.  0.
        -12    1    1    2    0    0 -0.10563780854E+01  0.49489224608E+00  0.17895849681E+00  0.11802030072E+01  0.00000000000E+00 0.  1.
         11    1    3    3    0    0  0.65012818719E+01  0.82991584357E+01 -0.59457508440E+00  0.10559176886E+02  0.51100000000E-03 0. -1.
        -11    1    3    3    0    0 -0.43645291682E+01  0.31605166567E+02 -0.16164261520E+02  0.35766171438E+02  0.51100000000E-03 0.  1.
         12    1    3    3    0    0 -0.10803746183E+01 -0.40399217249E+02  0.16579878108E+02  0.43682448669E+02  0.00000000000E+00 0. -1.
</event>
<event>
 7    1  0.3622165E-015  0.9000778E+02  0.7816164E-02  0.1186339E+00
        -11   -1    0    0    0    0  0.00000000000E+00  0.00000000000E+00  0.45593999997E+02  0.45594000000E+02  0.51100000000E-03 0.  1.
         11   -1    0    0    0    0 -0.00000000000E+00 -0.00000000000E+00 -0.45593999997E+02  0.45594000000E+02  0.51100000000E-03 0. -1.
    9900012    2    1    2    0    0 -0.90936174281E+00 -0.64857437418E+00 -0.38121747292E+00  0.90007782113E+02  0.90000044037E+02 0.  0.
        -12    1    1    2    0    0  0.90936174281E+00  0.64857437418E+00  0.38121747292E+00  0.11802178866E+01  0.00000000000E+00 0.  1.
         11    1    3    3    0    0 -0.23746803415E+02  0.21703967884E+02 -0.19305108033E+02  0.37518796499E+02  0.51100000000E-03 0. -1.
        -11    1    3    3    0    0 -0.93393560135E+01 -0.60515173146E-01  0.86423933727E+00  0.93794532211E+01  0.51100000000E-03 0.  1.
        -12    1    3    3    0    0  0.32176797686E+02 -0.22292027085E+02  0.18059651223E+02  0.43109532393E+02  0.00000000000E+00 0.  1.
</event>
<event>
 7    1  0.3622165E-015  0.9000795E+02  0.7816164E-02  0.1186339E+00
        -11   -1    0    0    0    0  0.00000000000E+00  0.00000000000E+00  0.45593999997E+02  0.45594000000E+02  0.51100000000E-03 0. -1.
         11   -1    0    0    0    0 -0.00000000000E+00 -0.00000000000E+00 -0.45593999997E+02  0.45594000000E+02  0.51100000000E-03 0.  1.
    9900012    2    1    2    0    0  0.73444761911E+00  0.92267780396E+00 -0.42186634611E-01  0.90007946041E+02  0.90000210128E+02 0.  0.
        -12    1    1    2    0    0 -0.73444761911E+00 -0.92267780396E+00  0.42186634611E-01  0.11800539595E+01  0.00000000000E+00 0.  1.
         11    1    3    3    0    0  0.23864484570E+01 -0.61272461800E+01 -0.62524515910E+01  0.90736670177E+01  0.51100000000E-03 0. -1.
        -11    1    3    3    0    0 -0.18178786268E+02  0.74071908447E+01 -0.32991468884E+02  0.38389735162E+02  0.51100000000E-03 0.  1.
         12    1    3    3    0    0  0.16526785430E+02 -0.35726686071E+00  0.39201733840E+02  0.42544543861E+02  0.00000000000E+00 0. -1.
</event>
<event>
 7    1  0.3622165E-015  0.9000770E+02  0.7816164E-02  0.1186339E+00
        -11   -1    0    0    0    0  0.00000000000E+00  0.00000000000E+00  0.45593999997E+02  0.45594000000E+02  0.51100000000E-03 0.  1.
         11   -1    0    0    0    0 -0.00000000000E+00 -0.00000000000E+00 -0.45593999997E+02  0.45594000000E+02  0.51100000000E-03 0. -1.
    9900012    2    1    2    0    0 -0.40743513317E+00 -0.23900958813E+00 -0.10816506874E+01  0.90007704621E+02  0.89999965522E+02 0.  0.
        -12    1    1    2    0    0  0.40743513317E+00  0.23900958813E+00  0.10816506874E+01  0.11802953785E+01  0.00000000000E+00 0.  1.
         11    1    3    3    0    0  0.29691322108E+01 -0.93270003857E+01 -0.12361269856E+01  0.98659359650E+01  0.51100000000E-03 0. -1.
        -11    1    3    3    0    0 -0.30930880607E+02 -0.85798654011E+01  0.23632510038E+02  0.39860117867E+02  0.51100000000E-03 0.  1.
         12    1    3    3    0    0  0.27554313263E+02  0.17667856199E+02 -0.23478033740E+02  0.40281650789E+02  0.00000000000E+00 0. -1.
</event>
<event>
 7    1  0.3622165E-015  0.9000779E+02  0.7816164E-02  0.1186339E+00
        -11   -1    0    0    0    0  0.00000000000E+00  0.00000000000E+00  0.45593999997E+02  0.45594000000E+02  0.51100000000E-03 0.  1.
         11   -1    0    0    0    0 -0.00000000000E+00 -0.00000000000E+00 -0.45593999997E+02  0.45594000000E+02  0.51100000000E-03 0. -1.
    9900012    2    1    2    0    0  0.64206715648E+00  0.90837196178E+00  0.39433766715E+00  0.90007791523E+02  0.90000053571E+02 0.  0.
        -12    1    1    2    0    0 -0.64206715648E+00 -0.90837196178E+00 -0.39433766715E+00  0.11802084774E+01  0.00000000000E+00 0.  1.
         11    1    3    3    0    0  0.40952310444E+01  0.80536625889E+01  0.41720187014E+01  0.99517907288E+01  0.51100000000E-03 0. -1.
        -11    1    3    3    0    0 -0.28938131632E+02  0.20927032848E+02  0.13773056162E+02  0.38276013931E+02  0.51100000000E-03 0.  1.
         12    1    3    3    0    0  0.25484967744E+02 -0.28072323475E+02 -0.17550737196E+02  0.41779986863E+02  0.00000000000E+00 0. -1.
</event>
<event>
 7    1  0.3622165E-015  0.9000770E+02  0.7816164E-02  0.1186339E+00
        -11   -1    0    0    0    0  0.00000000000E+00  0.00000000000E+00  0.45593999997E+02  0.45594000000E+02  0.51100000000E-03 0. -1.
         11   -1    0    0    0    0 -0.00000000000E+00 -0.00000000000E+00 -0.45593999997E+02  0.45594000000E+02  0.51100000000E-03 0.  1.
    9900012    2    1    2    0    0 -0.11404224923E+01 -0.30398756658E+00  0.11785897368E-01  0.90007698848E+02  0.89999959673E+02 0.  0.
        -12    1    1    2    0    0  0.11404224923E+01  0.30398756658E+00 -0.11785897368E-01  0.11803011518E+01  0.00000000000E+00 0.  1.
         11    1    3    3    0    0 -0.24689354604E+02  0.18008625447E+02 -0.18407404782E+02  0.35675024490E+02  0.51100000000E-03 0. -1.
        -11    1    3    3    0    0 -0.45460106677E+01  0.42652964635E+01 -0.76367700881E+01  0.98579523509E+01  0.51100000000E-03 0.  1.
        -12    1    3    3    0    0  0.28094942780E+02 -0.22577909477E+02  0.26055960767E+02  0.44474722008E+02  0.00000000000E+00 0.  1.
</event>
<event>
 7    1  0.3622165E-015  0.9000767E+02  0.7816164E-02  0.1186339E+00
        -11   -1    0    0    0    0  0.00000000000E+00  0.00000000000E+00  0.45593999997E+02  0.45594000000E+02  0.51100000000E-03 0.  1.
         11   -1    0    0    0    0 -0.00000000000E+00 -0.00000000000E+00 -0.45593999997E+02  0.45594000000E+02  0.51100000000E-03 0. -1.
    9900012    2    1    2    0    0 -0.93297377917E+00  0.68500720482E+00 -0.23128402988E+00  0.90007674941E+02  0.89999935450E+02 0.  0.
        -12    1    1    2    0    0  0.93297377917E+00 -0.68500720482E+00  0.23128402988E+00  0.11803250594E+01  0.00000000000E+00 0.  1.
         11    1    3    3    0    0 -0.46623927688E+01  0.45248712967E+01 -0.65832048560E+01  0.92493758178E+01  0.51100000000E-03 0. -1.
        -11    1    3    3    0    0  0.26385085715E+02  0.24126105497E+02  0.21488828449E+02  0.41713444632E+02  0.51100000000E-03 0.  1.
         12    1    3    3    0    0 -0.22655666726E+02 -0.27965969589E+02 -0.15136907623E+02  0.39044854491E+02  0.00000000000E+00 0. -1.
</event>
<event>
 7    1  0.3622165E-015  0.9000772E+02  0.7816164E-02  0.1186339E+00
        -11   -1    0    0    0    0  0.00000000000E+00  0.00000000000E+00  0.45593999997E+02  0.45594000000E+02  0.51100000000E-03 0.  1.
         11   -1    0    0    0    0 -0.00000000000E+00 -0.00000000000E+00 -0.45593999997E+02  0.45594000000E+02  0.51100000000E-03 0. -1.
    9900012    2    1    2    0    0 -0.92707909274E+00  0.29795348151E+00  0.66694714151E+00  0.90007715962E+02  0.89999977012E+02 0.  0.
        -12    1    1    2    0    0  0.92707909274E+00 -0.29795348151E+00 -0.66694714151E+00  0.11802840382E+01  0.00000000000E+00 0.  1.
         11    1    3    3    0    0  0.13067312760E+02 -0.81510999634E+01 -0.34710349171E+01  0.15787437317E+02  0.51100000000E-03 0. -1.
        -11    1    3    3    0    0 -0.25100636155E+02  0.15603008372E+02  0.31892907969E+02  0.43481644226E+02  0.51100000000E-03 0.  1.
         12    1    3    3    0    0  0.11106244302E+02 -0.71539549271E+01 -0.27754925911E+02  0.30738634418E+02  0.00000000000E+00 0. -1.
</event>
<event>
 7    1  0.3622165E-015  0.9000717E+02  0.7816164E-02  0.1186340E+00
        -11   -1    0    0    0    0  0.00000000000E+00  0.00000000000E+00  0.45593999997E+02  0.45594000000E+02  0.51100000000E-03 0. -1.
         11   -1    0    0    0    0 -0.00000000000E+00 -0.00000000000E+00 -0.45593999997E+02  0.45594000000E+02  0.51100000000E-03 0.  1.
    9900012    2    1    2    0    0 -0.69448885994E+00  0.14128378129E+00  0.94449888754E+00  0.90007172311E+02  0.89999426183E+02 0.  0.
        -12    1    1    2    0    0  0.69448885994E+00 -0.14128378129E+00 -0.94449888754E+00  0.11808276894E+01  0.00000000000E+00 0.  1.
         11    1    3    3    0    0 -0.20070309377E+01  0.28241946504E+02  0.28845908093E+02  0.40419328662E+02  0.51100000000E-03 0. -1.
        -11    1    3    3    0    0  0.93283028984E+00 -0.72240601790E+01  0.62242326167E+01  0.95811424030E+01  0.51100000000E-03 0.  1.
        -12    1    3    3    0    0  0.37971178796E+00 -0.20876602543E+02 -0.34125641822E+02  0.40006701246E+02  0.00000000000E+00 0.  1.
</event>
<event>
 7    1  0.3622165E-015  0.9000760E+02  0.7816164E-02  0.1186339E+00
        -11   -1    0    0    0    0  0.00000000000E+00  0.00000000000E+00  0.45593999997E+02  0.45594000000E+02  0.51100000000E-03 0.  1.
         11   -1    0    0    0    0 -0.00000000000E+00 -0.00000000000E+00 -0.45593999997E+02  0.45594000000E+02  0.51100000000E-03 0. -1.
    9900012    2    1    2    0    0 -0.84641379259E+00  0.55457018308E+00 -0.60777115822E+00  0.90007597451E+02  0.89999856938E+02 0.  0.
        -12    1    1    2    0    0  0.84641379259E+00 -0.55457018308E+00  0.60777115822E+00  0.11804025487E+01  0.00000000000E+00 0.  1.
         11    1    3    3    0    0 -0.16494595620E+02  0.23037187045E+02  0.21047107675E+02  0.35295387990E+02  0.51100000000E-03 0. -1.
        -11    1    3    3    0    0 -0.10171614639E+01  0.93141046967E+01  0.44030949699E+01  0.10352507393E+02  0.51100000000E-03 0.  1.
        -12    1    3    3    0    0  0.16665343292E+02 -0.31796721558E+02 -0.26057973803E+02  0.44359702069E+02  0.00000000000E+00 0.  1.
</event>
<event>
 7    1  0.3622165E-015  0.9000778E+02  0.7816164E-02  0.1186339E+00
        -11   -1    0    0    0    0  0.00000000000E+00  0.00000000000E+00  0.45593999997E+02  0.45594000000E+02  0.51100000000E-03 0.  1.
         11   -1    0    0    0    0 -0.00000000000E+00 -0.00000000000E+00 -0.45593999997E+02  0.45594000000E+02  0.51100000000E-03 0. -1.
    9900012    2    1    2    0    0  0.79560532027E-01 -0.76566318026E+00 -0.89461907134E+00  0.90007782534E+02  0.90000044464E+02 0.  0.
        -12    1    1    2    0    0 -0.79560532027E-01  0.76566318026E+00  0.89461907134E+00  0.11802174658E+01  0.00000000000E+00 0.  1.
         11    1    3    3    0    0  0.35059993192E+01  0.11076909209E+02 -0.34629404204E+02  0.36526505234E+02  0.51100000000E-03 0. -1.
        -11    1    3    3    0    0 -0.15483098635E+01  0.25567518750E+01 -0.83991677129E+01  0.89151703357E+01  0.51100000000E-03 0.  1.
        -12    1    3    3    0    0 -0.18781289237E+01 -0.14399324265E+02  0.42133952846E+02  0.44566106964E+02  0.00000000000E+00 0.  1.
</event>
<event>
 7    1  0.3622165E-015  0.9000786E+02  0.7816164E-02  0.1186339E+00
        -11   -1    0    0    0    0  0.00000000000E+00  0.00000000000E+00  0.45593999997E+02  0.45594000000E+02  0.51100000000E-03 0. -1.
         11   -1    0    0    0    0 -0.00000000000E+00 -0.00000000000E+00 -0.45593999997E+02  0.45594000000E+02  0.51100000000E-03 0.  1.
    9900012    2    1    2    0    0 -0.97440645658E-01 -0.67716509049E+00  0.96160013470E+00  0.90007863543E+02  0.90000126541E+02 0.  0.
        -12    1    1    2    0    0  0.97440645658E-01  0.67716509049E+00 -0.96160013470E+00  0.11801364575E+01  0.00000000000E+00 0.  1.
         11    1    3    3    0    0  0.78311141468E+01 -0.30487688310E+01 -0.21850597295E+01  0.86830770150E+01  0.51100000000E-03 0. -1.
        -11    1    3    3    0    0  0.24763865831E+02 -0.13066560260E+02 -0.23384374637E+02  0.36480310105E+02  0.51100000000E-03 0.  1.
         12    1    3    3    0    0 -0.32692420623E+02  0.15438164001E+02  0.26531034501E+02  0.44844476423E+02  0.00000000000E+00 0. -1.
</event>
<event>
 7    1  0.3622165E-015  0.9000764E+02  0.7816164E-02  0.1186339E+00
        -11   -1    0    0    0    0  0.00000000000E+00  0.00000000000E+00  0.45593999997E+02  0.45594000000E+02  0.51100000000E-03 0.  1.
         11   -1    0    0    0    0 -0.00000000000E+00 -0.00000000000E+00 -0.45593999997E+02  0.45594000000E+02  0.51100000000E-03 0. -1.
    9900012    2    1    2    0    0 -0.56941509489E+00 -0.86954988796E+00  0.55937034435E+00  0.90007641690E+02  0.89999901760E+02 0.  0.
        -12    1    1    2    0    0  0.56941509489E+00  0.86954988796E+00 -0.55937034435E+00  0.11803583100E+01  0.00000000000E+00 0.  1.
         11    1    3    3    0    0 -0.85914608798E+01 -0.49158392246E+01  0.56130421785E+01  0.11379143996E+02  0.51100000000E-03 0. -1.
        -11    1    3    3    0    0  0.22244955995E+01  0.34265127754E+02  0.19297741895E+02  0.39388452663E+02  0.51100000000E-03 0.  1.
         12    1    3    3    0    0  0.57975501853E+01 -0.30218838417E+02 -0.24351413729E+02  0.39240045031E+02  0.00000000000E+00 0. -1.
</event>
<event>
 7    1  0.3622165E-015  0.9000739E+02  0.7816164E-02  0.1186340E+00
        -11   -1    0    0    0    0  0.00000000000E+00  0.00000000000E+00  0.45593999997E+02  0.45594000000E+02  0.51100000000E-03 0. -1.
         11   -1    0    0    0    0 -0.00000000000E+00 -0.00000000000E+00 -0.45593999997E+02  0.45594000000E+02  0.51100000000E-03 0.  1.
    9900012    2    1    2    0    0  0.83088432287E+00  0.80070021166E+00 -0.24970448041E+00  0.90007389177E+02  0.89999645914E+02 0.  0.
        -12    1    1    2    0    0 -0.83088432287E+00 -0.80070021166E+00  0.24970448041E+00  0.11806108226E+01  0.00000000000E+00 0.  1.
         11    1    3    3    0    0  0.12162995894E+02 -0.15991671883E+01  0.42164484166E+00  0.12274917085E+02  0.51100000000E-03 0. -1.
        -11    1    3    3    0    0 -0.83907371336E+01  0.31246320779E+02 -0.24190693308E+02  0.40397112209E+02  0.51100000000E-03 0.  1.
         12    1    3    3    0    0 -0.29413744372E+01 -0.28846453379E+02  0.23519343985E+02  0.37335359884E+02  0.00000000000E+00 0. -1.
</event>
<event>
 7    1  0.3622165E-015  0.9000776E+02  0.7816164E-02  0.1186339E+00
        -11   -1    0    0    0    0  0.00000000000E+00  0.00000000000E+00  0.45593999997E+02  0.45594000000E+02  0.51100000000E-03 0. -1.
         11   -1    0    0    0    0 -0.00000000000E+00 -0.00000000000E+00 -0.45593999997E+02  0.45594000000E+02  0.51100000000E-03 0.  1.
    9900012    2    1    2    0    0 -0.73284576245E+00  0.85715917627E+00 -0.34810647020E+00  0.90007761516E+02  0.90000023168E+02 0.  0.
        -12    1    1    2    0    0  0.73284576245E+00 -0.85715917627E+00  0.34810647020E+00  0.11802384842E+01  0.00000000000E+00 0.  1.
         11    1    3    3    0    0  0.24125921977E+02 -0.87694776366E+00  0.24978270999E+02  0.34738209093E+02  0.51100000000E-03 0. -1.
        -11    1    3    3    0    0  0.57924701243E+01 -0.17212106684E+01  0.78912151819E+01  0.99391424989E+01  0.51100000000E-03 0.  1.
        -12    1    3    3    0    0 -0.30651237864E+02  0.34553176084E+01 -0.33217592651E+02  0.45330409924E+02  0.00000000000E+00 0.  1.
</event>
<event>
 7    1  0.3622165E-015  0.9000773E+02  0.7816164E-02  0.1186339E+00
        -11   -1    0    0    0    0  0.00000000000E+00  0.00000000000E+00  0.45593999997E+02  0.45594000000E+02  0.51100000000E-03 0.  1.
         11   -1    0    0    0    0 -0.00000000000E+00 -0.00000000000E+00 -0.45593999997E+02  0.45594000000E+02  0.51100000000E-03 0. -1.
    9900012    2    1    2    0    0 -0.88835632597E+00 -0.61120949280E+00  0.47988776021E+00  0.90007726189E+02  0.89999987375E+02 0.  0.
        -12    1    1    2    0    0  0.88835632597E+00  0.61120949280E+00 -0.47988776021E+00  0.11802738108E+01  0.00000000000E+00 0.  1.
         11    1    3    3    0    0  0.28532329363E+02 -0.15510970637E+02  0.13867798536E+02  0.35312885262E+02  0.51100000000E-03 0. -1.
        -11    1    3    3    0    0  0.98791515964E+01  0.80292750014E-02  0.17344180688E+01  0.10030249600E+02  0.51100000000E-03 0.  1.
        -12    1    3    3    0    0 -0.39299837286E+02  0.14891731870E+02 -0.15122328845E+02  0.44664591328E+02  0.00000000000E+00 0.  1.
</event>
<event>
 7    1  0.3622165E-015  0.9000798E+02  0.7816164E-02  0.1186339E+00
        -11   -1    0    0    0    0  0.00000000000E+00  0.00000000000E+00  0.45593999997E+02  0.45594000000E+02  0.51100000000E-03 0. -1.
         11   -1    0    0    0    0 -0.00000000000E+00 -0.00000000000E+00 -0.45593999997E+02  0.45594000000E+02  0.51100000000E-03 0.  1.
    9900012    2    1    2    0    0  0.10755127693E+00 -0.74928698353E+00  0.90523075684E+00  0.90007982634E+02  0.90000247204E+02 0.  0.
        -12    1    1    2    0    0 -0.10755127693E+00  0.74928698353E+00 -0.90523075684E+00  0.11800173660E+01  0.00000000000E+00 0.  1.
         11    1    3    3    0    0 -0.16358861311E+01 -0.35570025735E+02  0.16904465407E+02  0.39416542278E+02  0.51100000000E-03 0. -1.
        -11    1    3    3    0    0 -0.41175120722E+01 -0.18548345629E+01  0.59345845566E+01  0.74574533885E+01  0.51100000000E-03 0.  1.
        -12    1    3    3    0    0  0.58609494802E+01  0.36675573314E+02 -0.21933819207E+02  0.43133986968E+02  0.00000000000E+00 0.  1.
</event>
<event>
 7    1  0.3622165E-015  0.9000773E+02  0.7816164E-02  0.1186339E+00
        -11   -1    0    0    0    0  0.00000000000E+00  0.00000000000E+00  0.45593999997E+02  0.45594000000E+02  0.51100000000E-03 0. -1.
         11   -1    0    0    0    0 -0.00000000000E+00 -0.00000000000E+00 -0.45593999997E+02  0.45594000000E+02  0.51100000000E-03 0.  1.
    9900012    2    1    2    0    0  0.81366495509E+00 -0.46688391138E+00  0.71624619221E+00  0.90007728907E+02  0.89999990128E+02 0.  0.
        -12    1    1    2    0    0 -0.81366495509E+00  0.46688391138E+00 -0.71624619221E+00  0.11802710933E+01  0.00000000000E+00 0.  1.
         11    1    3    3    0    0  0.16770927724E+01  0.81811297502E+01  0.76848119893E+01  0.11349002587E+02  0.51100000000E-03 0. -1.
        -11    1    3    3    0    0 -0.25252060580E+02  0.17613979956E+02  0.17356471959E+02  0.35343542162E+02  0.51100000000E-03 0.  1.
         12    1    3    3    0    0  0.24388632763E+02 -0.26261993617E+02 -0.24325037756E+02  0.43315184158E+02  0.00000000000E+00 0. -1.
</event>
<event>
 7    1  0.3622165E-015  0.9000775E+02  0.7816164E-02  0.1186339E+00
        -11   -1    0    0    0    0  0.00000000000E+00  0.00000000000E+00  0.45593999997E+02  0.45594000000E+02  0.51100000000E-03 0. -1.
         11   -1    0    0    0    0 -0.00000000000E+00 -0.00000000000E+00 -0.45593999997E+02  0.45594000000E+02  0.51100000000E-03 0.  1.
    9900012    2    1    2    0    0 -0.67039284070E+00 -0.40158902134E+00  0.88447122272E+00  0.90007750176E+02  0.90000011678E+02 0.  0.
        -12    1    1    2    0    0  0.67039284070E+00  0.40158902134E+00 -0.88447122272E+00  0.11802498239E+01  0.00000000000E+00 0.  1.
         11    1    3    3    0    0 -0.25693151176E+02  0.19425450791E+02  0.28764084395E+02  0.43184009855E+02  0.51100000000E-03 0. -1.
        -11    1    3    3    0    0  0.68676698346E+00  0.22613622882E+01 -0.81618779596E+01  0.84971560169E+01  0.51100000000E-03 0.  1.
        -12    1    3    3    0    0  0.24335991352E+02 -0.22088402101E+02 -0.19717735213E+02  0.38326584304E+02  0.00000000000E+00 0.  1.
</event>
<event>
 7    1  0.3622165E-015  0.9000775E+02  0.7816164E-02  0.1186339E+00
        -11   -1    0    0    0    0  0.00000000000E+00  0.00000000000E+00  0.45593999997E+02  0.45594000000E+02  0.51100000000E-03 0.  1.
         11   -1    0    0    0    0 -0.00000000000E+00 -0.00000000000E+00 -0.45593999997E+02  0.45594000000E+02  0.51100000000E-03 0. -1.
    9900012    2    1    2    0    0 -0.50563653525E+00 -0.10662375774E+01 -0.21409464925E-01  0.90007750347E+02  0.90000011852E+02 0.  0.
        -12    1    1    2    0    0  0.50563653525E+00  0.10662375774E+01  0.21409464925E-01  0.11802496526E+01  0.00000000000E+00 0.  1.
         11    1    3    3    0    0 -0.27675886077E+02  0.28548270141E+02 -0.44153102381E+01  0.40005666635E+02  0.51100000000E-03 0. -1.
        -11    1    3    3    0    0 -0.12966210762E+00  0.12622265666E+01  0.84899695869E+01  0.85842653742E+01  0.51100000000E-03 0.  1.
        -12    1    3    3    0    0  0.27299911649E+02 -0.30876734285E+02 -0.40960688137E+01  0.41417818338E+02  0.00000000000E+00 0.  1.
</event>
<event>
 7    1  0.3622165E-015  0.9000776E+02  0.7816164E-02  0.1186339E+00
        -11   -1    0    0    0    0  0.00000000000E+00  0.00000000000E+00  0.45593999997E+02  0.45594000000E+02  0.51100000000E-03 0. -1.
         11   -1    0    0    0    0 -0.00000000000E+00 -0.00000000000E+00 -0.45593999997E+02  0.45594000000E+02  0.51100000000E-03 0.  1.
    9900012    2    1    2    0    0  0.81939441239E+00  0.46460531577E+00  0.71112676758E+00  0.90007759947E+02  0.90000021579E+02 0.  0.
        -12    1    1    2    0    0 -0.81939441239E+00 -0.46460531577E+00 -0.71112676758E+00  0.11802400527E+01  0.00000000000E+00 0.  1.
         11    1    3    3    0    0 -0.18802620146E+02 -0.18226196588E+02  0.31752737055E+02  0.41157855595E+02  0.51100000000E-03 0. -1.
        -11    1    3    3    0    0  0.70493190178E+01  0.23419611276E+01  0.38136513654E+01  0.83499471577E+01  0.51100000000E-03 0.  1.
        -12    1    3    3    0    0  0.12572695541E+02  0.16348840776E+02 -0.34855261653E+02  0.40499957195E+02  0.00000000000E+00 0.  1.
</event>
<event>
 7    1  0.3622165E-015  0.9000759E+02  0.7816164E-02  0.1186339E+00
        -11   -1    0    0    0    0  0.00000000000E+00  0.00000000000E+00  0.45593999997E+02  0.45594000000E+02  0.51100000000E-03 0. -1.
         11   -1    0    0    0    0 -0.00000000000E+00 -0.00000000000E+00 -0.45593999997E+02  0.45594000000E+02  0.51100000000E-03 0.  1.
    9900012    2    1    2    0    0  0.60500282301E+00 -0.53486667560E+00  0.86096754287E+00  0.90007586561E+02  0.89999845904E+02 0.  0.
        -12    1    1    2    0    0 -0.60500282301E+00  0.53486667560E+00 -0.86096754287E+00  0.11804134388E+01  0.00000000000E+00 0.  1.
         11    1    3    3    0    0 -0.23127653542E+01 -0.72778280278E+01 -0.56219396206E+01  0.94827142604E+01  0.51100000000E-03 0. -1.
        -11    1    3    3    0    0 -0.18086959931E+02 -0.31084911163E+02 -0.34561658452E+01  0.36129695601E+02  0.51100000000E-03 0.  1.
         12    1    3    3    0    0  0.21004728108E+02  0.37827872516E+02  0.99390730087E+01  0.44395176700E+02  0.00000000000E+00 0. -1.
</event>
<event>
 7    1  0.3622165E-015  0.9000748E+02  0.7816164E-02  0.1186340E+00
        -11   -1    0    0    0    0  0.00000000000E+00  0.00000000000E+00  0.45593999997E+02  0.45594000000E+02  0.51100000000E-03 0.  1.
         11   -1    0    0    0    0 -0.00000000000E+00 -0.00000000000E+00 -0.45593999997E+02  0.45594000000E+02  0.51100000000E-03 0. -1.
    9900012    2    1    2    0    0 -0.98183028947E+00 -0.10902025283E-01  0.65537181265E+00  0.90007482408E+02  0.89999740376E+02 0.  0.
        -12    1    1    2    0    0  0.98183028947E+00  0.10902025283E-01 -0.65537181265E+00  0.11805175917E+01  0.00000000000E+00 0.  1.
         11    1    3    3    0    0 -0.55351920497E+00  0.95724228952E+00 -0.88412854991E+01  0.89101641875E+01  0.51100000000E-03 0. -1.
        -11    1    3    3    0    0 -0.31382680329E+02  0.24415746530E+02  0.10239183837E+02  0.41059008624E+02  0.51100000000E-03 0.  1.
         12    1    3    3    0    0  0.30954369244E+02 -0.25383890845E+02 -0.74252652526E+00  0.40038309597E+02  0.00000000000E+00 0. -1.
</event>
<event>
 7    1  0.3622165E-015  0.9000793E+02  0.7816164E-02  0.1186339E+00
        -11   -1    0    0    0    0  0.00000000000E+00  0.00000000000E+00  0.45593999997E+02  0.45594000000E+02  0.51100000000E-03 0.  1.
         11   -1    0    0    0    0 -0.00000000000E+00 -0.00000000000E+00 -0.45593999997E+02  0.45594000000E+02  0.51100000000E-03 0. -1.
    9900012    2    1    2    0    0  0.61739490639E+00  0.19033591811E+00 -0.98750684621E+00  0.90007926272E+02  0.90000190099E+02 0.  0.
        -12    1    1    2    0    0 -0.61739490639E+00 -0.19033591811E+00  0.98750684621E+00  0.11800737280E+01  0.00000000000E+00 0.  1.
         11    1    3    3    0    0  0.27427548219E+02  0.84299364950E+01 -0.21171950023E+02  0.35659300311E+02  0.51100000000E-03 0. -1.
        -11    1    3    3    0    0  0.57329394578E+01  0.56459811467E+01 -0.62450648525E+01  0.10185506036E+02  0.51100000000E-03 0.  1.
        -12    1    3    3    0    0 -0.32543092771E+02 -0.13885581724E+02  0.26429508029E+02  0.44163119925E+02  0.00000000000E+00 0.  1.
</event>
<event>
 7    1  0.3622165E-015  0.9000774E+02  0.7816164E-02  0.1186339E+00
        -11   -1    0    0    0    0  0.00000000000E+00  0.00000000000E+00  0.45593999997E+02  0.45594000000E+02  0.51100000000E-03 0.  1.
         11   -1    0    0    0    0 -0.00000000000E+00 -0.00000000000E+00 -0.45593999997E+02  0.45594000000E+02  0.51100000000E-03 0. -1.
    9900012    2    1    2    0    0  0.49850159020E+00  0.95641355703E+00  0.47935757409E+00  0.90007739685E+02  0.90000001049E+02 0.  0.
        -12    1    1    2    0    0 -0.49850159020E+00 -0.95641355703E+00 -0.47935757409E+00  0.11802603151E+01  0.00000000000E+00 0.  1.
         11    1    3    3    0    0 -0.84595098257E+01 -0.44205789890E+01  0.77453843199E+00  0.95762589320E+01  0.51100000000E-03 0. -1.
        -11    1    3    3    0    0 -0.28475360706E+01  0.21717765965E+02  0.34120650320E+02  0.40546129269E+02  0.51100000000E-03 0.  1.
         12    1    3    3    0    0  0.11805547487E+02 -0.16340773419E+02 -0.34415831178E+02  0.39885351484E+02  0.00000000000E+00 0. -1.
</event>
<event>
 7    1  0.3622165E-015  0.9000775E+02  0.7816164E-02  0.1186339E+00
        -11   -1    0    0    0    0  0.00000000000E+00  0.00000000000E+00  0.45593999997E+02  0.45594000000E+02  0.51100000000E-03 0.  1.
         11   -1    0    0    0    0 -0.00000000000E+00 -0.00000000000E+00 -0.45593999997E+02  0.45594000000E+02  0.51100000000E-03 0. -1.
    9900012    2    1    2    0    0 -0.10518617818E+01 -0.43529687096E+00 -0.31158065371E+00  0.90007754654E+02  0.90000016215E+02 0.  0.
        -12    1    1    2    0    0  0.10518617818E+01  0.43529687096E+00  0.31158065371E+00  0.11802453464E+01  0.00000000000E+00 0.  1.
         11    1    3    3    0    0 -0.51053741927E+01  0.63438226349E+01  0.24970367217E+01  0.85172838347E+01  0.51100000000E-03 0. -1.
        -11    1    3    3    0    0 -0.31249462767E+02 -0.25790785050E+02 -0.72051951432E+01  0.41153473171E+02  0.51100000000E-03 0.  1.
         12    1    3    3    0    0  0.35302975178E+02  0.19011665544E+02  0.43965777678E+01  0.40336997648E+02  0.00000000000E+00 0. -1.
</event>
<event>
 7    1  0.3622165E-015  0.9000772E+02  0.7816164E-02  0.1186339E+00
        -11   -1    0    0    0    0  0.00000000000E+00  0.00000000000E+00  0.45593999997E+02  0.45594000000E+02  0.51100000000E-03 0.  1.
         11   -1    0    0    0    0 -0.00000000000E+00 -0.00000000000E+00 -0.45593999997E+02  0.45594000000E+02  0.51100000000E-03 0. -1.
    9900012    2    1    2    0    0 -0.61849190358E+00  0.58232154868E-01 -0.10035584082E+01  0.90007723466E+02  0.89999984616E+02 0.  0.
        -12    1    1    2    0    0  0.61849190358E+00 -0.58232154868E-01  0.10035584082E+01  0.11802765342E+01  0.00000000000E+00 0.  1.
         11    1    3    3    0    0 -0.28444936316E+02  0.96770897816E+01 -0.16041165270E+02  0.34059939110E+02  0.51100000000E-03 0. -1.
        -11    1    3    3    0    0  0.41462203876E+00  0.89679771012E+01 -0.10726373299E+02  0.13987551935E+02  0.51100000000E-03 0.  1.
        -12    1    3    3    0    0  0.27411822374E+02 -0.18586834728E+02  0.25763980161E+02  0.41960232421E+02  0.00000000000E+00 0.  1.
</event>
<event>
 7    1  0.3622165E-015  0.9000775E+02  0.7816164E-02  0.1186339E+00
        -11   -1    0    0    0    0  0.00000000000E+00  0.00000000000E+00  0.45593999997E+02  0.45594000000E+02  0.51100000000E-03 0.  1.
         11   -1    0    0    0    0 -0.00000000000E+00 -0.00000000000E+00 -0.45593999997E+02  0.45594000000E+02  0.51100000000E-03 0. -1.
    9900012    2    1    2    0    0 -0.23846808413E-01 -0.82584427607E+00 -0.84284931639E+00  0.90007753242E+02  0.90000014785E+02 0.  0.
        -12    1    1    2    0    0  0.23846808413E-01  0.82584427607E+00  0.84284931639E+00  0.11802467576E+01  0.00000000000E+00 0.  1.
         11    1    3    3    0    0 -0.61048908433E+01  0.55947078819E+01  0.15622622430E+01  0.84268091274E+01  0.51100000000E-03 0. -1.
        -11    1    3    3    0    0  0.20486185491E+02 -0.15256577789E+02  0.33364952252E+02  0.42019840562E+02  0.51100000000E-03 0.  1.
         12    1    3    3    0    0 -0.14405141456E+02  0.88360256311E+01 -0.35770063811E+02  0.39561103553E+02  0.00000000000E+00 0. -1.
</event>
<event>
 7    1  0.3622165E-015  0.9000768E+02  0.7816164E-02  0.1186339E+00
        -11   -1    0    0    0    0  0.00000000000E+00  0.00000000000E+00  0.45593999997E+02  0.45594000000E+02  0.51100000000E-03 0.  1.
         11   -1    0    0    0    0 -0.00000000000E+00 -0.00000000000E+00 -0.45593999997E+02  0.45594000000E+02  0.51100000000E-03 0. -1.
    9900012    2    1    2    0    0 -0.88298261451E+00 -0.75867121614E+00 -0.19474075851E+00  0.90007676199E+02  0.89999936725E+02 0.  0.
        -12    1    1    2    0    0  0.88298261451E+00  0.75867121614E+00  0.19474075851E+00  0.11803238008E+01  0.00000000000E+00 0.  1.
         11    1    3    3    0    0 -0.52275444615E+00  0.63961748465E-01  0.95152550787E+01  0.95298186127E+01  0.51100000000E-03 0. -1.
        -11    1    3    3    0    0  0.28480467539E+02  0.20044382674E+02  0.14183771556E+02  0.37604437023E+02  0.51100000000E-03 0.  1.
         12    1    3    3    0    0 -0.28840695707E+02 -0.20867015639E+02 -0.23893767393E+02  0.42873420563E+02  0.00000000000E+00 0. -1.
</event>
<event>
 7    1  0.3622165E-015  0.9000780E+02  0.7816164E-02  0.1186339E+00
        -11   -1    0    0    0    0  0.00000000000E+00  0.00000000000E+00  0.45593999997E+02  0.45594000000E+02  0.51100000000E-03 0.  1.
         11   -1    0    0    0    0 -0.00000000000E+00 -0.00000000000E+00 -0.45593999997E+02  0.45594000000E+02  0.51100000000E-03 0. -1.
    9900012    2    1    2    0    0 -0.89619795458E+00 -0.66323413220E+00 -0.38706341810E+00  0.90007801552E+02  0.90000063732E+02 0.  0.
        -12    1    1    2    0    0  0.89619795458E+00  0.66323413220E+00  0.38706341810E+00  0.11801984484E+01  0.00000000000E+00 0.  1.
         11    1    3    3    0    0 -0.12651302415E+02 -0.97339128291E+01 -0.36010073414E+02  0.39389464318E+02  0.51100000000E-03 0. -1.
        -11    1    3    3    0    0  0.90892431535E+01  0.15623897337E+01 -0.41081601797E+01  0.10096156848E+02  0.51100000000E-03 0.  1.
        -12    1    3    3    0    0  0.26658613067E+01  0.75082889632E+01  0.39731170175E+02  0.40522180385E+02  0.00000000000E+00 0.  1.
</event>
<event>
 7    1  0.3977907E-015  0.9000775E+02  0.7816164E-02  0.1186339E+00
        -11   -1    0    0    0    0  0.00000000000E+00  0.00000000000E+00  0.45593999997E+02  0.45594000000E+02  0.51100000000E-03 0. -1.
         11   -1    0    0    0    0 -0.00000000000E+00 -0.00000000000E+00 -0.45593999997E+02  0.45594000000E+02  0.51100000000E-03 0.  1.
    9900012    2    1    2    0    0 -0.91052328918E+00  0.54655560845E+00  0.51499577040E+00  0.90007747342E+02  0.90000008807E+02 0.  0.
        -12    1    1    2    0    0  0.91052328918E+00 -0.54655560845E+00 -0.51499577040E+00  0.11802526580E+01  0.00000000000E+00 0.  1.
         11    1    3    3    0    0  0.65927080781E+00 -0.28858607692E+02  0.29596464799E+02  0.41342527798E+02  0.51100000000E-03 0. -1.
        -11    1    3    3    0    0  0.69454116311E+01  0.68372487025E+01  0.13439644324E+01  0.98383409781E+01  0.51100000000E-03 0.  1.
        -12    1    3    3    0    0 -0.85152057281E+01  0.22567914598E+02 -0.30425433461E+02  0.38826878566E+02  0.00000000000E+00 0.  1.
</event>
<event>
 7    1  0.3622165E-015  0.9000761E+02  0.7816164E-02  0.1186339E+00
        -11   -1    0    0    0    0  0.00000000000E+00  0.00000000000E+00  0.45593999997E+02  0.45594000000E+02  0.51100000000E-03 0.  1.
         11   -1    0    0    0    0 -0.00000000000E+00 -0.00000000000E+00 -0.45593999997E+02  0.45594000000E+02  0.51100000000E-03 0. -1.
    9900012    2    1    2    0    0  0.37949038275E+00  0.92398667773E+00 -0.62893216867E+00  0.90007610232E+02  0.89999869887E+02 0.  0.
        -12    1    1    2    0    0 -0.37949038275E+00 -0.92398667773E+00  0.62893216867E+00  0.11803897678E+01  0.00000000000E+00 0.  1.
         11    1    3    3    0    0  0.46353664061E+01  0.23668010793E+01  0.96395104654E+01  0.10954840544E+02  0.51100000000E-03 0. -1.
        -11    1    3    3    0    0  0.12510800136E+01  0.11329972751E+00  0.34197267547E+02  0.34220332348E+02  0.51100000000E-03 0.  1.
         12    1    3    3    0    0 -0.55069560370E+01 -0.15561141290E+01 -0.44465710181E+02  0.44832437341E+02  0.00000000000E+00 0. -1.
</event>
<event>
 7    1  0.3622165E-015  0.9000770E+02  0.7816164E-02  0.1186339E+00
        -11   -1    0    0    0    0  0.00000000000E+00  0.00000000000E+00  0.45593999997E+02  0.45594000000E+02  0.51100000000E-03 0. -1.
         11   -1    0    0    0    0 -0.00000000000E+00 -0.00000000000E+00 -0.45593999997E+02  0.45594000000E+02  0.51100000000E-03 0.  1.
    9900012    2    1    2    0    0  0.37107832989E-01  0.98299354996E+00  0.65227053948E+00  0.90007699120E+02  0.89999959948E+02 0.  0.
        -12    1    1    2    0    0 -0.37107832989E-01 -0.98299354996E+00 -0.65227053948E+00  0.11803008800E+01  0.00000000000E+00 0.  1.
         11    1    3    3    0    0 -0.31358213647E+02  0.86983202032E+01  0.19960898677E+02  0.38176377693E+02  0.51100000000E-03 0. -1.
        -11    1    3    3    0    0 -0.78128928953E+01 -0.32264262173E+01 -0.17257263989E+01  0.86272390366E+01  0.51100000000E-03 0.  1.
        -12    1    3    3    0    0  0.39208214376E+02 -0.44889004359E+01 -0.17582901739E+02  0.43204082390E+02  0.00000000000E+00 0.  1.
</event>
<event>
 7    1  0.3622165E-015  0.9000763E+02  0.7816164E-02  0.1186339E+00
        -11   -1    0    0    0    0  0.00000000000E+00  0.00000000000E+00  0.45593999997E+02  0.45594000000E+02  0.51100000000E-03 0. -1.
         11   -1    0    0    0    0 -0.00000000000E+00 -0.00000000000E+00 -0.45593999997E+02  0.45594000000E+02  0.51100000000E-03 0.  1.
    9900012    2    1    2    0    0  0.85912216189E+00  0.80343957833E+00  0.98330470675E-01  0.90007629327E+02  0.89999889234E+02 0.  0.
        -12    1    1    2    0    0 -0.85912216189E+00 -0.80343957833E+00 -0.98330470675E-01  0.11803706734E+01  0.00000000000E+00 0.  1.
         11    1    3    3    0    0 -0.43722077500E+01 -0.23195756275E+01 -0.57720024531E+01  0.76034626507E+01  0.51100000000E-03 0. -1.
        -11    1    3    3    0    0  0.92695222263E+01  0.21637349591E+02 -0.32195218424E+02  0.39882715921E+02  0.51100000000E-03 0.  1.
         12    1    3    3    0    0 -0.40381923143E+01 -0.18514334385E+02  0.38065551348E+02  0.42521450755E+02  0.00000000000E+00 0. -1.
</event>
<event>
 7    1  0.3622165E-015  0.9000770E+02  0.7816164E-02  0.1186339E+00
        -11   -1    0    0    0    0  0.00000000000E+00  0.00000000000E+00  0.45593999997E+02  0.45594000000E+02  0.51100000000E-03 0.  1.
         11   -1    0    0    0    0 -0.00000000000E+00 -0.00000000000E+00 -0.45593999997E+02  0.45594000000E+02  0.51100000000E-03 0. -1.
    9900012    2    1    2    0    0 -0.24210743217E+00 -0.27591739327E+00 -0.11217677798E+01  0.90007699458E+02  0.89999960291E+02 0.  0.
        -12    1    1    2    0    0  0.24210743217E+00  0.27591739327E+00  0.11217677798E+01  0.11803005416E+01  0.00000000000E+00 0.  1.
         11    1    3    3    0    0  0.54598825543E+01 -0.72317117859E+01 -0.32266299002E+01  0.96186856501E+01  0.51100000000E-03 0. -1.
        -11    1    3    3    0    0 -0.28418243697E+02 -0.79821440328E+01  0.29542925615E+02  0.41762371249E+02  0.51100000000E-03 0.  1.
         12    1    3    3    0    0  0.22716253711E+02  0.14937938425E+02 -0.27438063495E+02  0.38626642559E+02  0.00000000000E+00 0. -1.
</event>
<event>
 7    1  0.3622165E-015  0.9000776E+02  0.7816164E-02  0.1186339E+00
        -11   -1    0    0    0    0  0.00000000000E+00  0.00000000000E+00  0.45593999997E+02  0.45594000000E+02  0.51100000000E-03 0. -1.
         11   -1    0    0    0    0 -0.00000000000E+00 -0.00000000000E+00 -0.45593999997E+02  0.45594000000E+02  0.51100000000E-03 0.  1.
    9900012    2    1    2    0    0  0.54190086433E+00 -0.68296824722E+00  0.79552939207E+00  0.90007758844E+02  0.90000020460E+02 0.  0.
        -12    1    1    2    0    0 -0.54190086433E+00  0.68296824722E+00 -0.79552939207E+00  0.11802411563E+01  0.00000000000E+00 0.  1.
         11    1    3    3    0    0 -0.39227908542E+00 -0.85610945273E+01  0.69340568945E+01  0.11023945195E+02  0.51100000000E-03 0. -1.
        -11    1    3    3    0    0  0.39048761691E+02 -0.28125425569E+01 -0.36655201622E+01  0.39321142195E+02  0.51100000000E-03 0.  1.
         12    1    3    3    0    0 -0.38114581741E+02  0.10690668837E+02 -0.24730073402E+01  0.39662671453E+02  0.00000000000E+00 0. -1.
</event>
<event>
 7    1  0.3622165E-015  0.9000804E+02  0.7816164E-02  0.1186338E+00
        -11   -1    0    0    0    0  0.00000000000E+00  0.00000000000E+00  0.45593999997E+02  0.45594000000E+02  0.51100000000E-03 0. -1.
         11   -1    0    0    0    0 -0.00000000000E+00 -0.00000000000E+00 -0.45593999997E+02  0.45594000000E+02  0.51100000000E-03 0.  1.
    9900012    2    1    2    0    0  0.31454888631E+00  0.32027203776E+00  0.10912332572E+01  0.90008040169E+02  0.90000305499E+02 0.  0.
        -12    1    1    2    0    0 -0.31454888631E+00 -0.32027203776E+00 -0.10912332572E+01  0.11799598305E+01  0.00000000000E+00 0.  1.
         11    1    3    3    0    0 -0.12516818666E+02 -0.99785863931E+01 -0.17775567524E+02  0.23920989465E+02  0.51100000000E-03 0. -1.
        -11    1    3    3    0    0 -0.95034079329E+01 -0.43292866851E+01 -0.17855357298E+02  0.20685049433E+02  0.51100000000E-03 0.  1.
         12    1    3    3    0    0  0.22334775485E+02  0.14628145116E+02  0.36722158079E+02  0.45402001272E+02  0.00000000000E+00 0. -1.
</event>
<event>
 7    1  0.3622165E-015  0.9000766E+02  0.7816164E-02  0.1186339E+00
        -11   -1    0    0    0    0  0.00000000000E+00  0.00000000000E+00  0.45593999997E+02  0.45594000000E+02  0.51100000000E-03 0. -1.
         11   -1    0    0    0    0 -0.00000000000E+00 -0.00000000000E+00 -0.45593999997E+02  0.45594000000E+02  0.51100000000E-03 0.  1.
    9900012    2    1    2    0    0  0.99178864390E+00 -0.27113722877E+00 -0.57969913974E+00  0.90007656320E+02  0.89999916583E+02 0.  0.
        -12    1    1    2    0    0 -0.99178864390E+00  0.27113722877E+00  0.57969913974E+00  0.11803436803E+01  0.00000000000E+00 0.  1.
         11    1    3    3    0    0 -0.38850816505E+01  0.77631961960E+01 -0.42721000036E+01  0.96753249718E+01  0.51100000000E-03 0. -1.
        -11    1    3    3    0    0 -0.34075617872E+02 -0.19510000782E+02  0.56887946884E+01  0.39675562367E+02  0.51100000000E-03 0.  1.
         12    1    3    3    0    0  0.38952488166E+02  0.11475667357E+02 -0.19963938246E+01  0.40656768981E+02  0.00000000000E+00 0. -1.
</event>
<event>
 7    1  0.3622165E-015  0.9000775E+02  0.7816164E-02  0.1186339E+00
        -11   -1    0    0    0    0  0.00000000000E+00  0.00000000000E+00  0.45593999997E+02  0.45594000000E+02  0.51100000000E-03 0. -1.
         11   -1    0    0    0    0 -0.00000000000E+00 -0.00000000000E+00 -0.45593999997E+02  0.45594000000E+02  0.51100000000E-03 0.  1.
    9900012    2    1    2    0    0 -0.78753055841E+00 -0.83505298310E+00  0.27472911871E+00  0.90007748352E+02  0.90000009830E+02 0.  0.
        -12    1    1    2    0    0  0.78753055841E+00  0.83505298310E+00 -0.27472911871E+00  0.11802516485E+01  0.00000000000E+00 0.  1.
         11    1    3    3    0    0 -0.14480053098E+02  0.35673710907E+02 -0.15647031376E+02  0.41558575273E+02  0.51100000000E-03 0. -1.
        -11    1    3    3    0    0  0.82647149061E+01 -0.20806916710E+00  0.66026659471E+01  0.10580359310E+02  0.51100000000E-03 0.  1.
        -12    1    3    3    0    0  0.54278076332E+01 -0.36300694723E+02  0.93190945481E+01  0.37868813769E+02  0.00000000000E+00 0.  1.
</event>
<event>
 7    1  0.3622165E-015  0.9000772E+02  0.7816164E-02  0.1186339E+00
        -11   -1    0    0    0    0  0.00000000000E+00  0.00000000000E+00  0.45593999997E+02  0.45594000000E+02  0.51100000000E-03 0. -1.
         11   -1    0    0    0    0 -0.00000000000E+00 -0.00000000000E+00 -0.45593999997E+02  0.45594000000E+02  0.51100000000E-03 0.  1.
    9900012    2    1    2    0    0  0.41966740737E+00  0.50208852387E+00  0.98226534684E+00  0.90007720868E+02  0.89999981983E+02 0.  0.
        -12    1    1    2    0    0 -0.41966740737E+00 -0.50208852387E+00 -0.98226534684E+00  0.11802791323E+01  0.00000000000E+00 0.  1.
         11    1    3    3    0    0 -0.94522144913E+01  0.88484415432E-01  0.15334711655E+01  0.95762060524E+01  0.51100000000E-03 0. -1.
        -11    1    3    3    0    0 -0.14035621234E+02 -0.34855739700E+02  0.28749219572E+01  0.37685360950E+02  0.51100000000E-03 0.  1.
         12    1    3    3    0    0  0.23907503132E+02  0.35269343808E+02 -0.34261277758E+01  0.42746153865E+02  0.00000000000E+00 0. -1.
</event>
<event>
 7    1  0.3622165E-015  0.9000801E+02  0.7816164E-02  0.1186339E+00
        -11   -1    0    0    0    0  0.00000000000E+00  0.00000000000E+00  0.45593999997E+02  0.45594000000E+02  0.51100000000E-03 0. -1.
         11   -1    0    0    0    0 -0.00000000000E+00 -0.00000000000E+00 -0.45593999997E+02  0.45594000000E+02  0.51100000000E-03 0.  1.
    9900012    2    1    2    0    0 -0.50394260862E+00  0.60119471319E+00 -0.88146981633E+00  0.90008007511E+02  0.90000272410E+02 0.  0.
        -12    1    1    2    0    0  0.50394260862E+00 -0.60119471319E+00  0.88146981633E+00  0.11799924886E+01  0.00000000000E+00 0.  1.
         11    1    3    3    0    0  0.29495792700E+02  0.11320245316E+02  0.24675701748E+02  0.40087903388E+02  0.51100000000E-03 0. -1.
        -11    1    3    3    0    0 -0.55658780373E+01 -0.40720339842E+01  0.62205268641E+01  0.92873792764E+01  0.51100000000E-03 0.  1.
        -12    1    3    3    0    0 -0.24433857272E+02 -0.66470166184E+01 -0.31777698428E+02  0.40632724847E+02  0.00000000000E+00 0.  1.
</event>
<event>
 7    1  0.3622165E-015  0.9000782E+02  0.7816164E-02  0.1186339E+00
        -11   -1    0    0    0    0  0.00000000000E+00  0.00000000000E+00  0.45593999997E+02  0.45594000000E+02  0.51100000000E-03 0.  1.
         11   -1    0    0    0    0 -0.00000000000E+00 -0.00000000000E+00 -0.45593999997E+02  0.45594000000E+02  0.51100000000E-03 0. -1.
    9900012    2    1    2    0    0 -0.10286958926E+01 -0.36999153494E+00 -0.44466555035E+00  0.90007815088E+02  0.90000077447E+02 0.  0.
        -12    1    1    2    0    0  0.10286958926E+01  0.36999153494E+00  0.44466555035E+00  0.11801849122E+01  0.00000000000E+00 0.  1.
         11    1    3    3    0    0 -0.62677726033E+01  0.67996980146E+01  0.24612744089E+01  0.95696780757E+01  0.51100000000E-03 0. -1.
        -11    1    3    3    0    0  0.22858497550E+02  0.30816967917E+02 -0.37806553051E+01  0.38555022716E+02  0.51100000000E-03 0.  1.
         12    1    3    3    0    0 -0.17619420839E+02 -0.37986657467E+02  0.87471534584E+00  0.41883114296E+02  0.00000000000E+00 0. -1.
</event>
<event>
 7    1  0.3622165E-015  0.9000773E+02  0.7816164E-02  0.1186339E+00
        -11   -1    0    0    0    0  0.00000000000E+00  0.00000000000E+00  0.45593999997E+02  0.45594000000E+02  0.51100000000E-03 0.  1.
         11   -1    0    0    0    0 -0.00000000000E+00 -0.00000000000E+00 -0.45593999997E+02  0.45594000000E+02  0.51100000000E-03 0. -1.
    9900012    2    1    2    0    0  0.11683188798E+01  0.97217001427E-01 -0.13642608440E+00  0.90007732138E+02  0.89999993402E+02 0.  0.
        -12    1    1    2    0    0 -0.11683188798E+01 -0.97217001427E-01  0.13642608440E+00  0.11802678623E+01  0.00000000000E+00 0.  1.
         11    1    3    3    0    0 -0.24521370289E+01  0.67460433291E+00  0.80093869958E+01  0.84034723373E+01  0.51100000000E-03 0. -1.
        -11    1    3    3    0    0 -0.11748937111E+02  0.35631875559E+02  0.91736177033E+01  0.38624129001E+02  0.51100000000E-03 0.  1.
         12    1    3    3    0    0  0.15369393020E+02 -0.36209262890E+02 -0.17319430783E+02  0.42980130799E+02  0.00000000000E+00 0. -1.
</event>
<event>
 7    1  0.3622165E-015  0.9000767E+02  0.7816164E-02  0.1186339E+00
        -11   -1    0    0    0    0  0.00000000000E+00  0.00000000000E+00  0.45593999997E+02  0.45594000000E+02  0.51100000000E-03 0. -1.
         11   -1    0    0    0    0 -0.00000000000E+00 -0.00000000000E+00 -0.45593999997E+02  0.45594000000E+02  0.51100000000E-03 0.  1.
    9900012    2    1    2    0    0 -0.48328135397E+00 -0.10513545985E+01  0.23296026021E+00  0.90007670452E+02  0.89999930902E+02 0.  0.
        -12    1    1    2    0    0  0.48328135397E+00  0.10513545985E+01 -0.23296026021E+00  0.11803295480E+01  0.00000000000E+00 0.  1.
         11    1    3    3    0    0 -0.16736026246E+02  0.85047707871E+01 -0.92239632795E+01  0.20916672763E+02  0.51100000000E-03 0. -1.
        -11    1    3    3    0    0 -0.20574767906E+01  0.16921044752E+02 -0.19424000616E+02  0.25842731404E+02  0.51100000000E-03 0.  1.
         12    1    3    3    0    0  0.18310221682E+02 -0.26477170138E+02  0.28880924156E+02  0.43248266285E+02  0.00000000000E+00 0. -1.
</event>
<event>
 7    1  0.3622165E-015  0.9000768E+02  0.7816164E-02  0.1186339E+00
        -11   -1    0    0    0    0  0.00000000000E+00  0.00000000000E+00  0.45593999997E+02  0.45594000000E+02  0.51100000000E-03 0.  1.
         11   -1    0    0    0    0 -0.00000000000E+00 -0.00000000000E+00 -0.45593999997E+02  0.45594000000E+02  0.51100000000E-03 0. -1.
    9900012    2    1    2    0    0 -0.47032697411E-01  0.10333895516E+01  0.56837627026E+00  0.90007679016E+02  0.89999939579E+02 0.  0.
        -12    1    1    2    0    0  0.47032697411E-01 -0.10333895516E+01 -0.56837627026E+00  0.11803209837E+01  0.00000000000E+00 0.  1.
         11    1    3    3    0    0 -0.30611730117E+02 -0.62203173794E+01  0.16529093246E+02  0.35340929428E+02  0.51100000000E-03 0. -1.
        -11    1    3    3    0    0 -0.74672392139E+01  0.96879247003E+01 -0.10592523991E+02  0.16180763617E+02  0.51100000000E-03 0.  1.
        -12    1    3    3    0    0  0.38031936633E+02 -0.24342177693E+01 -0.53681929843E+01  0.38485985971E+02  0.00000000000E+00 0.  1.
</event>
<event>
 7    1  0.3622165E-015  0.9000774E+02  0.7816164E-02  0.1186339E+00
        -11   -1    0    0    0    0  0.00000000000E+00  0.00000000000E+00  0.45593999997E+02  0.45594000000E+02  0.51100000000E-03 0. -1.
         11   -1    0    0    0    0 -0.00000000000E+00 -0.00000000000E+00 -0.45593999997E+02  0.45594000000E+02  0.51100000000E-03 0.  1.
    9900012    2    1    2    0    0  0.77088644997E+00 -0.83823908857E+00  0.31001905540E+00  0.90007736257E+02  0.89999997576E+02 0.  0.
        -12    1    1    2    0    0 -0.77088644997E+00  0.83823908857E+00 -0.31001905540E+00  0.11802637430E+01  0.00000000000E+00 0.  1.
         11    1    3    3    0    0  0.34191863850E+02 -0.16473015500E+02 -0.16458723275E+02  0.41368265196E+02  0.51100000000E-03 0. -1.
        -11    1    3    3    0    0  0.29405589790E+01  0.77619543645E+01  0.46350373756E+01  0.95067551982E+01  0.51100000000E-03 0.  1.
        -12    1    3    3    0    0 -0.36361536380E+02  0.78728220468E+01  0.12133704955E+02  0.39132715863E+02  0.00000000000E+00 0.  1.
</event>
<event>
 7    1  0.3622165E-015  0.9000735E+02  0.7816164E-02  0.1186340E+00
        -11   -1    0    0    0    0  0.00000000000E+00  0.00000000000E+00  0.45593999997E+02  0.45594000000E+02  0.51100000000E-03 0.  1.
         11   -1    0    0    0    0 -0.00000000000E+00 -0.00000000000E+00 -0.45593999997E+02  0.45594000000E+02  0.51100000000E-03 0. -1.
    9900012    2    1    2    0    0 -0.61156457399E+00  0.29157794167E+00 -0.96690053471E+00  0.90007353750E+02  0.89999610018E+02 0.  0.
        -12    1    1    2    0    0  0.61156457399E+00 -0.29157794167E+00  0.96690053471E+00  0.11806462503E+01  0.00000000000E+00 0.  1.
         11    1    3    3    0    0  0.11585864677E+01  0.61629290922E-01  0.10591295241E+02  0.10654654191E+02  0.51100000000E-03 0. -1.
        -11    1    3    3    0    0 -0.14842738604E+02  0.19002174730E+02  0.25947566927E+02  0.35421261460E+02  0.51100000000E-03 0.  1.
         12    1    3    3    0    0  0.13072587562E+02 -0.18772226079E+02 -0.37505762703E+02  0.43931438099E+02  0.00000000000E+00 0. -1.
</event>
<event>
 7    1  0.3622165E-015  0.9000772E+02  0.7816164E-02  0.1186339E+00
        -11   -1    0    0    0    0  0.00000000000E+00  0.00000000000E+00  0.45593999997E+02  0.45594000000E+02  0.51100000000E-03 0. -1.
         11   -1    0    0    0    0 -0.00000000000E+00 -0.00000000000E+00 -0.45593999997E+02  0.45594000000E+02  0.51100000000E-03 0.  1.
    9900012    2    1    2    0    0 -0.11009377184E+01 -0.42092779057E+00 -0.61795440209E-01  0.90007719211E+02  0.89999980304E+02 0.  0.
        -12    1    1    2    0    0  0.11009377184E+01  0.42092779057E+00  0.61795440209E-01  0.11802807891E+01  0.00000000000E+00 0.  1.
         11    1    3    3    0    0 -0.72141668689E+01  0.74461448337E+01  0.25596136630E-01  0.10367735139E+02  0.51100000000E-03 0. -1.
        -11    1    3    3    0    0 -0.22657107631E+02  0.22590932412E+02 -0.14775552703E+02  0.35242186530E+02  0.51100000000E-03 0.  1.
         12    1    3    3    0    0  0.28770336781E+02 -0.30458005037E+02  0.14688161126E+02  0.44397797542E+02  0.00000000000E+00 0. -1.
</event>
<event>
 7    1  0.3622165E-015  0.9000809E+02  0.7816164E-02  0.1186338E+00
        -11   -1    0    0    0    0  0.00000000000E+00  0.00000000000E+00  0.45593999997E+02  0.45594000000E+02  0.51100000000E-03 0. -1.
         11   -1    0    0    0    0 -0.00000000000E+00 -0.00000000000E+00 -0.45593999997E+02  0.45594000000E+02  0.51100000000E-03 0.  1.
    9900012    2    1    2    0    0 -0.82829064421E+00 -0.64943973025E+00  0.53323538968E+00  0.90008094353E+02  0.90000360398E+02 0.  0.
        -12    1    1    2    0    0  0.82829064421E+00  0.64943973025E+00 -0.53323538968E+00  0.11799056468E+01  0.00000000000E+00 0.  1.
         11    1    3    3    0    0  0.10732847301E+01 -0.24199907201E+02  0.29465534892E+02  0.38144530347E+02  0.51100000000E-03 0. -1.
        -11    1    3    3    0    0  0.95114814196E+01 -0.44668057111E+01 -0.77791097204E+00  0.10536877042E+02  0.51100000000E-03 0.  1.
        -12    1    3    3    0    0 -0.11413056794E+02  0.28017273182E+02 -0.28154388530E+02  0.41326686964E+02  0.00000000000E+00 0.  1.
</event>
<event>
 7    1  0.3622165E-015  0.9000784E+02  0.7816164E-02  0.1186339E+00
        -11   -1    0    0    0    0  0.00000000000E+00  0.00000000000E+00  0.45593999997E+02  0.45594000000E+02  0.51100000000E-03 0.  1.
         11   -1    0    0    0    0 -0.00000000000E+00 -0.00000000000E+00 -0.45593999997E+02  0.45594000000E+02  0.51100000000E-03 0. -1.
    9900012    2    1    2    0    0  0.72912802116E-01  0.52681789159E+00 -0.10535344214E+01  0.90007835543E+02  0.90000098172E+02 0.  0.
        -12    1    1    2    0    0 -0.72912802116E-01 -0.52681789159E+00  0.10535344214E+01  0.11801644566E+01  0.00000000000E+00 0.  1.
         11    1    3    3    0    0  0.15388560727E+01 -0.35689569818E+01 -0.88390812051E+01  0.96558214959E+01  0.51100000000E-03 0. -1.
        -11    1    3    3    0    0  0.34297363160E+02 -0.17118423228E+02  0.21810005996E+01  0.38394091960E+02  0.51100000000E-03 0.  1.
         12    1    3    3    0    0 -0.35763306431E+02  0.21214198101E+02  0.56045461840E+01  0.41957922087E+02  0.00000000000E+00 0. -1.
</event>
<event>
 7    1  0.3622165E-015  0.9000774E+02  0.7816164E-02  0.1186339E+00
        -11   -1    0    0    0    0  0.00000000000E+00  0.00000000000E+00  0.45593999997E+02  0.45594000000E+02  0.51100000000E-03 0.  1.
         11   -1    0    0    0    0 -0.00000000000E+00 -0.00000000000E+00 -0.45593999997E+02  0.45594000000E+02  0.51100000000E-03 0. -1.
    9900012    2    1    2    0    0  0.41352412491E+00  0.10440371698E+01  0.36332028452E+00  0.90007738401E+02  0.89999999748E+02 0.  0.
        -12    1    1    2    0    0 -0.41352412491E+00 -0.10440371698E+01 -0.36332028452E+00  0.11802615994E+01  0.00000000000E+00 0.  1.
         11    1    3    3    0    0 -0.74267192239E+01  0.32610779217E+00  0.19305013971E+01  0.76804518505E+01  0.51100000000E-03 0. -1.
        -11    1    3    3    0    0 -0.36248205821E+02  0.77279699685E+01  0.42577684122E+01  0.37306601791E+02  0.51100000000E-03 0.  1.
         12    1    3    3    0    0  0.44088449169E+02 -0.70100405909E+01 -0.58249495248E+01  0.45020684760E+02  0.00000000000E+00 0. -1.
</event>
<event>
 7    1  0.3622165E-015  0.9000771E+02  0.7816164E-02  0.1186339E+00
        -11   -1    0    0    0    0  0.00000000000E+00  0.00000000000E+00  0.45593999997E+02  0.45594000000E+02  0.51100000000E-03 0. -1.
         11   -1    0    0    0    0 -0.00000000000E+00 -0.00000000000E+00 -0.45593999997E+02  0.45594000000E+02  0.51100000000E-03 0.  1.
    9900012    2    1    2    0    0  0.34407828939E+00 -0.32461576882E+00  0.10813529970E+01  0.90007707845E+02  0.89999968789E+02 0.  0.
        -12    1    1    2    0    0 -0.34407828939E+00  0.32461576882E+00 -0.10813529970E+01  0.11802921548E+01  0.00000000000E+00 0.  1.
         11    1    3    3    0    0  0.85610820012E+01  0.18079579995E+01 -0.77783151392E+01  0.11707391846E+02  0.51100000000E-03 0. -1.
        -11    1    3    3    0    0 -0.20464827872E+02  0.26840759437E+02 -0.16803474613E+02  0.37704009155E+02  0.51100000000E-03 0.  1.
         12    1    3    3    0    0  0.12247824160E+02 -0.28973333206E+02  0.25663142749E+02  0.40596306845E+02  0.00000000000E+00 0. -1.
</event>
<event>
 7    1  0.3622165E-015  0.9000783E+02  0.7816164E-02  0.1186339E+00
        -11   -1    0    0    0    0  0.00000000000E+00  0.00000000000E+00  0.45593999997E+02  0.45594000000E+02  0.51100000000E-03 0.  1.
         11   -1    0    0    0    0 -0.00000000000E+00 -0.00000000000E+00 -0.45593999997E+02  0.45594000000E+02  0.51100000000E-03 0. -1.
    9900012    2    1    2    0    0 -0.11345931620E+01  0.21070744030E+00 -0.24718514704E+00  0.90007830620E+02  0.90000093184E+02 0.  0.
        -12    1    1    2    0    0  0.11345931620E+01 -0.21070744030E+00  0.24718514704E+00  0.11801693800E+01  0.00000000000E+00 0.  1.
         11    1    3    3    0    0  0.19133907179E+02  0.32777953361E+01 -0.20856604856E+02  0.28492951981E+02  0.51100000000E-03 0. -1.
        -11    1    3    3    0    0 -0.20625813646E+01 -0.15099104539E+01 -0.18326851499E+02  0.18504257824E+02  0.51100000000E-03 0.  1.
        -12    1    3    3    0    0 -0.18205918977E+02 -0.15571774419E+01  0.38936271208E+02  0.43010620816E+02  0.00000000000E+00 0.  1.
</event>
<event>
 7    1  0.3622165E-015  0.9000775E+02  0.7816164E-02  0.1186339E+00
        -11   -1    0    0    0    0  0.00000000000E+00  0.00000000000E+00  0.45593999997E+02  0.45594000000E+02  0.51100000000E-03 0.  1.
         11   -1    0    0    0    0 -0.00000000000E+00 -0.00000000000E+00 -0.45593999997E+02  0.45594000000E+02  0.51100000000E-03 0. -1.
    9900012    2    1    2    0    0 -0.10205129113E+01 -0.58069503907E+00  0.11973396985E+00  0.90007750215E+02  0.90000011718E+02 0.  0.
        -12    1    1    2    0    0  0.10205129113E+01  0.58069503907E+00 -0.11973396985E+00  0.11802497846E+01  0.00000000000E+00 0.  1.
         11    1    3    3    0    0  0.15467302662E+02  0.22291418641E+02  0.21818167116E+02  0.34816335436E+02  0.51100000000E-03 0. -1.
        -11    1    3    3    0    0  0.10697150262E+02  0.69285518312E+00  0.34900798607E+01  0.11273408079E+02  0.51100000000E-03 0.  1.
        -12    1    3    3    0    0 -0.27184965836E+02 -0.23564968863E+02 -0.25188513007E+02  0.43918006700E+02  0.00000000000E+00 0.  1.
</event>
<event>
 7    1  0.3622165E-015  0.9000778E+02  0.7816164E-02  0.1186339E+00
        -11   -1    0    0    0    0  0.00000000000E+00  0.00000000000E+00  0.45593999997E+02  0.45594000000E+02  0.51100000000E-03 0.  1.
         11   -1    0    0    0    0 -0.00000000000E+00 -0.00000000000E+00 -0.45593999997E+02  0.45594000000E+02  0.51100000000E-03 0. -1.
    9900012    2    1    2    0    0 -0.28952243332E+00 -0.10071260464E+01  0.54295661807E+00  0.90007776292E+02  0.90000038139E+02 0.  0.
        -12    1    1    2    0    0  0.28952243332E+00  0.10071260464E+01 -0.54295661807E+00  0.11802237084E+01  0.00000000000E+00 0.  1.
         11    1    3    3    0    0  0.10186362519E+01  0.37063833229E+02 -0.11925469128E+02  0.38948455266E+02  0.51100000000E-03 0. -1.
        -11    1    3    3    0    0  0.65104084843E+01 -0.48404455289E+01 -0.78859878021E+01  0.11313891259E+02  0.51100000000E-03 0.  1.
        -12    1    3    3    0    0 -0.78185671695E+01 -0.33230513746E+02  0.20354413548E+02  0.39745429766E+02  0.00000000000E+00 0.  1.
</event>
<event>
 7    1  0.3622165E-015  0.9000763E+02  0.7816164E-02  0.1186339E+00
        -11   -1    0    0    0    0  0.00000000000E+00  0.00000000000E+00  0.45593999997E+02  0.45594000000E+02  0.51100000000E-03 0. -1.
         11   -1    0    0    0    0 -0.00000000000E+00 -0.00000000000E+00 -0.45593999997E+02  0.45594000000E+02  0.51100000000E-03 0.  1.
    9900012    2    1    2    0    0  0.51401385983E+00  0.98856163733E+00  0.38961317223E+00  0.90007634471E+02  0.89999894446E+02 0.  0.
        -12    1    1    2    0    0 -0.51401385983E+00 -0.98856163733E+00 -0.38961317223E+00  0.11803655293E+01  0.00000000000E+00 0.  1.
         11    1    3    3    0    0  0.20196491753E+02  0.39057126393E+01 -0.54783467291E+01  0.21287676094E+02  0.51100000000E-03 0. -1.
        -11    1    3    3    0    0 -0.26614583860E+02  0.12794029662E+02 -0.21418305018E+02  0.36479680086E+02  0.51100000000E-03 0.  1.
         12    1    3    3    0    0  0.69321059671E+01 -0.15711180664E+02  0.27286264920E+02  0.32240278291E+02  0.00000000000E+00 0. -1.
</event>
<event>
 7    1  0.3622165E-015  0.9000774E+02  0.7816164E-02  0.1186339E+00
        -11   -1    0    0    0    0  0.00000000000E+00  0.00000000000E+00  0.45593999997E+02  0.45594000000E+02  0.51100000000E-03 0. -1.
         11   -1    0    0    0    0 -0.00000000000E+00 -0.00000000000E+00 -0.45593999997E+02  0.45594000000E+02  0.51100000000E-03 0.  1.
    9900012    2    1    2    0    0 -0.10031039838E+01 -0.10647674702E-01 -0.62183764478E+00  0.90007740269E+02  0.90000001641E+02 0.  0.
        -12    1    1    2    0    0  0.10031039838E+01  0.10647674702E-01  0.62183764478E+00  0.11802597306E+01  0.00000000000E+00 0.  1.
         11    1    3    3    0    0  0.11243374345E+00  0.85360834862E+01 -0.39316762888E+01  0.93986935970E+01  0.51100000000E-03 0. -1.
        -11    1    3    3    0    0 -0.34700702612E+02  0.11278040834E+02 -0.12438951070E+02  0.38549454871E+02  0.51100000000E-03 0.  1.
         12    1    3    3    0    0  0.33585164885E+02 -0.19824771995E+02  0.15748789714E+02  0.42059591801E+02  0.00000000000E+00 0. -1.
</event>
<event>
 7    1  0.3622165E-015  0.9000773E+02  0.7816164E-02  0.1186339E+00
        -11   -1    0    0    0    0  0.00000000000E+00  0.00000000000E+00  0.45593999997E+02  0.45594000000E+02  0.51100000000E-03 0.  1.
         11   -1    0    0    0    0 -0.00000000000E+00 -0.00000000000E+00 -0.45593999997E+02  0.45594000000E+02  0.51100000000E-03 0. -1.
    9900012    2    1    2    0    0 -0.64355258014E+00 -0.66004408221E+00  0.73703931393E+00  0.90007726699E+02  0.89999987892E+02 0.  0.
        -12    1    1    2    0    0  0.64355258014E+00  0.66004408221E+00 -0.73703931393E+00  0.11802733006E+01  0.00000000000E+00 0.  1.
         11    1    3    3    0    0  0.85477092186E+01  0.12931699955E+01  0.26354057097E+01  0.90377533181E+01  0.51100000000E-03 0. -1.
        -11    1    3    3    0    0  0.21956796472E+02 -0.31088325532E+02  0.21954956571E+01  0.38123550427E+02  0.51100000000E-03 0.  1.
         12    1    3    3    0    0 -0.31148058270E+02  0.29135111455E+02 -0.40938620529E+01  0.42846422955E+02  0.00000000000E+00 0. -1.
</event>
<event>
 7    1  0.3622165E-015  0.9000759E+02  0.7816164E-02  0.1186339E+00
        -11   -1    0    0    0    0  0.00000000000E+00  0.00000000000E+00  0.45593999997E+02  0.45594000000E+02  0.51100000000E-03 0. -1.
         11   -1    0    0    0    0 -0.00000000000E+00 -0.00000000000E+00 -0.45593999997E+02  0.45594000000E+02  0.51100000000E-03 0.  1.
    9900012    2    1    2    0    0  0.88134719641E+00 -0.65898367555E+00 -0.42700376207E+00  0.90007591351E+02  0.89999850757E+02 0.  0.
        -12    1    1    2    0    0 -0.88134719641E+00  0.65898367555E+00  0.42700376207E+00  0.11804086488E+01  0.00000000000E+00 0.  1.
         11    1    3    3    0    0 -0.82577054032E+01  0.20722382428E+02  0.94028807624E+01  0.24207870598E+02  0.51100000000E-03 0. -1.
        -11    1    3    3    0    0 -0.23454494589E+02 -0.21010915554E+02 -0.10510316003E+02  0.33196967205E+02  0.51100000000E-03 0.  1.
         12    1    3    3    0    0  0.32593547188E+02 -0.37045054879E+00  0.68043147893E+00  0.32602753548E+02  0.00000000000E+00 0. -1.
</event>
<event>
 7    1  0.3622165E-015  0.9000781E+02  0.7816164E-02  0.1186339E+00
        -11   -1    0    0    0    0  0.00000000000E+00  0.00000000000E+00  0.45593999997E+02  0.45594000000E+02  0.51100000000E-03 0.  1.
         11   -1    0    0    0    0 -0.00000000000E+00 -0.00000000000E+00 -0.45593999997E+02  0.45594000000E+02  0.51100000000E-03 0. -1.
    9900012    2    1    2    0    0  0.74426888959E-01  0.10931251928E+01 -0.43860982858E+00  0.90007813307E+02  0.90000075642E+02 0.  0.
        -12    1    1    2    0    0 -0.74426888959E-01 -0.10931251928E+01  0.43860982858E+00  0.11801866931E+01  0.00000000000E+00 0.  1.
         11    1    3    3    0    0 -0.38346584717E+01 -0.20920204045E+02  0.35816394048E+02  0.41655415323E+02  0.51100000000E-03 0. -1.
        -11    1    3    3    0    0  0.11848004971E+02  0.43396225450E+01 -0.14310759321E+02  0.19078924976E+02  0.51100000000E-03 0.  1.
        -12    1    3    3    0    0 -0.79389196103E+01  0.17673706692E+02 -0.21944244556E+02  0.29273473008E+02  0.00000000000E+00 0.  1.
</event>
<event>
 7    1  0.3622165E-015  0.9000773E+02  0.7816164E-02  0.1186339E+00
        -11   -1    0    0    0    0  0.00000000000E+00  0.00000000000E+00  0.45593999997E+02  0.45594000000E+02  0.51100000000E-03 0. -1.
         11   -1    0    0    0    0 -0.00000000000E+00 -0.00000000000E+00 -0.45593999997E+02  0.45594000000E+02  0.51100000000E-03 0.  1.
    9900012    2    1    2    0    0  0.42949320690E+00  0.81539546717E+00  0.73735736343E+00  0.90007733054E+02  0.89999994330E+02 0.  0.
        -12    1    1    2    0    0 -0.42949320690E+00 -0.81539546717E+00 -0.73735736343E+00  0.11802669461E+01  0.00000000000E+00 0.  1.
         11    1    3    3    0    0  0.31013308376E+02  0.11005964238E+02  0.15293186054E+02  0.36288263739E+02  0.51100000000E-03 0. -1.
        -11    1    3    3    0    0  0.32977536063E+00 -0.39613802228E+01  0.11906569637E+02  0.12552596776E+02  0.51100000000E-03 0.  1.
        -12    1    3    3    0    0 -0.30913590530E+02 -0.62291885478E+01 -0.26462398327E+02  0.41166872539E+02  0.00000000000E+00 0.  1.
</event>
<event>
 7    1  0.3622165E-015  0.9000774E+02  0.7816164E-02  0.1186339E+00
        -11   -1    0    0    0    0  0.00000000000E+00  0.00000000000E+00  0.45593999997E+02  0.45594000000E+02  0.51100000000E-03 0. -1.
         11   -1    0    0    0    0 -0.00000000000E+00 -0.00000000000E+00 -0.45593999997E+02  0.45594000000E+02  0.51100000000E-03 0.  1.
    9900012    2    1    2    0    0 -0.26233010339E-01  0.15847520264E+00  0.11692767851E+01  0.90007741231E+02  0.90000002616E+02 0.  0.
        -12    1    1    2    0    0  0.26233010339E-01 -0.15847520264E+00 -0.11692767851E+01  0.11802587686E+01  0.00000000000E+00 0.  1.
         11    1    3    3    0    0  0.82270990240E+01 -0.47005017259E+01 -0.40796306596E+01  0.10316165053E+02  0.51100000000E-03 0. -1.
        -11    1    3    3    0    0  0.29623068662E+02 -0.17400699397E+02 -0.46165894171E+01  0.34664440491E+02  0.51100000000E-03 0.  1.
         12    1    3    3    0    0 -0.37876400696E+02  0.22259676326E+02  0.98654968618E+01  0.45027135687E+02  0.00000000000E+00 0. -1.
</event>
<event>
 7    1  0.3622165E-015  0.9000784E+02  0.7816164E-02  0.1186339E+00
        -11   -1    0    0    0    0  0.00000000000E+00  0.00000000000E+00  0.45593999997E+02  0.45594000000E+02  0.51100000000E-03 0.  1.
         11   -1    0    0    0    0 -0.00000000000E+00 -0.00000000000E+00 -0.45593999997E+02  0.45594000000E+02  0.51100000000E-03 0. -1.
    9900012    2    1    2    0    0  0.39405671226E+00  0.10597206780E+01  0.33837361336E+00  0.90007836744E+02  0.90000099389E+02 0.  0.
        -12    1    1    2    0    0 -0.39405671226E+00 -0.10597206780E+01 -0.33837361336E+00  0.11801632557E+01  0.00000000000E+00 0.  1.
         11    1    3    3    0    0 -0.30894385716E+02 -0.16838022948E+00  0.17306747311E+02  0.35412073131E+02  0.51100000000E-03 0. -1.
        -11    1    3    3    0    0 -0.45354760829E+01 -0.51208090300E+01  0.79578632686E+01  0.10493846601E+02  0.51100000000E-03 0.  1.
        -12    1    3    3    0    0  0.35823918511E+02  0.63489099375E+01 -0.24926236966E+02  0.44101917013E+02  0.00000000000E+00 0.  1.
</event>
<event>
 7    1  0.3622165E-015  0.9000771E+02  0.7816164E-02  0.1186339E+00
        -11   -1    0    0    0    0  0.00000000000E+00  0.00000000000E+00  0.45593999997E+02  0.45594000000E+02  0.51100000000E-03 0. -1.
         11   -1    0    0    0    0 -0.00000000000E+00 -0.00000000000E+00 -0.45593999997E+02  0.45594000000E+02  0.51100000000E-03 0.  1.
    9900012    2    1    2    0    0  0.10265099032E+00  0.47040402787E+00  0.10776212839E+01  0.90007709863E+02  0.89999970833E+02 0.  0.
        -12    1    1    2    0    0 -0.10265099032E+00 -0.47040402787E+00 -0.10776212839E+01  0.11802901367E+01  0.00000000000E+00 0.  1.
         11    1    3    3    0    0 -0.18911608017E+02  0.25226704885E+02 -0.31466248306E+01  0.31684961815E+02  0.51100000000E-03 0. -1.
        -11    1    3    3    0    0 -0.16015482791E+02 -0.12585459627E+02 -0.28589338112E+01  0.20568494982E+02  0.51100000000E-03 0.  1.
        -12    1    3    3    0    0  0.35029741798E+02 -0.12170841230E+02  0.70831799256E+01  0.37754253066E+02  0.00000000000E+00 0.  1.
</event>
<event>
 7    1  0.3622165E-015  0.9000774E+02  0.7816164E-02  0.1186339E+00
        -11   -1    0    0    0    0  0.00000000000E+00  0.00000000000E+00  0.45593999997E+02  0.45594000000E+02  0.51100000000E-03 0. -1.
         11   -1    0    0    0    0 -0.00000000000E+00 -0.00000000000E+00 -0.45593999997E+02  0.45594000000E+02  0.51100000000E-03 0.  1.
    9900012    2    1    2    0    0 -0.88530772214E+00  0.71916732304E+00  0.30339629392E+00  0.90007737016E+02  0.89999998344E+02 0.  0.
        -12    1    1    2    0    0  0.88530772214E+00 -0.71916732304E+00 -0.30339629392E+00  0.11802629845E+01  0.00000000000E+00 0.  1.
         11    1    3    3    0    0  0.78043933712E+01  0.33599694379E+02  0.19046112587E+02  0.39403076316E+02  0.51100000000E-03 0. -1.
        -11    1    3    3    0    0  0.81846192595E+01 -0.36881064297E+01  0.41081948752E+01  0.98725572601E+01  0.51100000000E-03 0.  1.
        -12    1    3    3    0    0 -0.16874320353E+02 -0.29192420626E+02 -0.22850911168E+02  0.40732103439E+02  0.00000000000E+00 0.  1.
</event>
<event>
 7    1  0.3622165E-015  0.9000777E+02  0.7816164E-02  0.1186339E+00
        -11   -1    0    0    0    0  0.00000000000E+00  0.00000000000E+00  0.45593999997E+02  0.45594000000E+02  0.51100000000E-03 0.  1.
         11   -1    0    0    0    0 -0.00000000000E+00 -0.00000000000E+00 -0.45593999997E+02  0.45594000000E+02  0.51100000000E-03 0. -1.
    9900012    2    1    2    0    0 -0.38212373292E-02  0.11520332753E+01 -0.25640591535E+00  0.90007771521E+02  0.90000033305E+02 0.  0.
        -12    1    1    2    0    0  0.38212373292E-02 -0.11520332753E+01  0.25640591535E+00  0.11802284790E+01  0.00000000000E+00 0.  1.
         11    1    3    3    0    0  0.40788861453E+02 -0.38247507741E+01 -0.12118573015E+02  0.42722590620E+02  0.51100000000E-03 0. -1.
        -11    1    3    3    0    0 -0.22967933066E+01  0.54243416156E+01  0.58829610034E+01  0.83251409529E+01  0.51100000000E-03 0.  1.
        -12    1    3    3    0    0 -0.38495889384E+02 -0.44755756623E+00  0.59792060958E+01  0.38960039948E+02  0.00000000000E+00 0.  1.
</event>
<event>
 7    1  0.3622165E-015  0.9000765E+02  0.7816164E-02  0.1186339E+00
        -11   -1    0    0    0    0  0.00000000000E+00  0.00000000000E+00  0.45593999997E+02  0.45594000000E+02  0.51100000000E-03 0.  1.
         11   -1    0    0    0    0 -0.00000000000E+00 -0.00000000000E+00 -0.45593999997E+02  0.45594000000E+02  0.51100000000E-03 0. -1.
    9900012    2    1    2    0    0  0.35341842249E+00 -0.51460324801E+00 -0.10017556409E+01  0.90007646050E+02  0.89999906177E+02 0.  0.
        -12    1    1    2    0    0 -0.35341842249E+00  0.51460324801E+00  0.10017556409E+01  0.11803539504E+01  0.00000000000E+00 0.  1.
         11    1    3    3    0    0 -0.13533442776E+02 -0.34898755470E+02  0.10654055070E+02  0.38917683596E+02  0.51100000000E-03 0. -1.
        -11    1    3    3    0    0  0.61539030536E+01 -0.57956087818E+01 -0.44157742897E+01  0.95372253189E+01  0.51100000000E-03 0.  1.
        -12    1    3    3    0    0  0.77329581445E+01  0.40179761004E+02 -0.72400364215E+01  0.41552737135E+02  0.00000000000E+00 0.  1.
</event>
<event>
 7    1  0.3622165E-015  0.9000774E+02  0.7816164E-02  0.1186339E+00
        -11   -1    0    0    0    0  0.00000000000E+00  0.00000000000E+00  0.45593999997E+02  0.45594000000E+02  0.51100000000E-03 0. -1.
         11   -1    0    0    0    0 -0.00000000000E+00 -0.00000000000E+00 -0.45593999997E+02  0.45594000000E+02  0.51100000000E-03 0.  1.
    9900012    2    1    2    0    0  0.27119249711E+00 -0.88541431868E+00  0.73178513307E+00  0.90007740127E+02  0.90000001497E+02 0.  0.
        -12    1    1    2    0    0 -0.27119249711E+00  0.88541431868E+00 -0.73178513307E+00  0.11802598727E+01  0.00000000000E+00 0.  1.
         11    1    3    3    0    0  0.29164266618E+02 -0.17866979670E+01  0.26563390334E+02  0.39488738183E+02  0.51100000000E-03 0. -1.
        -11    1    3    3    0    0 -0.33478657715E+01 -0.12012819388E+01  0.76007389966E+01  0.83918125024E+01  0.51100000000E-03 0.  1.
        -12    1    3    3    0    0 -0.25545208350E+02  0.21025655871E+01 -0.33432344198E+02  0.42127189441E+02  0.00000000000E+00 0.  1.
</event>
<event>
 7    1  0.3622165E-015  0.9000764E+02  0.7816164E-02  0.1186339E+00
        -11   -1    0    0    0    0  0.00000000000E+00  0.00000000000E+00  0.45593999997E+02  0.45594000000E+02  0.51100000000E-03 0. -1.
         11   -1    0    0    0    0 -0.00000000000E+00 -0.00000000000E+00 -0.45593999997E+02  0.45594000000E+02  0.51100000000E-03 0.  1.
    9900012    2    1    2    0    0 -0.92599535810E+00  0.72876927057E+00  0.68323208051E-01  0.90007644073E+02  0.89999904175E+02 0.  0.
        -12    1    1    2    0    0  0.92599535810E+00 -0.72876927057E+00 -0.68323208051E-01  0.11803559267E+01  0.00000000000E+00 0.  1.
         11    1    3    3    0    0 -0.44656027795E+00 -0.63651320641E+01  0.35762888900E+01  0.73146541108E+01  0.51100000000E-03 0. -1.
        -11    1    3    3    0    0  0.40079404867E+02 -0.22171559567E+01  0.42399005492E+01  0.40363984342E+02  0.51100000000E-03 0.  1.
         12    1    3    3    0    0 -0.40558839947E+02  0.93110572914E+01 -0.77478662311E+01  0.42329005621E+02  0.00000000000E+00 0. -1.
</event>
<event>
 7    1  0.3622165E-015  0.9000782E+02  0.7816164E-02  0.1186339E+00
        -11   -1    0    0    0    0  0.00000000000E+00  0.00000000000E+00  0.45593999997E+02  0.45594000000E+02  0.51100000000E-03 0.  1.
         11   -1    0    0    0    0 -0.00000000000E+00 -0.00000000000E+00 -0.45593999997E+02  0.45594000000E+02  0.51100000000E-03 0. -1.
    9900012    2    1    2    0    0 -0.88998228185E+00  0.77507457030E+00  0.46194162994E-02  0.90007817645E+02  0.90000080038E+02 0.  0.
        -12    1    1    2    0    0  0.88998228185E+00 -0.77507457030E+00 -0.46194162994E-02  0.11801823548E+01  0.00000000000E+00 0.  1.
         11    1    3    3    0    0 -0.34560341129E+02 -0.12390879795E+02 -0.20094976104E+02  0.41854021861E+02  0.51100000000E-03 0. -1.
        -11    1    3    3    0    0 -0.14254242023E+01  0.80879718260E+01  0.49740005672E+01  0.96014480324E+01  0.51100000000E-03 0.  1.
        -12    1    3    3    0    0  0.35095783049E+02  0.50779825394E+01  0.15125594953E+02  0.38552347752E+02  0.00000000000E+00 0.  1.
</event>
<event>
 7    1  0.3622165E-015  0.9000767E+02  0.7816164E-02  0.1186339E+00
        -11   -1    0    0    0    0  0.00000000000E+00  0.00000000000E+00  0.45593999997E+02  0.45594000000E+02  0.51100000000E-03 0.  1.
         11   -1    0    0    0    0 -0.00000000000E+00 -0.00000000000E+00 -0.45593999997E+02  0.45594000000E+02  0.51100000000E-03 0. -1.
    9900012    2    1    2    0    0  0.28093686802E+00 -0.16666997416E+00 -0.11342307229E+01  0.90007667955E+02  0.89999928372E+02 0.  0.
        -12    1    1    2    0    0 -0.28093686802E+00  0.16666997416E+00  0.11342307229E+01  0.11803320452E+01  0.00000000000E+00 0.  1.
         11    1    3    3    0    0 -0.16680301733E+02 -0.24218713137E+02 -0.92436044261E+00  0.29421641260E+02  0.51100000000E-03 0. -1.
        -11    1    3    3    0    0 -0.64533769566E+01 -0.14212479287E+02 -0.17000643926E+01  0.15701301247E+02  0.51100000000E-03 0.  1.
         12    1    3    3    0    0  0.23414615558E+02  0.38264522450E+02  0.14901941123E+01  0.44884725448E+02  0.00000000000E+00 0. -1.
</event>
<event>
 7    1  0.3622165E-015  0.9000769E+02  0.7816164E-02  0.1186339E+00
        -11   -1    0    0    0    0  0.00000000000E+00  0.00000000000E+00  0.45593999997E+02  0.45594000000E+02  0.51100000000E-03 0. -1.
         11   -1    0    0    0    0 -0.00000000000E+00 -0.00000000000E+00 -0.45593999997E+02  0.45594000000E+02  0.51100000000E-03 0.  1.
    9900012    2    1    2    0    0 -0.76182933848E+00 -0.64815107328E+00 -0.62661535505E+00  0.90007690482E+02  0.89999951196E+02 0.  0.
        -12    1    1    2    0    0  0.76182933848E+00  0.64815107328E+00  0.62661535505E+00  0.11803095179E+01  0.00000000000E+00 0.  1.
         11    1    3    3    0    0 -0.62107437759E+00  0.94716069844E+00  0.98216500248E+01  0.98867414370E+01  0.51100000000E-03 0. -1.
        -11    1    3    3    0    0 -0.38099788818E+02 -0.12107819751E+02 -0.69625141630E+01  0.40579179524E+02  0.51100000000E-03 0.  1.
         12    1    3    3    0    0  0.37959033857E+02  0.10512507980E+02 -0.34857512168E+01  0.39541769522E+02  0.00000000000E+00 0. -1.
</event>
<event>
 7    1  0.3622165E-015  0.9000765E+02  0.7816164E-02  0.1186339E+00
        -11   -1    0    0    0    0  0.00000000000E+00  0.00000000000E+00  0.45593999997E+02  0.45594000000E+02  0.51100000000E-03 0. -1.
         11   -1    0    0    0    0 -0.00000000000E+00 -0.00000000000E+00 -0.45593999997E+02  0.45594000000E+02  0.51100000000E-03 0.  1.
    9900012    2    1    2    0    0 -0.26699321370E-01 -0.91606025469E+00  0.74387562459E+00  0.90007648277E+02  0.89999908435E+02 0.  0.
        -12    1    1    2    0    0  0.26699321370E-01  0.91606025469E+00 -0.74387562459E+00  0.11803517225E+01  0.00000000000E+00 0.  1.
         11    1    3    3    0    0 -0.24414322844E+02  0.27499343760E+02  0.39573775659E+01  0.36985590500E+02  0.51100000000E-03 0. -1.
        -11    1    3    3    0    0 -0.67437768677E+01 -0.57319307415E+01 -0.10591796744E+02  0.13802887922E+02  0.51100000000E-03 0.  1.
        -12    1    3    3    0    0  0.31131400390E+02 -0.22683473273E+02  0.73782948026E+01  0.39219169856E+02  0.00000000000E+00 0.  1.
</event>
<event>
 7    1  0.3622165E-015  0.9000774E+02  0.7816164E-02  0.1186339E+00
        -11   -1    0    0    0    0  0.00000000000E+00  0.00000000000E+00  0.45593999997E+02  0.45594000000E+02  0.51100000000E-03 0. -1.
         11   -1    0    0    0    0 -0.00000000000E+00 -0.00000000000E+00 -0.45593999997E+02  0.45594000000E+02  0.51100000000E-03 0.  1.
    9900012    2    1    2    0    0  0.20010064089E+00  0.11245495629E+01  0.29724930260E+00  0.90007741921E+02  0.90000003314E+02 0.  0.
        -12    1    1    2    0    0 -0.20010064089E+00 -0.11245495629E+01 -0.29724930260E+00  0.11802580793E+01  0.00000000000E+00 0.  1.
         11    1    3    3    0    0 -0.13298602659E+02 -0.78903379431E+00  0.10863435537E+02  0.17189812068E+02  0.51100000000E-03 0. -1.
        -11    1    3    3    0    0 -0.12279826121E+02  0.23985706160E+02 -0.24225693999E+02  0.36235238091E+02  0.51100000000E-03 0.  1.
         12    1    3    3    0    0  0.25778529421E+02 -0.22072122802E+02  0.13659507765E+02  0.36582691761E+02  0.00000000000E+00 0. -1.
</event>
<event>
 7    1  0.3622165E-015  0.9000770E+02  0.7816164E-02  0.1186339E+00
        -11   -1    0    0    0    0  0.00000000000E+00  0.00000000000E+00  0.45593999997E+02  0.45594000000E+02  0.51100000000E-03 0. -1.
         11   -1    0    0    0    0 -0.00000000000E+00 -0.00000000000E+00 -0.45593999997E+02  0.45594000000E+02  0.51100000000E-03 0.  1.
    9900012    2    1    2    0    0 -0.15737952654E+00  0.11690708972E+01  0.40236763146E-01  0.90007697465E+02  0.89999958271E+02 0.  0.
        -12    1    1    2    0    0  0.15737952654E+00 -0.11690708972E+01 -0.40236763146E-01  0.11803025355E+01  0.00000000000E+00 0.  1.
         11    1    3    3    0    0  0.13664657266E+02 -0.32161738191E+02  0.18169792852E+02  0.39385804984E+02  0.51100000000E-03 0. -1.
        -11    1    3    3    0    0 -0.81277209023E+01 -0.38296885739E+01 -0.23946929904E+00  0.89879757145E+01  0.51100000000E-03 0.  1.
        -12    1    3    3    0    0 -0.56943158904E+01  0.37160497662E+02 -0.17890086790E+02  0.41633916766E+02  0.00000000000E+00 0.  1.
</event>
<event>
 7    1  0.3622165E-015  0.9000753E+02  0.7816164E-02  0.1186339E+00
        -11   -1    0    0    0    0  0.00000000000E+00  0.00000000000E+00  0.45593999997E+02  0.45594000000E+02  0.51100000000E-03 0. -1.
         11   -1    0    0    0    0 -0.00000000000E+00 -0.00000000000E+00 -0.45593999997E+02  0.45594000000E+02  0.51100000000E-03 0.  1.
    9900012    2    1    2    0    0 -0.30200521169E+00  0.20262076199E+00  0.11230493562E+01  0.90007533068E+02  0.89999791704E+02 0.  0.
        -12    1    1    2    0    0  0.30200521169E+00 -0.20262076199E+00 -0.11230493562E+01  0.11804669320E+01  0.00000000000E+00 0.  1.
         11    1    3    3    0    0 -0.76800825620E+01  0.50787835502E+01  0.44054539431E+01  0.10207141383E+02  0.51100000000E-03 0. -1.
        -11    1    3    3    0    0  0.21473186138E+01  0.33956164986E+02  0.14232584099E+02  0.36880869949E+02  0.51100000000E-03 0.  1.
         12    1    3    3    0    0  0.52307587364E+01 -0.38832327774E+02 -0.17514988686E+02  0.42919521736E+02  0.00000000000E+00 0. -1.
</event>
<event>
 7    1  0.3622165E-015  0.9000773E+02  0.7816164E-02  0.1186339E+00
        -11   -1    0    0    0    0  0.00000000000E+00  0.00000000000E+00  0.45593999997E+02  0.45594000000E+02  0.51100000000E-03 0. -1.
         11   -1    0    0    0    0 -0.00000000000E+00 -0.00000000000E+00 -0.45593999997E+02  0.45594000000E+02  0.51100000000E-03 0.  1.
    9900012    2    1    2    0    0  0.16129570210E+00  0.11561750906E+01  0.17400439509E+00  0.90007731101E+02  0.89999992352E+02 0.  0.
        -12    1    1    2    0    0 -0.16129570210E+00 -0.11561750906E+01 -0.17400439509E+00  0.11802688987E+01  0.00000000000E+00 0.  1.
         11    1    3    3    0    0  0.58934490263E+01 -0.72361270983E+01  0.46804343676E+01  0.10440342089E+02  0.51100000000E-03 0. -1.
        -11    1    3    3    0    0 -0.27817120734E+01 -0.20772579984E+02 -0.32736530166E+02  0.38870533941E+02  0.51100000000E-03 0.  1.
         12    1    3    3    0    0 -0.29504412507E+01  0.29164882173E+02  0.28230100194E+02  0.40696855071E+02  0.00000000000E+00 0. -1.
</event>
<event>
 7    1  0.3622165E-015  0.9000774E+02  0.7816164E-02  0.1186339E+00
        -11   -1    0    0    0    0  0.00000000000E+00  0.00000000000E+00  0.45593999997E+02  0.45594000000E+02  0.51100000000E-03 0. -1.
         11   -1    0    0    0    0 -0.00000000000E+00 -0.00000000000E+00 -0.45593999997E+02  0.45594000000E+02  0.51100000000E-03 0.  1.
    9900012    2    1    2    0    0 -0.16316557752E+00 -0.78049061904E+00  0.87018301282E+00  0.90007742787E+02  0.90000004192E+02 0.  0.
        -12    1    1    2    0    0  0.16316557752E+00  0.78049061904E+00 -0.87018301282E+00  0.11802572126E+01  0.00000000000E+00 0.  1.
         11    1    3    3    0    0 -0.24905858392E+02  0.18266520254E+02  0.24341931761E+02  0.39325528433E+02  0.51100000000E-03 0. -1.
        -11    1    3    3    0    0  0.10594329044E+02  0.51406887297E+01  0.29807707910E+01  0.12147077150E+02  0.51100000000E-03 0.  1.
        -12    1    3    3    0    0  0.14148363770E+02 -0.24187699603E+02 -0.26452519539E+02  0.38535137205E+02  0.00000000000E+00 0.  1.
</event>
<event>
 7    1  0.3622165E-015  0.9000781E+02  0.7816164E-02  0.1186339E+00
        -11   -1    0    0    0    0  0.00000000000E+00  0.00000000000E+00  0.45593999997E+02  0.45594000000E+02  0.51100000000E-03 0. -1.
         11   -1    0    0    0    0 -0.00000000000E+00 -0.00000000000E+00 -0.45593999997E+02  0.45594000000E+02  0.51100000000E-03 0.  1.
    9900012    2    1    2    0    0 -0.73121032995E+00 -0.69346154008E+00 -0.61424048286E+00  0.90007809835E+02  0.90000072125E+02 0.  0.
        -12    1    1    2    0    0  0.73121032995E+00  0.69346154008E+00  0.61424048286E+00  0.11801901648E+01  0.00000000000E+00 0.  1.
         11    1    3    3    0    0  0.16271332836E+01  0.63696975968E+01  0.40873418667E+02  0.41398755585E+02  0.51100000000E-03 0. -1.
        -11    1    3    3    0    0  0.28970130050E+01 -0.70311615370E+01 -0.87158737875E+00  0.76543831711E+01  0.51100000000E-03 0.  1.
        -12    1    3    3    0    0 -0.52553566186E+01 -0.31997599889E-01 -0.40616071771E+02  0.40954671079E+02  0.00000000000E+00 0.  1.
</event>
<event>
 7    1  0.3622165E-015  0.9000785E+02  0.7816164E-02  0.1186339E+00
        -11   -1    0    0    0    0  0.00000000000E+00  0.00000000000E+00  0.45593999997E+02  0.45594000000E+02  0.51100000000E-03 0. -1.
         11   -1    0    0    0    0 -0.00000000000E+00 -0.00000000000E+00 -0.45593999997E+02  0.45594000000E+02  0.51100000000E-03 0.  1.
    9900012    2    1    2    0    0 -0.92278129857E+00 -0.68975717814E+00  0.25587031946E+00  0.90007847506E+02  0.90000110293E+02 0.  0.
        -12    1    1    2    0    0  0.92278129857E+00  0.68975717814E+00 -0.25587031946E+00  0.11801524945E+01  0.00000000000E+00 0.  1.
         11    1    3    3    0    0 -0.14635613004E+02 -0.33501382501E+02  0.13166415130E+02  0.38857409655E+02  0.51100000000E-03 0. -1.
        -11    1    3    3    0    0 -0.17035945988E+01  0.35001617447E+01  0.10099109153E+02  0.10823371597E+02  0.51100000000E-03 0.  1.
        -12    1    3    3    0    0  0.15416426305E+02  0.29311463578E+02 -0.23009653963E+02  0.40327066253E+02  0.00000000000E+00 0.  1.
</event>
<event>
 7    1  0.3622165E-015  0.9000780E+02  0.7816164E-02  0.1186339E+00
        -11   -1    0    0    0    0  0.00000000000E+00  0.00000000000E+00  0.45593999997E+02  0.45594000000E+02  0.51100000000E-03 0.  1.
         11   -1    0    0    0    0 -0.00000000000E+00 -0.00000000000E+00 -0.45593999997E+02  0.45594000000E+02  0.51100000000E-03 0. -1.
    9900012    2    1    2    0    0 -0.90560343845E+00 -0.67548543237E+00 -0.34128910683E+00  0.90007798148E+02  0.90000060284E+02 0.  0.
        -12    1    1    2    0    0  0.90560343845E+00  0.67548543237E+00  0.34128910683E+00  0.11802018520E+01  0.00000000000E+00 0.  1.
         11    1    3    3    0    0  0.27966232545E+02  0.29303257341E+00 -0.33433393642E+02  0.43588849968E+02  0.51100000000E-03 0. -1.
        -11    1    3    3    0    0 -0.64756399560E+01 -0.51825332479E+01  0.33389418471E+01  0.89409785048E+01  0.51100000000E-03 0.  1.
        -12    1    3    3    0    0 -0.22396196028E+02  0.42140152421E+01  0.29753162689E+02  0.37477969675E+02  0.00000000000E+00 0.  1.
</event>
<event>
 7    1  0.3622165E-015  0.9000773E+02  0.7816164E-02  0.1186339E+00
        -11   -1    0    0    0    0  0.00000000000E+00  0.00000000000E+00  0.45593999997E+02  0.45594000000E+02  0.51100000000E-03 0. -1.
         11   -1    0    0    0    0 -0.00000000000E+00 -0.00000000000E+00 -0.45593999997E+02  0.45594000000E+02  0.51100000000E-03 0.  1.
    9900012    2    1    2    0    0  0.63176551323E+00  0.82999315133E-01  0.99349413006E+00  0.90007725821E+02  0.89999987002E+02 0.  0.
        -12    1    1    2    0    0 -0.63176551323E+00 -0.82999315133E-01 -0.99349413006E+00  0.11802741785E+01  0.00000000000E+00 0.  1.
         11    1    3    3    0    0  0.10048225581E+02  0.11830870146E+02  0.28510719235E+02  0.32462246338E+02  0.51100000000E-03 0. -1.
        -11    1    3    3    0    0 -0.24828213198E+01  0.17531068723E+02 -0.15020707000E+01  0.17769608576E+02  0.51100000000E-03 0.  1.
        -12    1    3    3    0    0 -0.69336387477E+01 -0.29278939555E+02 -0.26015154405E+02  0.39775870907E+02  0.00000000000E+00 0.  1.
</event>
<event>
 7    1  0.3622165E-015  0.9000771E+02  0.7816164E-02  0.1186339E+00
        -11   -1    0    0    0    0  0.00000000000E+00  0.00000000000E+00  0.45593999997E+02  0.45594000000E+02  0.51100000000E-03 0.  1.
         11   -1    0    0    0    0 -0.00000000000E+00 -0.00000000000E+00 -0.45593999997E+02  0.45594000000E+02  0.51100000000E-03 0. -1.
    9900012    2    1    2    0    0  0.10098566309E+01 -0.52101734897E+00  0.31908825716E+00  0.90007709015E+02  0.89999969974E+02 0.  0.
        -12    1    1    2    0    0 -0.10098566309E+01  0.52101734897E+00 -0.31908825716E+00  0.11802909848E+01  0.00000000000E+00 0.  1.
         11    1    3    3    0    0 -0.18377239012E+01  0.52107958368E+01  0.21598997256E+01  0.59325196566E+01  0.51100000000E-03 0. -1.
        -11    1    3    3    0    0 -0.11932446655E+02 -0.18921339846E+02  0.35410422825E+02  0.41884345878E+02  0.51100000000E-03 0.  1.
         12    1    3    3    0    0  0.14780027187E+02  0.13189526661E+02 -0.37251234293E+02  0.42190843480E+02  0.00000000000E+00 0. -1.
</event>
<event>
 7    1  0.3622165E-015  0.9000777E+02  0.7816164E-02  0.1186339E+00
        -11   -1    0    0    0    0  0.00000000000E+00  0.00000000000E+00  0.45593999997E+02  0.45594000000E+02  0.51100000000E-03 0. -1.
         11   -1    0    0    0    0 -0.00000000000E+00 -0.00000000000E+00 -0.45593999997E+02  0.45594000000E+02  0.51100000000E-03 0.  1.
    9900012    2    1    2    0    0 -0.75793157169E+00  0.89777563683E+00 -0.11168691552E+00  0.90007773188E+02  0.90000034994E+02 0.  0.
        -12    1    1    2    0    0  0.75793157169E+00 -0.89777563683E+00  0.11168691552E+00  0.11802268123E+01  0.00000000000E+00 0.  1.
         11    1    3    3    0    0 -0.52771358918E+00 -0.28692488464E+01  0.10680227847E+02  0.11071510182E+02  0.51100000000E-03 0. -1.
        -11    1    3    3    0    0  0.35774197574E+02 -0.64942173486E+01  0.77230597725E+01  0.37170064885E+02  0.51100000000E-03 0.  1.
         12    1    3    3    0    0 -0.36004415556E+02  0.10261241832E+02 -0.18514974535E+02  0.41766198121E+02  0.00000000000E+00 0. -1.
</event>
<event>
 7    1  0.3622165E-015  0.9000773E+02  0.7816164E-02  0.1186339E+00
        -11   -1    0    0    0    0  0.00000000000E+00  0.00000000000E+00  0.45593999997E+02  0.45594000000E+02  0.51100000000E-03 0.  1.
         11   -1    0    0    0    0 -0.00000000000E+00 -0.00000000000E+00 -0.45593999997E+02  0.45594000000E+02  0.51100000000E-03 0. -1.
    9900012    2    1    2    0    0 -0.48976796495E+00 -0.11538029308E+00 -0.10676398071E+01  0.90007728832E+02  0.89999990053E+02 0.  0.
        -12    1    1    2    0    0  0.48976796495E+00  0.11538029308E+00  0.10676398071E+01  0.11802711677E+01  0.00000000000E+00 0.  1.
         11    1    3    3    0    0  0.90394697440E+01 -0.38508184798E+01  0.24041897694E+01  0.10115381601E+02  0.51100000000E-03 0. -1.
        -11    1    3    3    0    0 -0.65733060784E+01 -0.36784177173E+02  0.68143181179E+01  0.37983140665E+02  0.51100000000E-03 0.  1.
         12    1    3    3    0    0 -0.29559316306E+01  0.40519615360E+02 -0.10286147694E+02  0.41909206567E+02  0.00000000000E+00 0. -1.
</event>
<event>
 7    1  0.3622165E-015  0.9000771E+02  0.7816164E-02  0.1186339E+00
        -11   -1    0    0    0    0  0.00000000000E+00  0.00000000000E+00  0.45593999997E+02  0.45594000000E+02  0.51100000000E-03 0. -1.
         11   -1    0    0    0    0 -0.00000000000E+00 -0.00000000000E+00 -0.45593999997E+02  0.45594000000E+02  0.51100000000E-03 0.  1.
    9900012    2    1    2    0    0 -0.30396988365E+00 -0.58656432886E+00  0.97807049746E+00  0.90007713043E+02  0.89999974056E+02 0.  0.
        -12    1    1    2    0    0  0.30396988365E+00  0.58656432886E+00 -0.97807049746E+00  0.11802869567E+01  0.00000000000E+00 0.  1.
         11    1    3    3    0    0 -0.82836402693E+01  0.10644010380E+01 -0.20988439176E+01  0.86114337791E+01  0.51100000000E-03 0. -1.
        -11    1    3    3    0    0 -0.34575423603E+02  0.64911642599E+01 -0.92017686022E+01  0.36362998728E+02  0.51100000000E-03 0.  1.
         12    1    3    3    0    0  0.42555093989E+02 -0.81421296267E+01  0.12278683017E+02  0.45033280537E+02  0.00000000000E+00 0. -1.
</event>
<event>
 7    1  0.3622165E-015  0.9000767E+02  0.7816164E-02  0.1186339E+00
        -11   -1    0    0    0    0  0.00000000000E+00  0.00000000000E+00  0.45593999997E+02  0.45594000000E+02  0.51100000000E-03 0.  1.
         11   -1    0    0    0    0 -0.00000000000E+00 -0.00000000000E+00 -0.45593999997E+02  0.45594000000E+02  0.51100000000E-03 0. -1.
    9900012    2    1    2    0    0 -0.59331124150E+00  0.62219986765E+00  0.80872075874E+00  0.90007669466E+02  0.89999929903E+02 0.  0.
        -12    1    1    2    0    0  0.59331124150E+00 -0.62219986765E+00 -0.80872075874E+00  0.11803305343E+01  0.00000000000E+00 0.  1.
         11    1    3    3    0    0  0.15124767804E+02  0.13817220614E+02 -0.26227317834E+02  0.33279819526E+02  0.51100000000E-03 0. -1.
        -11    1    3    3    0    0 -0.11823424331E+02  0.67726180107E+01 -0.82994789775E+01  0.15954405949E+02  0.51100000000E-03 0.  1.
        -12    1    3    3    0    0 -0.38946547145E+01 -0.19967638757E+02  0.35335517571E+02  0.40773443991E+02  0.00000000000E+00 0.  1.
</event>
<event>
 7    1  0.3622165E-015  0.9000776E+02  0.7816164E-02  0.1186339E+00
        -11   -1    0    0    0    0  0.00000000000E+00  0.00000000000E+00  0.45593999997E+02  0.45594000000E+02  0.51100000000E-03 0.  1.
         11   -1    0    0    0    0 -0.00000000000E+00 -0.00000000000E+00 -0.45593999997E+02  0.45594000000E+02  0.51100000000E-03 0. -1.
    9900012    2    1    2    0    0  0.86469621621E+00  0.62462771805E+00 -0.50509196380E+00  0.90007755439E+02  0.90000017011E+02 0.  0.
        -12    1    1    2    0    0 -0.86469621621E+00 -0.62462771805E+00  0.50509196380E+00  0.11802445613E+01  0.00000000000E+00 0.  1.
         11    1    3    3    0    0 -0.19043660422E+01  0.76623475067E-01 -0.39227821624E+02  0.39274094144E+02  0.51100000000E-03 0. -1.
        -11    1    3    3    0    0 -0.12667984703E+02 -0.36543688063E+01  0.63731590653E+01  0.14644091114E+02  0.51100000000E-03 0.  1.
        -12    1    3    3    0    0  0.15437046962E+02  0.42023730493E+01  0.32349570595E+02  0.36089570181E+02  0.00000000000E+00 0.  1.
</event>
<event>
 7    1  0.3622165E-015  0.9000772E+02  0.7816164E-02  0.1186339E+00
        -11   -1    0    0    0    0  0.00000000000E+00  0.00000000000E+00  0.45593999997E+02  0.45594000000E+02  0.51100000000E-03 0. -1.
         11   -1    0    0    0    0 -0.00000000000E+00 -0.00000000000E+00 -0.45593999997E+02  0.45594000000E+02  0.51100000000E-03 0.  1.
    9900012    2    1    2    0    0 -0.27393279237E+00  0.11072836969E+01 -0.30322780700E+00  0.90007718905E+02  0.89999979995E+02 0.  0.
        -12    1    1    2    0    0  0.27393279237E+00 -0.11072836969E+01  0.30322780700E+00  0.11802810950E+01  0.00000000000E+00 0.  1.
         11    1    3    3    0    0 -0.11648225206E+01  0.89355305317E+01  0.31585904653E+02  0.32846154880E+02  0.51100000000E-03 0. -1.
        -11    1    3    3    0    0 -0.13682367300E+02  0.12289363667E+01  0.64363009228E+01  0.15170478877E+02  0.51100000000E-03 0.  1.
        -12    1    3    3    0    0  0.14573257028E+02 -0.90571832015E+01 -0.38325433383E+02  0.41991085148E+02  0.00000000000E+00 0.  1.
</event>
<event>
 7    1  0.3622165E-015  0.9000807E+02  0.7816164E-02  0.1186338E+00
        -11   -1    0    0    0    0  0.00000000000E+00  0.00000000000E+00  0.45593999997E+02  0.45594000000E+02  0.51100000000E-03 0. -1.
         11   -1    0    0    0    0 -0.00000000000E+00 -0.00000000000E+00 -0.45593999997E+02  0.45594000000E+02  0.51100000000E-03 0.  1.
    9900012    2    1    2    0    0  0.81713477294E+00  0.26452199644E+00  0.80904743486E+00  0.90008068275E+02  0.90000333976E+02 0.  0.
        -12    1    1    2    0    0 -0.81713477294E+00 -0.26452199644E+00 -0.80904743486E+00  0.11799317250E+01  0.00000000000E+00 0.  1.
         11    1    3    3    0    0  0.29407725195E+02 -0.17707440112E+02  0.14715712979E+02  0.37348627086E+02  0.51100000000E-03 0. -1.
        -11    1    3    3    0    0  0.53592615347E+01 -0.60240280755E+01  0.17221951531E+01  0.82447895582E+01  0.51100000000E-03 0.  1.
        -12    1    3    3    0    0 -0.33949851957E+02  0.23995990184E+02 -0.15628860697E+02  0.44414651631E+02  0.00000000000E+00 0.  1.
</event>
<event>
 7    1  0.3622165E-015  0.9000780E+02  0.7816164E-02  0.1186339E+00
        -11   -1    0    0    0    0  0.00000000000E+00  0.00000000000E+00  0.45593999997E+02  0.45594000000E+02  0.51100000000E-03 0.  1.
         11   -1    0    0    0    0 -0.00000000000E+00 -0.00000000000E+00 -0.45593999997E+02  0.45594000000E+02  0.51100000000E-03 0. -1.
    9900012    2    1    2    0    0 -0.75651930396E+00 -0.17404999753E+00 -0.88896830482E+00  0.90007796837E+02  0.90000058955E+02 0.  0.
        -12    1    1    2    0    0  0.75651930396E+00  0.17404999753E+00  0.88896830482E+00  0.11802031630E+01  0.00000000000E+00 0.  1.
         11    1    3    3    0    0  0.18175108446E+02 -0.24437573081E+02 -0.19891190886E+01  0.30520257865E+02  0.51100000000E-03 0. -1.
        -11    1    3    3    0    0 -0.60579613467E+01 -0.16050612057E+02  0.10576312529E+00  0.17156113464E+02  0.51100000000E-03 0.  1.
        -12    1    3    3    0    0 -0.12873666403E+02  0.40314135140E+02  0.99438765852E+00  0.42331425509E+02  0.00000000000E+00 0.  1.
</event>
<event>
 7    1  0.3622165E-015  0.9000829E+02  0.7816164E-02  0.1186338E+00
        -11   -1    0    0    0    0  0.00000000000E+00  0.00000000000E+00  0.45593999997E+02  0.45594000000E+02  0.51100000000E-03 0.  1.
         11   -1    0    0    0    0 -0.00000000000E+00 -0.00000000000E+00 -0.45593999997E+02  0.45594000000E+02  0.51100000000E-03 0. -1.
    9900012    2    1    2    0    0 -0.91952260876E+00 -0.27913662287E+00 -0.68431131620E+00  0.90008287722E+02  0.90000556318E+02 0.  0.
        -12    1    1    2    0    0  0.91952260876E+00  0.27913662287E+00  0.68431131620E+00  0.11797122784E+01  0.00000000000E+00 0.  1.
         11    1    3    3    0    0 -0.67489792932E+01  0.58222723910E+01  0.20422065470E+01  0.91442979576E+01  0.51100000000E-03 0. -1.
        -11    1    3    3    0    0 -0.26292135045E+02  0.16832828445E+02  0.18255588558E+02  0.36164720274E+02  0.51100000000E-03 0.  1.
         12    1    3    3    0    0  0.32121591729E+02 -0.22934237459E+02 -0.20982106422E+02  0.44699269490E+02  0.00000000000E+00 0. -1.
</event>
<event>
 7    1  0.3622165E-015  0.9000772E+02  0.7816164E-02  0.1186339E+00
        -11   -1    0    0    0    0  0.00000000000E+00  0.00000000000E+00  0.45593999997E+02  0.45594000000E+02  0.51100000000E-03 0.  1.
         11   -1    0    0    0    0 -0.00000000000E+00 -0.00000000000E+00 -0.45593999997E+02  0.45594000000E+02  0.51100000000E-03 0. -1.
    9900012    2    1    2    0    0  0.10028633250E+01 -0.48762169184E+00 -0.38672138391E+00  0.90007719020E+02  0.89999980111E+02 0.  0.
        -12    1    1    2    0    0 -0.10028633250E+01  0.48762169184E+00  0.38672138391E+00  0.11802809800E+01  0.00000000000E+00 0.  1.
         11    1    3    3    0    0 -0.18356416704E+02  0.31444016486E+02  0.17260068832E+01  0.36450834105E+02  0.51100000000E-03 0. -1.
        -11    1    3    3    0    0  0.30006693010E+01  0.71358120433E+01 -0.76007100152E+01  0.10848715259E+02  0.51100000000E-03 0.  1.
        -12    1    3    3    0    0  0.16358610728E+02 -0.39067450221E+02  0.54879817482E+01  0.42708169656E+02  0.00000000000E+00 0.  1.
</event>
<event>
 7    1  0.3622165E-015  0.9000766E+02  0.7816164E-02  0.1186339E+00
        -11   -1    0    0    0    0  0.00000000000E+00  0.00000000000E+00  0.45593999997E+02  0.45594000000E+02  0.51100000000E-03 0.  1.
         11   -1    0    0    0    0 -0.00000000000E+00 -0.00000000000E+00 -0.45593999997E+02  0.45594000000E+02  0.51100000000E-03 0. -1.
    9900012    2    1    2    0    0  0.10242228509E+01 -0.94786269365E-01  0.57895239996E+00  0.90007659894E+02  0.89999920204E+02 0.  0.
        -12    1    1    2    0    0 -0.10242228509E+01  0.94786269365E-01 -0.57895239996E+00  0.11803401063E+01  0.00000000000E+00 0.  1.
         11    1    3    3    0    0  0.11559028570E+02 -0.17015629872E+02 -0.25385514618E+02  0.32673646171E+02  0.51100000000E-03 0. -1.
        -11    1    3    3    0    0 -0.23464591168E+02  0.12145639079E+02 -0.16475290014E+01  0.26472966200E+02  0.51100000000E-03 0.  1.
        -12    1    3    3    0    0  0.12929785449E+02  0.47752045227E+01  0.27611996020E+02  0.30861047523E+02  0.00000000000E+00 0.  1.
</event>
<event>
 7    1  0.3622165E-015  0.9000753E+02  0.7816164E-02  0.1186339E+00
        -11   -1    0    0    0    0  0.00000000000E+00  0.00000000000E+00  0.45593999997E+02  0.45594000000E+02  0.51100000000E-03 0. -1.
         11   -1    0    0    0    0 -0.00000000000E+00 -0.00000000000E+00 -0.45593999997E+02  0.45594000000E+02  0.51100000000E-03 0.  1.
    9900012    2    1    2    0    0 -0.28805249781E+00 -0.11439700950E+01  0.43097850382E-01  0.90007534310E+02  0.89999792963E+02 0.  0.
        -12    1    1    2    0    0  0.28805249781E+00  0.11439700950E+01 -0.43097850382E-01  0.11804656897E+01  0.00000000000E+00 0.  1.
         11    1    3    3    0    0 -0.42481145014E+01  0.49620785790E+01  0.57356756629E+01  0.86929095366E+01  0.51100000000E-03 0. -1.
        -11    1    3    3    0    0 -0.97171961050E+01 -0.41649569673E+02 -0.62746430582E+01  0.43225937814E+02  0.51100000000E-03 0.  1.
         12    1    3    3    0    0  0.13677258109E+02  0.35543520999E+02  0.58206524569E+00  0.38088686960E+02  0.00000000000E+00 0. -1.
</event>
<event>
 7    1  0.3622165E-015  0.9000776E+02  0.7816164E-02  0.1186339E+00
        -11   -1    0    0    0    0  0.00000000000E+00  0.00000000000E+00  0.45593999997E+02  0.45594000000E+02  0.51100000000E-03 0.  1.
         11   -1    0    0    0    0 -0.00000000000E+00 -0.00000000000E+00 -0.45593999997E+02  0.45594000000E+02  0.51100000000E-03 0. -1.
    9900012    2    1    2    0    0  0.38090945821E+00 -0.78858228844E+00 -0.79121509600E+00  0.90007756225E+02  0.90000017807E+02 0.  0.
        -12    1    1    2    0    0 -0.38090945821E+00  0.78858228844E+00  0.79121509600E+00  0.11802437753E+01  0.00000000000E+00 0.  1.
         11    1    3    3    0    0 -0.17775491913E+00 -0.82749581696E+01 -0.39784367684E+01  0.91833811258E+01  0.51100000000E-03 0. -1.
        -11    1    3    3    0    0 -0.29272078259E+02 -0.23656709359E+02  0.14023356418E+01  0.37662461534E+02  0.51100000000E-03 0.  1.
         12    1    3    3    0    0  0.29830742636E+02  0.31143085240E+02  0.17848860306E+01  0.43161913565E+02  0.00000000000E+00 0. -1.
</event>
<event>
 7    1  0.5615012E-015  0.9000772E+02  0.7816164E-02  0.1186339E+00
        -11   -1    0    0    0    0  0.00000000000E+00  0.00000000000E+00  0.45593999997E+02  0.45594000000E+02  0.51100000000E-03 0. -1.
         11   -1    0    0    0    0 -0.00000000000E+00 -0.00000000000E+00 -0.45593999997E+02  0.45594000000E+02  0.51100000000E-03 0.  1.
    9900012    2    1    2    0    0 -0.98735327821E+00 -0.32556736280E+00  0.55874994965E+00  0.90007719478E+02  0.89999980575E+02 0.  0.
        -12    1    1    2    0    0  0.98735327821E+00  0.32556736280E+00 -0.55874994965E+00  0.11802805217E+01  0.00000000000E+00 0.  1.
         11    1    3    3    0    0  0.24977101778E+00 -0.95848008532E+01  0.34118855233E+00  0.95941233496E+01  0.51100000000E-03 0. -1.
        -11    1    3    3    0    0  0.42204044471E+01  0.21963438716E+02 -0.35587325855E+02  0.42031681096E+02  0.51100000000E-03 0.  1.
         12    1    3    3    0    0 -0.54575287431E+01 -0.12704205226E+02  0.35804887253E+02  0.38381915033E+02  0.00000000000E+00 0. -1.
</event>
<event>
 7    1  0.3622165E-015  0.9000724E+02  0.7816164E-02  0.1186340E+00
        -11   -1    0    0    0    0  0.00000000000E+00  0.00000000000E+00  0.45593999997E+02  0.45594000000E+02  0.51100000000E-03 0. -1.
         11   -1    0    0    0    0 -0.00000000000E+00 -0.00000000000E+00 -0.45593999997E+02  0.45594000000E+02  0.51100000000E-03 0.  1.
    9900012    2    1    2    0    0 -0.48280850924E+00  0.80238898852E+00  0.71921373743E+00  0.90007237303E+02  0.89999492034E+02 0.  0.
        -12    1    1    2    0    0  0.48280850924E+00 -0.80238898852E+00 -0.71921373743E+00  0.11807626966E+01  0.00000000000E+00 0.  1.
         11    1    3    3    0    0 -0.20815772731E+01 -0.25810672746E+02  0.31418683630E+02  0.40714339892E+02  0.51100000000E-03 0. -1.
        -11    1    3    3    0    0  0.12884040138E+02  0.43554192543E+01 -0.11380844574E+02  0.17733916393E+02  0.51100000000E-03 0.  1.
        -12    1    3    3    0    0 -0.11285271374E+02  0.22257642480E+02 -0.19318625319E+02  0.31558981019E+02  0.00000000000E+00 0.  1.
</event>
<event>
 7    1  0.4054032E-015  0.9000772E+02  0.7816164E-02  0.1186339E+00
        -11   -1    0    0    0    0  0.00000000000E+00  0.00000000000E+00  0.45593999997E+02  0.45594000000E+02  0.51100000000E-03 0.  1.
         11   -1    0    0    0    0 -0.00000000000E+00 -0.00000000000E+00 -0.45593999997E+02  0.45594000000E+02  0.51100000000E-03 0. -1.
    9900012    2    1    2    0    0 -0.56362637417E+00  0.10359849239E+01 -0.46177798214E-01  0.90007715356E+02  0.89999976399E+02 0.  0.
        -12    1    1    2    0    0  0.56362637417E+00 -0.10359849239E+01  0.46177798214E-01  0.11802846442E+01  0.00000000000E+00 0.  1.
         11    1    3    3    0    0  0.22294445059E+01 -0.39538364816E+01  0.83684255346E+01  0.95201781453E+01  0.51100000000E-03 0. -1.
        -11    1    3    3    0    0 -0.36474077376E+02  0.19253535122E+02  0.49623688046E+01  0.41541329294E+02  0.51100000000E-03 0.  1.
         12    1    3    3    0    0  0.33681006496E+02 -0.14263713716E+02 -0.13376972137E+02  0.38946207917E+02  0.00000000000E+00 0. -1.
</event>
<event>
 7    1  0.3622165E-015  0.9000780E+02  0.7816164E-02  0.1186339E+00
        -11   -1    0    0    0    0  0.00000000000E+00  0.00000000000E+00  0.45593999997E+02  0.45594000000E+02  0.51100000000E-03 0.  1.
         11   -1    0    0    0    0 -0.00000000000E+00 -0.00000000000E+00 -0.45593999997E+02  0.45594000000E+02  0.51100000000E-03 0. -1.
    9900012    2    1    2    0    0  0.10167460156E+01  0.16873003388E+00  0.57500152201E+00  0.90007801273E+02  0.90000063450E+02 0.  0.
        -12    1    1    2    0    0 -0.10167460156E+01 -0.16873003388E+00 -0.57500152201E+00  0.11801987268E+01  0.00000000000E+00 0.  1.
         11    1    3    3    0    0 -0.33006751327E+01 -0.53643828302E+01 -0.57499345141E+00  0.63246879141E+01  0.51100000000E-03 0. -1.
        -11    1    3    3    0    0 -0.12592157031E+02 -0.25260748646E+02 -0.26699305518E+02  0.38852551476E+02  0.51100000000E-03 0.  1.
         12    1    3    3    0    0  0.16909578180E+02  0.30793861510E+02  0.27849300491E+02  0.44830561883E+02  0.00000000000E+00 0. -1.
</event>
<event>
 7    1  0.3622165E-015  0.9000778E+02  0.7816164E-02  0.1186339E+00
        -11   -1    0    0    0    0  0.00000000000E+00  0.00000000000E+00  0.45593999997E+02  0.45594000000E+02  0.51100000000E-03 0.  1.
         11   -1    0    0    0    0 -0.00000000000E+00 -0.00000000000E+00 -0.45593999997E+02  0.45594000000E+02  0.51100000000E-03 0. -1.
    9900012    2    1    2    0    0 -0.26348800180E+00  0.28522720406E+00 -0.11145150991E+01  0.90007777821E+02  0.90000039689E+02 0.  0.
        -12    1    1    2    0    0  0.26348800180E+00 -0.28522720406E+00  0.11145150991E+01  0.11802221787E+01  0.00000000000E+00 0.  1.
         11    1    3    3    0    0 -0.31768198251E+02 -0.72605954841E+01  0.24103072453E+02  0.40532613644E+02  0.51100000000E-03 0. -1.
        -11    1    3    3    0    0 -0.29406936471E+01 -0.25330442757E+01  0.20617710869E+01  0.43948711818E+01  0.51100000000E-03 0.  1.
        -12    1    3    3    0    0  0.34445403896E+02  0.10078866964E+02 -0.27279358639E+02  0.45080292996E+02  0.00000000000E+00 0.  1.
</event>
<event>
 7    1  0.3622165E-015  0.9000766E+02  0.7816164E-02  0.1186339E+00
        -11   -1    0    0    0    0  0.00000000000E+00  0.00000000000E+00  0.45593999997E+02  0.45594000000E+02  0.51100000000E-03 0. -1.
         11   -1    0    0    0    0 -0.00000000000E+00 -0.00000000000E+00 -0.45593999997E+02  0.45594000000E+02  0.51100000000E-03 0.  1.
    9900012    2    1    2    0    0 -0.26256080233E+00  0.55791566871E-01  0.11494092321E+01  0.90007664261E+02  0.89999924629E+02 0.  0.
        -12    1    1    2    0    0  0.26256080233E+00 -0.55791566871E-01 -0.11494092321E+01  0.11803357389E+01  0.00000000000E+00 0.  1.
         11    1    3    3    0    0  0.61512775480E+01  0.12057490377E+01  0.51283125960E+01  0.80988663749E+01  0.51100000000E-03 0. -1.
        -11    1    3    3    0    0 -0.21632222794E+02  0.22298388232E+02 -0.30384208077E+02  0.43455394158E+02  0.51100000000E-03 0.  1.
         12    1    3    3    0    0  0.15218384444E+02 -0.23448345702E+02  0.26405304713E+02  0.38453403728E+02  0.00000000000E+00 0. -1.
</event>
<event>
 7    1  0.3622165E-015  0.9000742E+02  0.7816164E-02  0.1186340E+00
        -11   -1    0    0    0    0  0.00000000000E+00  0.00000000000E+00  0.45593999997E+02  0.45594000000E+02  0.51100000000E-03 0.  1.
         11   -1    0    0    0    0 -0.00000000000E+00 -0.00000000000E+00 -0.45593999997E+02  0.45594000000E+02  0.51100000000E-03 0. -1.
    9900012    2    1    2    0    0 -0.12753485244E+00  0.10602057899E+01  0.50345113649E+00  0.90007421963E+02  0.89999679132E+02 0.  0.
        -12    1    1    2    0    0  0.12753485244E+00 -0.10602057899E+01 -0.50345113649E+00  0.11805780374E+01  0.00000000000E+00 0.  1.
         11    1    3    3    0    0 -0.29941927485E+01 -0.75834322571E+01  0.41323055091E+01  0.91405461596E+01  0.51100000000E-03 0. -1.
        -11    1    3    3    0    0  0.18583062354E+02 -0.34987391164E+01  0.33666224727E+02  0.38613288768E+02  0.51100000000E-03 0.  1.
         12    1    3    3    0    0 -0.15716404458E+02  0.12142377163E+02 -0.37295079100E+02  0.42253587035E+02  0.00000000000E+00 0. -1.
</event>
<event>
 7    1  0.3622165E-015  0.9000771E+02  0.7816164E-02  0.1186339E+00
        -11   -1    0    0    0    0  0.00000000000E+00  0.00000000000E+00  0.45593999997E+02  0.45594000000E+02  0.51100000000E-03 0.  1.
         11   -1    0    0    0    0 -0.00000000000E+00 -0.00000000000E+00 -0.45593999997E+02  0.45594000000E+02  0.51100000000E-03 0. -1.
    9900012    2    1    2    0    0  0.89844166158E+00  0.17717703866E+00 -0.74463779546E+00  0.90007714200E+02  0.89999975228E+02 0.  0.
        -12    1    1    2    0    0 -0.89844166158E+00 -0.17717703866E+00  0.74463779546E+00  0.11802857996E+01  0.00000000000E+00 0.  1.
         11    1    3    3    0    0 -0.78658015521E+01  0.45163312451E+01 -0.45838560123E+00  0.90817509101E+01  0.51100000000E-03 0. -1.
        -11    1    3    3    0    0 -0.23821824518E+02 -0.14703578606E+02 -0.25950254016E+02  0.38171851291E+02  0.51100000000E-03 0.  1.
         12    1    3    3    0    0  0.32586067732E+02  0.10364424400E+02  0.25664001821E+02  0.42754112000E+02  0.00000000000E+00 0. -1.
</event>
<event>
 7    1  0.3622165E-015  0.9000769E+02  0.7816164E-02  0.1186339E+00
        -11   -1    0    0    0    0  0.00000000000E+00  0.00000000000E+00  0.45593999997E+02  0.45594000000E+02  0.51100000000E-03 0.  1.
         11   -1    0    0    0    0 -0.00000000000E+00 -0.00000000000E+00 -0.45593999997E+02  0.45594000000E+02  0.51100000000E-03 0. -1.
    9900012    2    1    2    0    0 -0.59861686724E+00 -0.57015896232E+00 -0.84244665487E+00  0.90007686583E+02  0.89999947246E+02 0.  0.
        -12    1    1    2    0    0  0.59861686724E+00  0.57015896232E+00  0.84244665487E+00  0.11803134170E+01  0.00000000000E+00 0.  1.
         11    1    3    3    0    0 -0.82074986829E+00 -0.18598836205E+01  0.10599017217E+01  0.22926380763E+01  0.51100000000E-03 0. -1.
        -11    1    3    3    0    0 -0.14693286509E+02  0.36491371422E+02  0.19494132538E+02  0.43903690737E+02  0.51100000000E-03 0.  1.
         12    1    3    3    0    0  0.14915419510E+02 -0.35201646764E+02 -0.21396480915E+02  0.43811357769E+02  0.00000000000E+00 0. -1.
</event>
<event>
 7    1  0.3785206E-015  0.9000843E+02  0.7816164E-02  0.1186338E+00
        -11   -1    0    0    0    0  0.00000000000E+00  0.00000000000E+00  0.45593999997E+02  0.45594000000E+02  0.51100000000E-03 0.  1.
         11   -1    0    0    0    0 -0.00000000000E+00 -0.00000000000E+00 -0.45593999997E+02  0.45594000000E+02  0.51100000000E-03 0. -1.
    9900012    2    1    2    0    0 -0.87682561780E+00  0.50390540459E+00 -0.60715775894E+00  0.90008430432E+02  0.90000700911E+02 0.  0.
        -12    1    1    2    0    0  0.87682561780E+00 -0.50390540459E+00  0.60715775894E+00  0.11795695677E+01  0.00000000000E+00 0.  1.
         11    1    3    3    0    0  0.29818961966E+00 -0.62136600927E+00  0.10246977727E+02  0.10270129774E+02  0.51100000000E-03 0. -1.
        -11    1    3    3    0    0  0.14727576281E+02 -0.19396938582E+01  0.31264087141E+02  0.34613683138E+02  0.51100000000E-03 0.  1.
         12    1    3    3    0    0 -0.15902591519E+02  0.30649652721E+01 -0.42118222627E+02  0.45124617520E+02  0.00000000000E+00 0. -1.
</event>
<event>
 7    1  0.3622165E-015  0.9000756E+02  0.7816164E-02  0.1186339E+00
        -11   -1    0    0    0    0  0.00000000000E+00  0.00000000000E+00  0.45593999997E+02  0.45594000000E+02  0.51100000000E-03 0.  1.
         11   -1    0    0    0    0 -0.00000000000E+00 -0.00000000000E+00 -0.45593999997E+02  0.45594000000E+02  0.51100000000E-03 0. -1.
    9900012    2    1    2    0    0  0.52917347569E+00 -0.48170129485E+00  0.93881690920E+00  0.90007560296E+02  0.89999819292E+02 0.  0.
        -12    1    1    2    0    0 -0.52917347569E+00  0.48170129485E+00 -0.93881690920E+00  0.11804397036E+01  0.00000000000E+00 0.  1.
         11    1    3    3    0    0  0.18449694363E+02  0.29290508638E+02 -0.16135366694E+02  0.38192606312E+02  0.51100000000E-03 0. -1.
        -11    1    3    3    0    0  0.72723833498E+01  0.27432980743E+01  0.22453168879E+01  0.80904074125E+01  0.51100000000E-03 0.  1.
        -12    1    3    3    0    0 -0.25192904237E+02 -0.32515508007E+02  0.14828866715E+02  0.43724546572E+02  0.00000000000E+00 0.  1.
</event>
<event>
 7    1  0.3622165E-015  0.9000775E+02  0.7816164E-02  0.1186339E+00
        -11   -1    0    0    0    0  0.00000000000E+00  0.00000000000E+00  0.45593999997E+02  0.45594000000E+02  0.51100000000E-03 0.  1.
         11   -1    0    0    0    0 -0.00000000000E+00 -0.00000000000E+00 -0.45593999997E+02  0.45594000000E+02  0.51100000000E-03 0. -1.
    9900012    2    1    2    0    0 -0.68468879128E+00  0.93076668458E+00  0.24054863526E+00  0.90007750447E+02  0.90000011953E+02 0.  0.
        -12    1    1    2    0    0  0.68468879128E+00 -0.93076668458E+00 -0.24054863526E+00  0.11802495533E+01  0.00000000000E+00 0.  1.
         11    1    3    3    0    0 -0.12303427514E+01 -0.77338560339E+01 -0.92965296514E+01  0.12155317201E+02  0.51100000000E-03 0. -1.
        -11    1    3    3    0    0  0.33276822801E+01 -0.33964430602E+02  0.21653149794E+00  0.34127743870E+02  0.51100000000E-03 0.  1.
         12    1    3    3    0    0 -0.27820283200E+01  0.42629053321E+02  0.93205467887E+01  0.43724689376E+02  0.00000000000E+00 0. -1.
</event>
<event>
 7    1  0.3622165E-015  0.9000772E+02  0.7816164E-02  0.1186339E+00
        -11   -1    0    0    0    0  0.00000000000E+00  0.00000000000E+00  0.45593999997E+02  0.45594000000E+02  0.51100000000E-03 0.  1.
         11   -1    0    0    0    0 -0.00000000000E+00 -0.00000000000E+00 -0.45593999997E+02  0.45594000000E+02  0.51100000000E-03 0. -1.
    9900012    2    1    2    0    0 -0.33212048797E+00 -0.97935215522E+00 -0.56888438186E+00  0.90007718634E+02  0.89999979720E+02 0.  0.
        -12    1    1    2    0    0  0.33212048797E+00  0.97935215522E+00  0.56888438186E+00  0.11802813658E+01  0.00000000000E+00 0.  1.
         11    1    3    3    0    0 -0.69512234178E+01  0.62078757361E+00 -0.37259061207E+02  0.37907024765E+02  0.51100000000E-03 0. -1.
        -11    1    3    3    0    0 -0.84709953747E+01 -0.32538277182E+01 -0.30392389298E+01  0.95698553276E+01  0.51100000000E-03 0.  1.
        -12    1    3    3    0    0  0.15090098305E+02  0.16536879894E+01  0.39729415755E+02  0.42530838542E+02  0.00000000000E+00 0.  1.
</event>
<event>
 7    1  0.3622165E-015  0.9000775E+02  0.7816164E-02  0.1186339E+00
        -11   -1    0    0    0    0  0.00000000000E+00  0.00000000000E+00  0.45593999997E+02  0.45594000000E+02  0.51100000000E-03 0.  1.
         11   -1    0    0    0    0 -0.00000000000E+00 -0.00000000000E+00 -0.45593999997E+02  0.45594000000E+02  0.51100000000E-03 0. -1.
    9900012    2    1    2    0    0  0.10094360231E+01  0.87100271806E-01  0.60535105209E+00  0.90007746875E+02  0.90000008334E+02 0.  0.
        -12    1    1    2    0    0 -0.10094360231E+01 -0.87100271806E-01 -0.60535105209E+00  0.11802531247E+01  0.00000000000E+00 0.  1.
         11    1    3    3    0    0 -0.72728150106E+01 -0.54719395636E+01 -0.65221576763E+01  0.11197075591E+02  0.51100000000E-03 0. -1.
        -11    1    3    3    0    0  0.13188188791E+02 -0.27611508469E+02  0.26157220065E+02  0.40255731087E+02  0.51100000000E-03 0.  1.
         12    1    3    3    0    0 -0.49059377577E+01  0.33170548304E+02 -0.19029711337E+02  0.38554940198E+02  0.00000000000E+00 0. -1.
</event>
<event>
 7    1  0.3622165E-015  0.9000787E+02  0.7816164E-02  0.1186339E+00
        -11   -1    0    0    0    0  0.00000000000E+00  0.00000000000E+00  0.45593999997E+02  0.45594000000E+02  0.51100000000E-03 0.  1.
         11   -1    0    0    0    0 -0.00000000000E+00 -0.00000000000E+00 -0.45593999997E+02  0.45594000000E+02  0.51100000000E-03 0. -1.
    9900012    2    1    2    0    0  0.38154595968E+00 -0.93957501070E+00 -0.60359515755E+00  0.90007870501E+02  0.90000133592E+02 0.  0.
        -12    1    1    2    0    0 -0.38154595968E+00  0.93957501070E+00  0.60359515755E+00  0.11801294990E+01  0.00000000000E+00 0.  1.
         11    1    3    3    0    0  0.86098944241E+01  0.29365277016E+01 -0.29236755225E+01  0.95551742925E+01  0.51100000000E-03 0. -1.
        -11    1    3    3    0    0  0.19699116847E+02 -0.25495888170E+02  0.22943943436E+02  0.39554014446E+02  0.51100000000E-03 0.  1.
         12    1    3    3    0    0 -0.27927465311E+02  0.21619785458E+02 -0.20623863071E+02  0.40898681763E+02  0.00000000000E+00 0. -1.
</event>
<event>
 7    1  0.3622165E-015  0.9000767E+02  0.7816164E-02  0.1186339E+00
        -11   -1    0    0    0    0  0.00000000000E+00  0.00000000000E+00  0.45593999997E+02  0.45594000000E+02  0.51100000000E-03 0.  1.
         11   -1    0    0    0    0 -0.00000000000E+00 -0.00000000000E+00 -0.45593999997E+02  0.45594000000E+02  0.51100000000E-03 0. -1.
    9900012    2    1    2    0    0  0.82665973257E-01 -0.50151199480E+00 -0.10652876151E+01  0.90007667146E+02  0.89999927552E+02 0.  0.
        -12    1    1    2    0    0 -0.82665973257E-01  0.50151199480E+00  0.10652876151E+01  0.11803328543E+01  0.00000000000E+00 0.  1.
         11    1    3    3    0    0  0.21315078454E+02  0.73792789256E+01 -0.11595309410E+02  0.25362127820E+02  0.51100000000E-03 0. -1.
        -11    1    3    3    0    0  0.19005697288E+02 -0.73644730570E+01 -0.58386632525E+01  0.21202405091E+02  0.51100000000E-03 0.  1.
        -12    1    3    3    0    0 -0.40238109769E+02 -0.51631786337E+00  0.16368685047E+02  0.43443134235E+02  0.00000000000E+00 0.  1.
</event>
<event>
 7    1  0.3622165E-015  0.9000770E+02  0.7816164E-02  0.1186339E+00
        -11   -1    0    0    0    0  0.00000000000E+00  0.00000000000E+00  0.45593999997E+02  0.45594000000E+02  0.51100000000E-03 0.  1.
         11   -1    0    0    0    0 -0.00000000000E+00 -0.00000000000E+00 -0.45593999997E+02  0.45594000000E+02  0.51100000000E-03 0. -1.
    9900012    2    1    2    0    0  0.10877679740E+01  0.30356401364E+00 -0.34311361951E+00  0.90007696127E+02  0.89999956916E+02 0.  0.
        -12    1    1    2    0    0 -0.10877679740E+01 -0.30356401364E+00  0.34311361951E+00  0.11803038726E+01  0.00000000000E+00 0.  1.
         11    1    3    3    0    0  0.52913236983E+01  0.45606637321E+01 -0.44490660281E+01  0.82820256545E+01  0.51100000000E-03 0. -1.
        -11    1    3    3    0    0  0.24600243300E+02  0.25400267154E+02  0.15845927605E+02  0.38748405952E+02  0.51100000000E-03 0.  1.
         12    1    3    3    0    0 -0.28803799024E+02 -0.29657366873E+02 -0.11739975196E+02  0.42977264521E+02  0.00000000000E+00 0. -1.
</event>
<event>
 7    1  0.3622165E-015  0.9000770E+02  0.7816164E-02  0.1186339E+00
        -11   -1    0    0    0    0  0.00000000000E+00  0.00000000000E+00  0.45593999997E+02  0.45594000000E+02  0.51100000000E-03 0. -1.
         11   -1    0    0    0    0 -0.00000000000E+00 -0.00000000000E+00 -0.45593999997E+02  0.45594000000E+02  0.51100000000E-03 0.  1.
    9900012    2    1    2    0    0 -0.11800537713E+01  0.23610001901E-01  0.36926328470E-02  0.90007704287E+02  0.89999965183E+02 0.  0.
        -12    1    1    2    0    0  0.11800537713E+01 -0.23610001901E-01 -0.36926328470E-02  0.11802957134E+01  0.00000000000E+00 0.  1.
         11    1    3    3    0    0 -0.20759045931E+02  0.15062989957E+02  0.27551595084E+02  0.37642025003E+02  0.51100000000E-03 0. -1.
        -11    1    3    3    0    0 -0.29463178919E+01 -0.68522627821E+01  0.70592158973E+01  0.10269704168E+02  0.51100000000E-03 0.  1.
        -12    1    3    3    0    0  0.22525310052E+02 -0.81871171730E+01 -0.34607118348E+02  0.42095975115E+02  0.00000000000E+00 0.  1.
</event>
<event>
 7    1  0.3622165E-015  0.9000764E+02  0.7816164E-02  0.1186339E+00
        -11   -1    0    0    0    0  0.00000000000E+00  0.00000000000E+00  0.45593999997E+02  0.45594000000E+02  0.51100000000E-03 0.  1.
         11   -1    0    0    0    0 -0.00000000000E+00 -0.00000000000E+00 -0.45593999997E+02  0.45594000000E+02  0.51100000000E-03 0. -1.
    9900012    2    1    2    0    0  0.88317126795E+00  0.74157665208E+00 -0.25164506418E+00  0.90007638760E+02  0.89999898791E+02 0.  0.
        -12    1    1    2    0    0 -0.88317126795E+00 -0.74157665208E+00  0.25164506418E+00  0.11803612404E+01  0.00000000000E+00 0.  1.
         11    1    3    3    0    0  0.28200949278E+02  0.89605507119E+01 -0.27072259297E+02  0.40106012429E+02  0.51100000000E-03 0. -1.
        -11    1    3    3    0    0  0.46495137437E+01  0.49784836041E+01  0.80719043683E+01  0.10562145494E+02  0.51100000000E-03 0.  1.
        -12    1    3    3    0    0 -0.31967291754E+02 -0.13197457664E+02  0.18748709865E+02  0.39339480836E+02  0.00000000000E+00 0.  1.
</event>
<event>
 7    1  0.3622165E-015  0.9000752E+02  0.7816164E-02  0.1186339E+00
        -11   -1    0    0    0    0  0.00000000000E+00  0.00000000000E+00  0.45593999997E+02  0.45594000000E+02  0.51100000000E-03 0.  1.
         11   -1    0    0    0    0 -0.00000000000E+00 -0.00000000000E+00 -0.45593999997E+02  0.45594000000E+02  0.51100000000E-03 0. -1.
    9900012    2    1    2    0    0  0.86721385674E+00  0.31948112784E+00  0.73444549346E+00  0.90007517790E+02  0.89999776225E+02 0.  0.
        -12    1    1    2    0    0 -0.86721385674E+00 -0.31948112784E+00 -0.73444549346E+00  0.11804822096E+01  0.00000000000E+00 0.  1.
         11    1    3    3    0    0 -0.41070740584E+01  0.96134776848E+01 -0.16629254187E+01  0.10585477397E+02  0.51100000000E-03 0. -1.
        -11    1    3    3    0    0 -0.20415975741E+02  0.24487786790E+02 -0.13019742740E+02  0.34438023587E+02  0.51100000000E-03 0.  1.
         12    1    3    3    0    0  0.25390263656E+02 -0.33781783347E+02  0.15417113653E+02  0.44984016806E+02  0.00000000000E+00 0. -1.
</event>
<event>
 7    1  0.3622165E-015  0.9000754E+02  0.7816164E-02  0.1186339E+00
        -11   -1    0    0    0    0  0.00000000000E+00  0.00000000000E+00  0.45593999997E+02  0.45594000000E+02  0.51100000000E-03 0.  1.
         11   -1    0    0    0    0 -0.00000000000E+00 -0.00000000000E+00 -0.45593999997E+02  0.45594000000E+02  0.51100000000E-03 0. -1.
    9900012    2    1    2    0    0 -0.90947825993E+00  0.60487234543E+00 -0.44774013832E+00  0.90007537171E+02  0.89999795861E+02 0.  0.
        -12    1    1    2    0    0  0.90947825993E+00 -0.60487234543E+00  0.44774013832E+00  0.11804628292E+01  0.00000000000E+00 0.  1.
         11    1    3    3    0    0 -0.19615928569E+02  0.14427805319E+02 -0.30541934703E+02  0.39060926712E+02  0.51100000000E-03 0. -1.
        -11    1    3    3    0    0  0.55991866550E+01  0.79223526228E+00 -0.69873436295E+01  0.89889654113E+01  0.51100000000E-03 0.  1.
        -12    1    3    3    0    0  0.13107263654E+02 -0.14615168236E+02  0.37081538194E+02  0.41957645047E+02  0.00000000000E+00 0.  1.
</event>
